 Gaussian 16, Revision A.03,
 Gaussian 16:  ES64L-G16RevA.03 25-Dec-2016

 ----------------------------------------------------------------
 #P UB3LYP/6-311++G(d,p) SCRF=(PCM,Solvent=n,n-DiMethylFormamide)
 ----------------------------------------------------------------

 -------
 Reduced
 -------
 Symbolic Z-matrix:
 Charge = -2 Multiplicity = 1

                         Standard orientation:
 ---------------------------------------------------------------------
 Center     Atomic      Atomic             Coordinates (Angstroms)
 Number     Number       Type             X           Y           Z
 ---------------------------------------------------------------------
      1          6           0       -2.294383   -1.776034   -0.688031
      2          8           0       -1.318800   -1.477045    0.295874
      3          6           0       -0.693377   -0.239617    0.111990
      4          6           0        0.693457   -0.239778   -0.112482
      5          8           0        1.318753   -1.477249   -0.296525
      6          6           0        2.292907   -1.776966    0.688512
      7          6           0        1.475842    0.964805   -0.225859
      8          8           0        2.758229    0.965539   -0.436040
      9          6           0        0.691049    2.152941   -0.098250
     10          6           0       -0.690173    2.153093    0.098178
     11          6           0       -1.475305    0.965216    0.225792
     12          8           0       -2.757671    0.966425    0.436493
     13          1           0       -1.826553   -1.901165   -1.679228
     14          1           0       -2.757000   -2.729679   -0.399815
     15          1           0       -3.051525   -0.985977   -0.724874
     16          1           0        2.755658   -2.730612    0.400484
     17          1           0        1.823732   -1.902412    1.679017
     18          1           0        3.050373   -0.987269    0.726696
     19          1           0        1.230063    3.096753   -0.186950
     20          1           0       -1.228923    3.097039    0.187155
 ---------------------------------------------------------------------

 SCF Done:  E(UB3LYP) =  -610.930978226     A.U. after   16 cycles

 The electronic state is 1-A.
 Alpha  occ. eigenvalues --  -19.10952 -19.10950 -19.01024 -19.01024 -10.18933
 Alpha  occ. eigenvalues --  -10.18932 -10.17207 -10.17158 -10.16480 -10.16479
 Alpha  occ. eigenvalues --  -10.11727 -10.11674  -1.02850  -1.01103  -0.92068
 Alpha  occ. eigenvalues --   -0.91810  -0.77344  -0.70957  -0.67889  -0.63692
 Alpha  occ. eigenvalues --   -0.63086  -0.55107  -0.53254  -0.47511  -0.46276
 Alpha  occ. eigenvalues --   -0.44318  -0.44068  -0.42367  -0.42014  -0.40121
 Alpha  occ. eigenvalues --   -0.39405  -0.35669  -0.34813  -0.34100  -0.33267
 Alpha  occ. eigenvalues --   -0.32309  -0.31388  -0.30479  -0.25813  -0.25687
 Alpha  occ. eigenvalues --   -0.21897  -0.19338  -0.18942  -0.18783  -0.11351
 Alpha virt. eigenvalues --    0.00187   0.01356   0.01451   0.02734   0.03434
 Alpha virt. eigenvalues --    0.03638   0.03859   0.04314   0.05239   0.05828
 Alpha virt. eigenvalues --    0.06590   0.08051   0.08088   0.08377   0.08631

  Beta  occ. eigenvalues --  -19.10952 -19.10950 -19.01024 -19.01024 -10.18933
  Beta  occ. eigenvalues --  -10.18932 -10.17207 -10.17158 -10.16480 -10.16479
  Beta  occ. eigenvalues --  -10.11727 -10.11674  -1.02850  -1.01103  -0.92068
  Beta  occ. eigenvalues --   -0.91810  -0.77344  -0.70957  -0.67889  -0.63692
  Beta  occ. eigenvalues --   -0.63086  -0.55107  -0.53254  -0.47511  -0.46276
  Beta  occ. eigenvalues --   -0.44318  -0.44068  -0.42367  -0.42014  -0.40121
  Beta  occ. eigenvalues --   -0.39405  -0.35669  -0.34813  -0.34100  -0.33267
  Beta  occ. eigenvalues --   -0.32309  -0.31388  -0.30479  -0.25813  -0.25687
  Beta  occ. eigenvalues --   -0.21897  -0.19338  -0.18942  -0.18783  -0.11351
  Beta virt. eigenvalues --    0.00187   0.01356   0.01451   0.02734   0.03434
  Beta virt. eigenvalues --    0.03638   0.03859   0.04314   0.05239   0.05828
  Beta virt. eigenvalues --    0.06590   0.08051   0.08088   0.08377   0.08631

 Mulliken charges and spin densities:
               1          2
     1  C   -0.245157   0.000000
     2  O   -0.222418  -0.000000
     3  C   -0.034127   0.000000
     4  C   -0.033963  -0.000000
     5  O   -0.222313   0.000000
     6  C   -0.245252   0.000000
     7  C   -0.297082   0.000000
     8  O   -0.729550  -0.000000
     9  C   -0.022546  -0.000000
    10  C   -0.022339   0.000000
    11  C   -0.298052  -0.000000
    12  O   -0.729584   0.000000
    13  H    0.117028  -0.000000
    14  H    0.132682   0.000000
    15  H    0.172221  -0.000000
    16  H    0.132689   0.000000
    17  H    0.117080  -0.000000
    18  H    0.172116  -0.000000
    19  H    0.129285   0.000000
    20  H    0.129280   0.000000
 Sum of Mulliken charges =  -2.00000  -0.00000

 Dipole moment (field-independent basis, Debye):
    X=             -0.0037    Y=             -7.1697    Z=              0.0007  Tot=              7.1697
 Quadrupole moment (field-independent basis, Debye-Ang):
   XX=           -134.8862   YY=            -93.1440   ZZ=            -81.9953
   XY=              0.0086   XZ=             14.0824   YZ=             -0.0062

 Normal termination of Gaussian 16 at Wed Jan 24 22:49:56 2024.
