 Q-Chem 5.4, Q-Chem, Inc., Pleasanton, CA (2021)
 Q-Chem 5.4.0 for Intel X86 EM64T Linux

User input:
--------------------------------------------------------------
$molecule
-1 2
C                 -3.3195850000      1.7505270000      0.5362800000
C                 -3.9139070000      1.5386290000     -0.7634650000
C                 -3.5560830000      0.4952550000     -1.5707680000
C                 -2.5542440000     -0.4679150000     -1.1820400000
C                 -1.9481380000     -0.2745110000      0.1325680000
C                 -2.3031450000      0.7808480000      0.9499540000
O                 -3.6663650000      2.7208990000      1.2724020000
O                 -2.2172030000     -1.4266290000     -1.9426990000
C                 -1.6791950000      0.9962830000      2.3082370000
C                 -0.9244890000     -1.3161110000      0.5560350000
C                  0.5137060000     -0.9798160000      0.1999480000
C                  0.9066090000     -0.8374270000     -1.1375610000
C                  1.4949750000     -0.8187870000      1.1839510000
C                  2.8174950000     -0.5228880000      0.8529360000
C                  2.2280280000     -0.5428860000     -1.4644080000
C                  3.2105640000     -0.3775540000     -0.4809510000
C                  4.6471630000     -0.0493690000     -0.8637950000
C                  5.0911950000      1.3242630000     -0.3278550000
C                  5.6315940000     -1.1514830000     -0.4306850000
H                 -4.6675390000      2.2584290000     -1.0710510000
H                 -4.0125590000      0.3515540000     -2.5463370000
H                 -1.8533390000      0.1446480000      2.9782910000
H                 -2.1186970000      1.8857560000      2.7609930000
H                 -0.5947470000      1.1359340000      2.2406770000
H                 -1.1895130000     -2.2473660000      0.0456880000
H                 -0.9865800000     -1.4909330000      1.6339110000
H                  0.1583800000     -0.9687630000     -1.9121320000
H                  1.2196330000     -0.9242110000      2.2292340000
H                  3.5446810000     -0.4023990000      1.6511060000
H                  2.5036240000     -0.4383270000     -2.5108090000
H                  4.6775350000      0.0026600000     -1.9588530000
H                  4.4145750000      2.1132650000     -0.6656320000
H                  6.1031910000      1.5691120000     -0.6693490000
H                  5.0952750000      1.3381660000      0.7664440000
H                  5.3400380000     -2.1209980000     -0.8431530000
H                  5.6593940000     -1.2496280000      0.6589990000
H                  6.6479230000     -0.9245570000     -0.7716530000
$end
$rem
MAX_SCF_CYCLES=200
BASIS  =  6-311++G(d,p)
GUI  =  2
JOB_TYPE  =  SP
METHOD  =  B3LYP
SOLVENT_METHOD = PCM
$end
$pcm
theory = CPCM
$end
$solvent
dielectric 37.219
opticaldielectric 1.43
$end

--------------------------------------------------------------

             Standard Nuclear Orientation (Angstroms)
    I     Atom           X                Y                Z
 ----------------------------------------------------------------
    1      C      -3.3195850000     1.7505270000     0.5362800000
    2      C      -3.9139070000     1.5386290000    -0.7634650000
    3      C      -3.5560830000     0.4952550000    -1.5707680000
    4      C      -2.5542440000    -0.4679150000    -1.1820400000
    5      C      -1.9481380000    -0.2745110000     0.1325680000
    6      C      -2.3031450000     0.7808480000     0.9499540000
    7      O      -3.6663650000     2.7208990000     1.2724020000
    8      O      -2.2172030000    -1.4266290000    -1.9426990000
    9      C      -1.6791950000     0.9962830000     2.3082370000
   10      C      -0.9244890000    -1.3161110000     0.5560350000
   11      C       0.5137060000    -0.9798160000     0.1999480000
   12      C       0.9066090000    -0.8374270000    -1.1375610000
   13      C       1.4949750000    -0.8187870000     1.1839510000
   14      C       2.8174950000    -0.5228880000     0.8529360000
   15      C       2.2280280000    -0.5428860000    -1.4644080000
   16      C       3.2105640000    -0.3775540000    -0.4809510000
   17      C       4.6471630000    -0.0493690000    -0.8637950000
   18      C       5.0911950000     1.3242630000    -0.3278550000
   19      C       5.6315940000    -1.1514830000    -0.4306850000
   20      H      -4.6675390000     2.2584290000    -1.0710510000
   21      H      -4.0125590000     0.3515540000    -2.5463370000
   22      H      -1.8533390000     0.1446480000     2.9782910000
   23      H      -2.1186970000     1.8857560000     2.7609930000
   24      H      -0.5947470000     1.1359340000     2.2406770000
   25      H      -1.1895130000    -2.2473660000     0.0456880000
   26      H      -0.9865800000    -1.4909330000     1.6339110000
   27      H       0.1583800000    -0.9687630000    -1.9121320000
   28      H       1.2196330000    -0.9242110000     2.2292340000
   29      H       3.5446810000    -0.4023990000     1.6511060000
   30      H       2.5036240000    -0.4383270000    -2.5108090000
   31      H       4.6775350000     0.0026600000    -1.9588530000
   32      H       4.4145750000     2.1132650000    -0.6656320000
   33      H       6.1031910000     1.5691120000    -0.6693490000
   34      H       5.0952750000     1.3381660000     0.7664440000
   35      H       5.3400380000    -2.1209980000    -0.8431530000
   36      H       5.6593940000    -1.2496280000     0.6589990000
   37      H       6.6479230000    -0.9245570000    -0.7716530000
 ----------------------------------------------------------------

    8    -809.4625296723      4.45e-06  Convergence criterion met
 Total energy in the final basis set =     -809.4625296723

                    Orbital Energies (a.u.)
 --------------------------------------------------------------

 Alpha MOs
 -- Occupied --
-19.0765 -19.0751 -10.2167 -10.2164 -10.1761 -10.1741 -10.1733 -10.1686
-10.1670 -10.1668 -10.1662 -10.1658 -10.1634 -10.1624 -10.1596 -10.1590
-10.1528 -10.1527 -10.1501  -0.9978  -0.9948  -0.8592  -0.8273  -0.8017
 -0.7712  -0.7451  -0.7403  -0.7065  -0.6791  -0.6616  -0.6606  -0.6097
 -0.5975  -0.5683  -0.5552  -0.5485  -0.4937  -0.4852  -0.4668  -0.4609
 -0.4471  -0.4318  -0.4306  -0.4245  -0.4162  -0.4121  -0.4104  -0.4047
 -0.3978  -0.3902  -0.3877  -0.3815  -0.3776  -0.3731  -0.3644  -0.3591
 -0.3486  -0.3442  -0.3325  -0.3311  -0.3222  -0.3180  -0.2778  -0.2527
 -0.2463  -0.2438  -0.2382  -0.2291  -0.1603

 Beta MOs
 -- Occupied --
-19.0698 -19.0685 -10.2151 -10.2147 -10.1760 -10.1741 -10.1733 -10.1676
-10.1668 -10.1662 -10.1662 -10.1658 -10.1635 -10.1624 -10.1584 -10.1577
-10.1528 -10.1527 -10.1502  -0.9860  -0.9829  -0.8591  -0.8227  -0.8007
 -0.7689  -0.7439  -0.7403  -0.7038  -0.6791  -0.6595  -0.6523  -0.6093
 -0.5970  -0.5657  -0.5540  -0.5449  -0.4932  -0.4834  -0.4660  -0.4571
 -0.4467  -0.4289  -0.4286  -0.4230  -0.4132  -0.4101  -0.4096  -0.4029
 -0.3936  -0.3874  -0.3814  -0.3792  -0.3738  -0.3652  -0.3579  -0.3491
 -0.3436  -0.3380  -0.3321  -0.3303  -0.3218  -0.3176  -0.2524  -0.2481
 -0.2419  -0.2383  -0.2301  -0.2256

          Ground-State Mulliken Net Atomic Charges

     Atom                 Charge (a.u.)    Spin (a.u.)
  --------------------------------------------------------
      1 C                    -0.617863       0.124695
      2 C                    -0.072283       0.086802
      3 C                    -0.258496       0.070117
      4 C                    -0.422931       0.123697
      5 C                     0.685652       0.053819
      6 C                     0.321550       0.054237
      7 O                    -0.529537       0.240364
      8 O                    -0.505286       0.235099
      9 C                    -0.683972       0.003732
     10 C                    -0.064352       0.026537
     11 C                     0.989671      -0.023767
     12 C                    -0.750056       0.010936
     13 C                    -0.331957      -0.000340
     14 C                    -0.569638      -0.001909
     15 C                    -0.661552       0.006623
     16 C                     0.573256      -0.000863
     17 C                     0.129220      -0.000694
     18 C                    -0.717036      -0.000115
     19 C                    -0.714571       0.000079
     20 H                     0.194418      -0.008160
     21 H                     0.197596      -0.008490
     22 H                     0.167161       0.003490
     23 H                     0.173565      -0.002681
     24 H                     0.170435       0.003494
     25 H                     0.215286       0.002300
     26 H                     0.212895      -0.000338
     27 H                     0.160507       0.001323
     28 H                     0.178051       0.000014
     29 H                     0.205872       0.000134
     30 H                     0.202053      -0.000101
     31 H                     0.191060      -0.000048
     32 H                     0.145107       0.000052
     33 H                     0.160303       0.000002
     34 H                     0.160750      -0.000045
     35 H                     0.144558      -0.000002
     36 H                     0.161209      -0.000006
     37 H                     0.159357       0.000015
  --------------------------------------------------------
  Sum of atomic charges =    -1.000000

                    Cartesian Multipole Moments
 -----------------------------------------------------------------
    Charge (ESU x 10^10)
                -4.8032
    Dipole Moment (Debye)
         X      14.1626      Y      -3.1750      Z       1.9286
       Tot      14.6416
    Quadrupole Moments (Debye-Ang)
        XX    -157.4305     XY      19.4007     YY    -147.2508
        XZ       1.8670     YZ     -18.4202     ZZ    -126.2301

 Total job time:  82.95s(wall), 570.38s(cpu)
        *  Thank you very much for using Q-Chem.  Have a nice day.  *
