 Gaussian 16, Revision A.03,
 Gaussian 16:  ES64L-G16RevA.03 25-Dec-2016

 ----------------------------------------------------------------------
 #P UB3LYP/genecp nosym opt freq SCRF=(PCM,Solvent=n,n-DiMethylFormamid
 e)
 ----------------------------------------------------------------------

 --------
 Oxidized
 --------
 Symbolic Z-matrix:
 Charge =  0 Multiplicity = 1

 SCF Done:  E(UB3LYP) =  -796.744199393     A.U. after   16 cycles
 SCF Done:  E(UB3LYP) =  -796.744263170     A.U. after   11 cycles
 SCF Done:  E(UB3LYP) =  -796.744238905     A.U. after   11 cycles
 SCF Done:  E(UB3LYP) =  -796.744249604     A.U. after   11 cycles
 SCF Done:  E(UB3LYP) =  -796.744272009     A.U. after   11 cycles
 SCF Done:  E(UB3LYP) =  -796.744273579     A.U. after   10 cycles
 SCF Done:  E(UB3LYP) =  -796.744274067     A.U. after    9 cycles
 Optimization completed.
    -- Stationary point found.
 Normal termination of Gaussian 16 at Sat Feb 10 10:23:54 2024.

 ------------------------------------------------------------------
 #P Geom=AllCheck Guess=TCheck SCRF=Check GenChk UB3LYP/GenECP Freq
 ------------------------------------------------------------------

 Structure from the checkpoint file:  "006.chk"
 --------
 Oxidized
 --------
 Charge =  0 Multiplicity = 1

                          Input orientation:
 ---------------------------------------------------------------------
 Center     Atomic      Atomic             Coordinates (Angstroms)
 Number     Number       Type             X           Y           Z
 ---------------------------------------------------------------------
      1          6           0       -1.308640    1.949307    0.567015
      2          6           0       -2.653325    1.346060    0.260563
      3          6           0       -2.712843    0.107618   -0.260149
      4          6           0       -1.510747   -0.681713   -0.578059
      5          6           0       -0.183873   -0.078829   -0.308120
      6          6           0       -0.087734    1.147594    0.220492
      7          8           0       -1.216718    3.043890    1.089596
      8          8           0       -1.591860   -1.807044   -1.057278
      9          1           0        0.677564   -0.684424   -0.560611
     10         53           0        1.771737    2.035605    0.623377
     11          6           0       -3.860538    2.208480    0.559711
     12          6           0       -4.043238    3.266376   -0.552596
     13          6           0       -5.150701    1.407505    0.770259
     14          1           0       -3.656214   -0.377461   -0.480128
     15          1           0       -3.633993    2.746971    1.484773
     16          1           0       -4.278732    2.784352   -1.505723
     17          1           0       -3.146227    3.873899   -0.684512
     18          1           0       -4.869216    3.933728   -0.294004
     19          1           0       -5.479640    0.913476   -0.148464
     20          1           0       -5.951038    2.083276    1.080869
     21          1           0       -5.030905    0.646533    1.545546
 ---------------------------------------------------------------------

 SCF Done:  E(UB3LYP) =  -796.744274067     A.U. after    1 cycles

 Alpha  occ. eigenvalues --  -19.15416 -19.14602 -10.30244 -10.29213 -10.25679
 Alpha  occ. eigenvalues --  -10.22555 -10.22054 -10.20877 -10.19578 -10.16767
 Alpha  occ. eigenvalues --  -10.16623  -6.86133  -4.88610  -4.87431  -4.87330
 Alpha  occ. eigenvalues --   -1.93423  -1.93042  -1.92966  -1.91947  -1.91945
 Alpha  occ. eigenvalues --   -1.08710  -1.07368  -0.87872  -0.83461  -0.77905
 Alpha  occ. eigenvalues --   -0.72956  -0.70503  -0.69181  -0.65054  -0.60583
 Alpha  occ. eigenvalues --   -0.57862  -0.53744  -0.51681  -0.48400  -0.47046
 Alpha  occ. eigenvalues --   -0.46178  -0.45414  -0.44379  -0.43603  -0.42895
 Alpha  occ. eigenvalues --   -0.41153  -0.39424  -0.39077  -0.36714  -0.35750
 Alpha  occ. eigenvalues --   -0.34797  -0.33905  -0.30313  -0.29998  -0.28968
 Alpha  occ. eigenvalues --   -0.27584  -0.26850
 Alpha virt. eigenvalues --   -0.14276  -0.05031  -0.03879  -0.01236  -0.00615
 Alpha virt. eigenvalues --    0.00677   0.01256   0.01776   0.02924   0.03608
 Alpha virt. eigenvalues --    0.04343   0.04657   0.05392   0.05610   0.06779

  Beta  occ. eigenvalues --  -19.15416 -19.14602 -10.30244 -10.29213 -10.25679
  Beta  occ. eigenvalues --  -10.22555 -10.22054 -10.20877 -10.19578 -10.16767
  Beta  occ. eigenvalues --  -10.16623  -6.86133  -4.88610  -4.87431  -4.87330
  Beta  occ. eigenvalues --   -1.93423  -1.93042  -1.92966  -1.91947  -1.91945
  Beta  occ. eigenvalues --   -1.08710  -1.07368  -0.87872  -0.83461  -0.77905
  Beta  occ. eigenvalues --   -0.72956  -0.70503  -0.69181  -0.65054  -0.60583
  Beta  occ. eigenvalues --   -0.57862  -0.53744  -0.51681  -0.48400  -0.47046
  Beta  occ. eigenvalues --   -0.46178  -0.45414  -0.44379  -0.43603  -0.42895
  Beta  occ. eigenvalues --   -0.41153  -0.39424  -0.39077  -0.36714  -0.35750
  Beta  occ. eigenvalues --   -0.34797  -0.33905  -0.30313  -0.29998  -0.28968
  Beta  occ. eigenvalues --   -0.27584  -0.26850
  Beta virt. eigenvalues --   -0.14276  -0.05031  -0.03879  -0.01236  -0.00615
  Beta virt. eigenvalues --    0.00677   0.01256   0.01776   0.02924   0.03608
  Beta virt. eigenvalues --    0.04343   0.04657   0.05392   0.05610   0.06779

 Mulliken charges and spin densities:
               1          2
     1  C   -2.245039   0.000000
     2  C    1.563755  -0.000000
     3  C   -0.396194  -0.000000
     4  C   -0.348529  -0.000000
     5  C    0.063896   0.000000
     6  C    1.279115  -0.000000
     7  O   -0.175237  -0.000000
     8  O   -0.283385   0.000000
     9  H    0.226258   0.000000
    10  I   -0.037234   0.000000
    11  C    0.189911   0.000000
    12  C   -0.699644   0.000000
    13  C   -0.537414   0.000000
    14  H    0.237376   0.000000
    15  H    0.214184  -0.000000
    16  H    0.157073  -0.000000
    17  H    0.164397   0.000000
    18  H    0.155290  -0.000000
    19  H    0.147253   0.000000
    20  H    0.179987  -0.000000
    21  H    0.144181   0.000000
 Sum of Mulliken charges =  -0.00000   0.00000

 Dipole moment (field-independent basis, Debye):
    X=             -1.7388    Y=              0.9779    Z=              0.1713  Tot=              2.0023
 Quadrupole moment (field-independent basis, Debye-Ang):
   XX=            -75.6450   YY=           -105.5411   ZZ=            -94.7931
   XY=             -6.7977   XZ=             -1.7167   YZ=             -6.9036

  Exact polarizability: 224.263  23.104 250.646  12.828  47.508 149.841
 Approx polarizability: 229.094  32.932 328.482  16.392  75.964 181.409

                      1                      2                      3
                      A                      A                      A
 Frequencies --     36.6454                69.3528               114.0147
 Red. masses --      4.4869                 3.8506                 6.6004
 Frc consts  --      0.0036                 0.0109                 0.0506
 IR Inten    --      2.5601                 2.0221                10.3280

                      4                      5                      6
                      A                      A                      A
 Frequencies --    124.4345               145.5920               200.7574
 Red. masses --      6.1751                 4.2886                 2.8424
 Frc consts  --      0.0563                 0.0536                 0.0675
 IR Inten    --      1.8027                 0.5006                 0.0882

                      7                      8                      9
                      A                      A                      A
 Frequencies --    216.0204               232.4303               245.6035
 Red. masses --      8.8282                 1.9864                 1.9309
 Frc consts  --      0.2427                 0.0632                 0.0686
 IR Inten    --      0.2095                 0.4602                 0.5830

                     10                     11                     12
                      A                      A                      A
 Frequencies --    270.6796               299.4650               338.7928
 Red. masses --      1.0599                 3.7226                 4.4068
 Frc consts  --      0.0458                 0.1967                 0.2980
 IR Inten    --      0.0125                 3.1468                 1.9943

                     13                     14                     15
                      A                      A                      A
 Frequencies --    414.7753               441.1588               461.6245
 Red. masses --      2.7946                 7.1209                 7.9285
 Frc consts  --      0.2833                 0.8165                 0.9955
 IR Inten    --      7.5278                51.6668                 2.1582

                     16                     17                     18
                      A                      A                      A
 Frequencies --    498.3815               551.7644               636.5003
 Red. masses --      4.8926                 3.5934                 5.1343
 Frc consts  --      0.7160                 0.6446                 1.2256
 IR Inten    --      0.4674                 4.5236                 6.5320

                     19                     20                     21
                      A                      A                      A
 Frequencies --    680.3131               736.4880               786.6040
 Red. masses --      3.7958                 5.7815                 6.2008
 Frc consts  --      1.0351                 1.8477                 2.2605
 IR Inten    --      5.3963                77.3118                 0.8454

                     22                     23                     24
                      A                      A                      A
 Frequencies --    804.7846               860.1175               889.9110
 Red. masses --      8.4120                 3.1949                 1.3679
 Frc consts  --      3.2100                 1.3926                 0.6382
 IR Inten    --      7.2199                 3.5282                 1.9607

                     25                     26                     27
                      A                      A                      A
 Frequencies --    915.9166               932.6696               937.8437
 Red. masses --      2.7721                 1.4051                 1.2576
 Frc consts  --      1.3701                 0.7201                 0.6517
 IR Inten    --     60.1816                42.2003                30.8461

                     28                     29                     30
                      A                      A                      A
 Frequencies --    969.1583              1033.7930              1105.3006
 Red. masses --      1.4941                 3.3836                 1.6229
 Frc consts  --      0.8268                 2.1305                 1.1682
 IR Inten    --      1.5772               169.3727                 3.7451

                     31                     32                     33
                      A                      A                      A
 Frequencies --   1120.7614              1166.7310              1205.9831
 Red. masses --      2.2587                 2.3974                 2.0061
 Frc consts  --      1.6716                 1.9228                 1.7190
 IR Inten    --      5.8658                18.5046                43.2657

                     34                     35                     36
                      A                      A                      A
 Frequencies --   1281.6841              1300.4199              1315.3708
 Red. masses --      6.2356                 1.4539                 1.5859
 Frc consts  --      6.0352                 1.4487                 1.6167
 IR Inten    --    372.1225                27.7606                11.3368

                     37                     38                     39
                      A                      A                      A
 Frequencies --   1321.3583              1385.5639              1399.3155
 Red. masses --      1.4013                 1.4262                 1.3869
 Frc consts  --      1.4415                 1.6132                 1.6000
 IR Inten    --      9.3635                 2.8346                 7.6952

                     40                     41                     42
                      A                      A                      A
 Frequencies --   1415.1131              1480.9717              1485.5159
 Red. masses --      1.2220                 1.0438                 1.0535
 Frc consts  --      1.4418                 1.3488                 1.3697
 IR Inten    --      5.3811                 1.4594                 7.5518

                     43                     44                     45
                      A                      A                      A
 Frequencies --   1497.8692              1503.5727              1621.3804
 Red. masses --      1.0414                 1.0592                 8.6788
 Frc consts  --      1.3767                 1.4108                13.4425
 IR Inten    --     20.1712                15.2639               214.8486

                     46                     47                     48
                      A                      A                      A
 Frequencies --   1671.9658              1685.1517              1710.5740
 Red. masses --     10.5242                 8.3075                12.8373
 Frc consts  --     17.3338                13.8995                22.1313
 IR Inten    --    144.5554               871.3309               263.9160

                     49                     50                     51
                      A                      A                      A
 Frequencies --   3025.9074              3029.1116              3045.3963
 Red. masses --      1.0350                 1.0373                 1.0813
 Frc consts  --      5.5833                 5.6075                 5.9085
 IR Inten    --     36.9907                35.5161                 4.6031

                     52                     53                     54
                      A                      A                      A
 Frequencies --   3088.8667              3094.7662              3097.8018
 Red. masses --      1.1020                 1.1018                 1.1021
 Frc consts  --      6.1949                 6.2172                 6.2315
 IR Inten    --     11.0090                68.7969                52.4407

                     55                     56                     57
                      A                      A                      A
 Frequencies --   3108.5639              3193.9669              3201.0402
 Red. masses --      1.1016                 1.0915                 1.0939
 Frc consts  --      6.2718                 6.5607                 6.6039
 IR Inten    --     35.1877                 4.5598                 0.9323

 - Thermochemistry -
 -------------------
 Temperature   298.150 Kelvin.  Pressure   1.00000 Atm.
 Atom     1 has atomic number  6 and mass  12.00000

 Molecular mass:   275.96065 amu.
 Principal axes and moments of inertia in atomic units:
                           1         2         3
     Eigenvalues --  1763.763535606.511147100.42096
           X            0.98610  -0.15662  -0.05549
           Y            0.13109   0.93851  -0.31940
           Z            0.10210   0.30769   0.94599
 This molecule is an asymmetric top.
 Rotational symmetry number  1.
 Warning -- assumption of classical behavior for rotation
           may cause significant error
 Rotational temperatures (Kelvin)      0.04911     0.01545     0.01220
 Rotational constants (GHZ):           1.02323     0.32190     0.25417
 Zero-point vibrational energy     415137.8 (Joules/Mol)
                                   99.22031 (Kcal/Mol)
 Warning -- explicit consideration of  17 degrees of freedom as
           vibrations may cause significant error
 Vibrational temperatures:     52.72    99.78   164.04   179.03   209.47
          (Kelvin)            288.85   310.81   334.42   353.37   389.45
                              430.86   487.45   596.77   634.73   664.17
                              717.06   793.87   915.78   978.82  1059.64
                             1131.75  1157.91  1237.52  1280.38  1317.80
                             1341.90  1349.35  1394.40  1487.40  1590.28
                             1612.53  1678.67  1735.14  1844.06  1871.01
                             1892.53  1901.14  1993.52  2013.30  2036.03
                             2130.79  2137.33  2155.10  2163.31  2332.80
                             2405.59  2424.56  2461.13  4353.61  4358.22
                             4381.65  4444.19  4452.68  4457.05  4472.53
                             4595.41  4605.58

 Zero-point correction=                           0.158118 (Hartree/Particle)
 Thermal correction to Energy=                    0.170281
 Thermal correction to Enthalpy=                  0.171225
 Thermal correction to Gibbs Free Energy=         0.117863
 Sum of electronic and zero-point Energies=           -796.586156
 Sum of electronic and thermal Energies=              -796.573993
 Sum of electronic and thermal Enthalpies=            -796.573049
 Sum of electronic and thermal Free Energies=         -796.626411

                     E (Thermal)             CV                S
                      KCal/Mol        Cal/Mol-Kelvin    Cal/Mol-Kelvin
 Total                  106.853             43.897            112.310
 Electronic               0.000              0.000              0.000
 Translational            0.889              2.981             42.744
 Rotational               0.889              2.981             32.618
 Vibrational            105.075             37.936             36.948
 Vibration     1          0.594              1.982              5.433
 Vibration     2          0.598              1.969              4.172
 Vibration     3          0.607              1.938              3.199
 Vibration     4          0.610              1.929              3.030
 Vibration     5          0.617              1.907              2.729
 Vibration     6          0.638              1.839              2.126
 Vibration     7          0.645              1.817              1.992
 Vibration     8          0.653              1.791              1.860
 Vibration     9          0.660              1.770              1.762
 Vibration    10          0.674              1.727              1.592
 Vibration    11          0.692              1.675              1.420
 Vibration    12          0.719              1.598              1.218
 Vibration    13          0.778              1.438              0.910
 Vibration    14          0.801              1.380              0.823
 Vibration    15          0.819              1.335              0.761
 Vibration    16          0.854              1.254              0.662
 Vibration    17          0.907              1.136              0.541

                           ! Non-Optimized Parameters !
 Normal termination of Gaussian 16 at Sat Feb 10 10:45:01 2024.
