 Gaussian 16, Revision A.03,
 Gaussian 16:  ES64L-G16RevA.03 25-Dec-2016

 --------------------------------------
 #P UB3LYP/6-311++G(d,p) nosym opt freq
 --------------------------------------

 -------
 Reduced
 -------
 Symbolic Z-matrix:
 Charge = -2 Multiplicity = 1

 SCF Done:  E(UB3LYP) =  -1010.86016301     A.U. after   39 cycles
 SCF Done:  E(UB3LYP) =  -1010.87919120     A.U. after   31 cycles
 SCF Done:  E(UB3LYP) =  -1010.88206678     A.U. after   33 cycles
 SCF Done:  E(UB3LYP) =  -1010.88253210     A.U. after   29 cycles
 SCF Done:  E(UB3LYP) =  -1010.88253613     A.U. after   31 cycles
 SCF Done:  E(UB3LYP) =  -1010.88286052     A.U. after   28 cycles
 SCF Done:  E(UB3LYP) =  -1010.88302213     A.U. after   27 cycles
 SCF Done:  E(UB3LYP) =  -1010.88309115     A.U. after   27 cycles
 SCF Done:  E(UB3LYP) =  -1010.88312726     A.U. after   26 cycles
 SCF Done:  E(UB3LYP) =  -1010.88313699     A.U. after   25 cycles
 SCF Done:  E(UB3LYP) =  -1010.88313821     A.U. after   22 cycles
 SCF Done:  E(UB3LYP) =  -1010.88313840     A.U. after   23 cycles
 Optimization completed.
    -- Stationary point found.
 Normal termination of Gaussian 16 at Wed Dec 20 02:51:17 2023.

 ----------------------------------------------------------------------
 #P Geom=AllCheck Guess=TCheck SCRF=Check GenChk UB3LYP/6-311++G(d,p) F
 req
 ----------------------------------------------------------------------

 Structure from the checkpoint file:  "102-an.chk"
 -------
 Reduced
 -------
 Charge = -2 Multiplicity = 1

                          Input orientation:
 ---------------------------------------------------------------------
 Center     Atomic      Atomic             Coordinates (Angstroms)
 Number     Number       Type             X           Y           Z
 ---------------------------------------------------------------------
      1          6           0        1.916659    3.581188    3.758593
      2          6           0        2.971799    3.538185    2.772924
      3          6           0        3.445593    2.376100    2.192480
      4          6           0        2.928410    1.064200    2.498181
      5          6           0        1.387432    2.266905    4.054610
      6          6           0        1.868588    1.086773    3.456673
      7          8           0        1.505615    4.672086    4.284400
      8          8           0        3.382253   -0.012672    1.949466
      9         16           0        0.181850    2.087831    5.368195
     10          6           0       -1.372968    2.700134    4.746308
     11          6           0       -2.519151    2.523274    5.540271
     12          6           0       -1.503933    3.358539    3.515261
     13          6           0       -2.752167    3.813576    3.096247
     14          6           0       -3.762723    2.980298    5.113464
     15          6           0       -3.891700    3.629902    3.883364
     16          1           0        3.406239    4.501322    2.506493
     17          1           0        4.253294    2.422204    1.461421
     18          1           0        1.420779    0.134419    3.726903
     19          1           0       -2.429214    2.015414    6.497384
     20          1           0       -0.617851    3.514681    2.912508
     21          1           0       -2.834393    4.326844    2.141005
     22          1           0       -4.640352    2.821729    5.738913
     23          1           0       -4.863706    3.984081    3.548428
 ---------------------------------------------------------------------

 SCF Done:  E(UB3LYP) =  -1010.88313840     A.U. after    3 cycles

 Alpha  occ. eigenvalues --  -88.61591 -18.79006 -18.78254  -9.99172  -9.97744
 Alpha  occ. eigenvalues --   -9.97460  -9.97177  -9.97169  -9.96072  -9.95263
 Alpha  occ. eigenvalues --   -9.94290  -9.93253  -9.90538  -9.90457  -9.90031
 Alpha  occ. eigenvalues --   -7.70138  -5.66532  -5.66109  -5.65597  -0.70771
 Alpha  occ. eigenvalues --   -0.69339  -0.65528  -0.57814  -0.55117  -0.54391
 Alpha  occ. eigenvalues --   -0.50487  -0.45255  -0.41621  -0.40273  -0.38114
 Alpha  occ. eigenvalues --   -0.33153  -0.31602  -0.29094  -0.25110  -0.24829
 Alpha  occ. eigenvalues --   -0.22039  -0.20825  -0.20277  -0.19821  -0.17251
 Alpha  occ. eigenvalues --   -0.16992  -0.14995  -0.14068  -0.12961  -0.12279
 Alpha  occ. eigenvalues --   -0.10893  -0.09816  -0.08540  -0.07804  -0.07278
 Alpha  occ. eigenvalues --   -0.05386   0.00027   0.00728   0.01702   0.03635
 Alpha  occ. eigenvalues --    0.04353   0.11789
 Alpha virt. eigenvalues --    0.13136   0.14918   0.16975   0.18221   0.18563
 Alpha virt. eigenvalues --    0.18642   0.19176   0.20204   0.20640   0.22739
 Alpha virt. eigenvalues --    0.23189   0.23367   0.23951   0.25111   0.25252

  Beta  occ. eigenvalues --  -88.61591 -18.79006 -18.78254  -9.99172  -9.97744
  Beta  occ. eigenvalues --   -9.97460  -9.97177  -9.97169  -9.96072  -9.95263
  Beta  occ. eigenvalues --   -9.94290  -9.93253  -9.90538  -9.90457  -9.90031
  Beta  occ. eigenvalues --   -7.70138  -5.66532  -5.66109  -5.65597  -0.70771
  Beta  occ. eigenvalues --   -0.69339  -0.65528  -0.57814  -0.55117  -0.54391
  Beta  occ. eigenvalues --   -0.50487  -0.45255  -0.41621  -0.40273  -0.38114
  Beta  occ. eigenvalues --   -0.33153  -0.31602  -0.29094  -0.25110  -0.24829
  Beta  occ. eigenvalues --   -0.22039  -0.20825  -0.20277  -0.19821  -0.17251
  Beta  occ. eigenvalues --   -0.16992  -0.14995  -0.14068  -0.12961  -0.12279
  Beta  occ. eigenvalues --   -0.10893  -0.09816  -0.08540  -0.07804  -0.07278
  Beta  occ. eigenvalues --   -0.05386   0.00027   0.00728   0.01702   0.03635
  Beta  occ. eigenvalues --    0.04353   0.11789
  Beta virt. eigenvalues --    0.13136   0.14918   0.16975   0.18221   0.18563
  Beta virt. eigenvalues --    0.18642   0.19176   0.20204   0.20640   0.22739
  Beta virt. eigenvalues --    0.23189   0.23367   0.23951   0.25111   0.25252

 Mulliken charges and spin densities:
               1          2
     1  C   -0.820058  -0.000000
     2  C   -0.064395  -0.000000
     3  C    0.237398   0.000000
     4  C   -1.061751   0.000000
     5  C    1.679289   0.000000
     6  C   -0.217908   0.000000
     7  O   -0.461586   0.000000
     8  O   -0.547485   0.000000
     9  S   -0.415200   0.000000
    10  C    0.539120  -0.000000
    11  C   -1.041486  -0.000000
    12  C    0.016100  -0.000000
    13  C   -0.475055  -0.000000
    14  C    0.525335   0.000000
    15  C    0.709024   0.000000
    16  H    0.100817  -0.000000
    17  H    0.080209  -0.000000
    18  H    0.136514   0.000000
    19  H    0.109659   0.000000
    20  H    0.219564   0.000000
    21  H    0.097926  -0.000000
    22  H   -0.722255  -0.000000
    23  H   -0.623776  -0.000000
 Sum of Mulliken charges =  -2.00000   0.00000

 Dipole moment (field-independent basis, Debye):
    X=             -5.8700    Y=            -23.3886    Z=            -35.2161  Tot=             42.6808
 Quadrupole moment (field-independent basis, Debye-Ang):
   XX=           -217.7246   YY=           -206.6888   ZZ=           -258.1582
   XY=             13.6129   XZ=              7.8379   YZ=           -105.3851

  Exact polarizability:1860.449-316.646 468.279-258.714-336.432 951.520
 Approx polarizability:**************** 703.184******** 138.2811059.234

                      1                      2                      3
                      A                      A                      A
 Frequencies --     22.1442                36.9026                64.4655
 Red. masses --      6.6811                 4.7664                 5.2905
 Frc consts  --      0.0019                 0.0038                 0.0130
 IR Inten    --      2.3843                 3.3603                 0.6287

                      4                      5                      6
                      A                      A                      A
 Frequencies --    120.7592               167.6179               194.6126
 Red. masses --      8.3736                 4.9754                 6.2534
 Frc consts  --      0.0719                 0.0824                 0.1395
 IR Inten    --      4.6550                 8.8236                 1.8781

                      7                      8                      9
                      A                      A                      A
 Frequencies --    226.2705               238.7758               330.8369
 Red. masses --     11.2159                 6.6851                 7.4421
 Frc consts  --      0.3383                 0.2246                 0.4799
 IR Inten    --      1.1913                 0.7055                 1.8162

                     10                     11                     12
                      A                      A                      A
 Frequencies --    369.8731               406.9164               411.3825
 Red. masses --      9.3303                 5.7499                 3.1870
 Frc consts  --      0.7521                 0.5609                 0.3178
 IR Inten    --      4.9141                45.2206                 9.0944

                     13                     14                     15
                      A                      A                      A
 Frequencies --    430.4969               463.5388               473.6507
 Red. masses --     10.4011                 5.4472                 3.3260
 Frc consts  --      1.1357                 0.6896                 0.4396
 IR Inten    --    382.1988               361.0286                39.3154

                     16                     17                     18
                      A                      A                      A
 Frequencies --    481.2125               560.2628               590.0054
 Red. masses --      5.1735                 4.5735                 2.7176
 Frc consts  --      0.7058                 0.8458                 0.5574
 IR Inten    --    208.2171                 8.0231                 1.5028

                     19                     20                     21
                      A                      A                      A
 Frequencies --    629.3561               677.0944               695.1020
 Red. masses --      6.4279                 7.7652                 2.9297
 Frc consts  --      1.5001                 2.0975                 0.8340
 IR Inten    --     16.4242                 6.1524                 5.7538

                     22                     23                     24
                      A                      A                      A
 Frequencies --    697.5132               718.6783               768.4461
 Red. masses --      6.6498                 2.7443                 1.4384
 Frc consts  --      1.9062                 0.8351                 0.5005
 IR Inten    --     41.3108                 2.5435                23.6635

                     25                     26                     27
                      A                      A                      A
 Frequencies --    799.0517               809.3820               835.8963
 Red. masses --      1.8154                 6.0139                 1.9516
 Frc consts  --      0.6829                 2.3212                 0.8034
 IR Inten    --      6.4202                48.6906                28.4752

                     28                     29                     30
                      A                      A                      A
 Frequencies --    840.6204               875.9261               894.4080
 Red. masses --      1.2886                 6.7326                 1.3425
 Frc consts  --      0.5365                 3.0435                 0.6328
 IR Inten    --     24.0287                32.7594                96.0394

                     31                     32                     33
                      A                      A                      A
 Frequencies --    908.7148               964.7805               968.8271
 Red. masses --      1.2970                 1.3149                 1.2647
 Frc consts  --      0.6310                 0.7211                 0.6994
 IR Inten    --      0.5428                25.7064                63.0690

                     34                     35                     36
                      A                      A                      A
 Frequencies --    991.5587              1004.3171              1038.4512
 Red. masses --      2.8105                 6.0659                 2.7437
 Frc consts  --      1.6281                 3.6048                 1.7432
 IR Inten    --     55.4983                41.4153                48.1007

                     37                     38                     39
                      A                      A                      A
 Frequencies --   1083.4707              1090.0412              1095.9134
 Red. masses --      2.5336                 1.7088                 1.6610
 Frc consts  --      1.7524                 1.1962                 1.1754
 IR Inten    --     45.3768                81.0793               290.6924

                     40                     41                     42
                      A                      A                      A
 Frequencies --   1164.5658              1181.5099              1190.4243
 Red. masses --      1.0905                 2.5809                 1.1672
 Frc consts  --      0.8713                 2.1227                 0.9745
 IR Inten    --     48.0005               166.0292               136.4125

                     43                     44                     45
                      A                      A                      A
 Frequencies --   1218.9429              1308.7802              1314.4031
 Red. masses --      1.6436                 2.3509                 2.8117
 Frc consts  --      1.4388                 2.3726                 2.8621
 IR Inten    --    464.9892               336.9021                55.0336

                     46                     47                     48
                      A                      A                      A
 Frequencies --   1347.5431              1368.1756              1412.6458
 Red. masses --      1.8342                 6.8426                 6.3450
 Frc consts  --      1.9624                 7.5466                 7.4602
 IR Inten    --     30.0758               518.5975              1181.4176

                     49                     50                     51
                      A                      A                      A
 Frequencies --   1431.8867              1461.3715              1485.5955
 Red. masses --      4.7963                 2.2178                 4.4060
 Frc consts  --      5.7939                 2.7905                 5.7292
 IR Inten    --    281.6265                10.7481               544.3288

                     52                     53                     54
                      A                      A                      A
 Frequencies --   1496.6215              1582.3596              1593.9681
 Red. masses --      2.0064                 6.1239                 5.3807
 Frc consts  --      2.6479                 9.0341                 8.0547
 IR Inten    --     97.2824              5006.4421                99.8983

                     55                     56                     57
                      A                      A                      A
 Frequencies --   1610.1671              3082.8238              3100.1423
 Red. masses --      5.3119                 1.0836                 1.0852
 Frc consts  --      8.1142                 6.0676                 6.1450
 IR Inten    --     71.3238                93.0517               446.7840

                     58                     59                     60
                      A                      A                      A
 Frequencies --   3111.0406              3120.5163              3131.5438
 Red. masses --      1.0924                 1.0871                 1.0907
 Frc consts  --      6.2295                 6.2370                 6.3021
 IR Inten    --    540.8989                90.5142               249.9897

                     61                     62                     63
                      A                      A                      A
 Frequencies --   3137.8509              3139.4392              3191.0258
 Red. masses --      1.0951                 1.0885                 1.0916
 Frc consts  --      6.3529                 6.3212                 6.5488
 IR Inten    --    262.7768                73.3175                14.9827

 - Thermochemistry -
 -------------------
 Temperature   298.150 Kelvin.  Pressure   1.00000 Atm.
 Atom     1 has atomic number  6 and mass  12.00000

 Molecular mass:   216.02450 amu.
 Principal axes and moments of inertia in atomic units:
                           1         2         3
     Eigenvalues --  1566.411176024.267446290.49923
           X            0.92779   0.17993   0.32686
           Y           -0.22949   0.96592   0.11969
           Z           -0.29418  -0.18606   0.93746
 This molecule is an asymmetric top.
 Rotational symmetry number  1.
 Warning -- assumption of classical behavior for rotation
           may cause significant error
 Rotational temperatures (Kelvin)      0.05529     0.01438     0.01377
 Rotational constants (GHZ):           1.15215     0.29958     0.28690
 Zero-point vibrational energy     425635.0 (Joules/Mol)
                                  101.72921 (Kcal/Mol)
 Warning -- explicit consideration of  18 degrees of freedom as
           vibrations may cause significant error
 Vibrational temperatures:     31.86    53.09    92.75   173.75   241.16
          (Kelvin)            280.00   325.55   343.55   476.00   532.16
                              585.46   591.89   619.39   666.93   681.48
                              692.36   806.09   848.89   905.50   974.19
                             1000.10  1003.57  1034.02  1105.62  1149.66
                             1164.52  1202.67  1209.47  1260.26  1286.85
                             1307.44  1388.10  1393.93  1426.63  1444.99
                             1494.10  1558.87  1568.33  1576.77  1675.55
                             1699.93  1712.76  1753.79  1883.04  1891.13
                             1938.81  1968.50  2032.48  2060.17  2102.59
                             2137.44  2153.30  2276.66  2293.36  2316.67
                             4435.50  4460.41  4476.09  4489.73  4505.59
                             4514.67  4516.95  4591.17

 Zero-point correction=                           0.162116 (Hartree/Particle)
 Thermal correction to Energy=                    0.174662
 Thermal correction to Enthalpy=                  0.175607
 Thermal correction to Gibbs Free Energy=         0.121236
 Sum of electronic and zero-point Energies=          -1010.721023
 Sum of electronic and thermal Energies=             -1010.708476
 Sum of electronic and thermal Enthalpies=           -1010.707532
 Sum of electronic and thermal Free Energies=        -1010.761902

                     E (Thermal)             CV                S
                      KCal/Mol        Cal/Mol-Kelvin    Cal/Mol-Kelvin
 Total                  109.602             48.480            114.432
 Electronic               0.000              0.000              0.000
 Translational            0.889              2.981             42.014
 Rotational               0.889              2.981             32.451
 Vibrational            107.825             42.518             39.967
 Vibration     1          0.593              1.985              6.432
 Vibration     2          0.594              1.982              5.419
 Vibration     3          0.597              1.971              4.316
 Vibration     4          0.609              1.932              3.088
 Vibration     5          0.624              1.882              2.462
 Vibration     6          0.635              1.847              2.183
 Vibration     7          0.650              1.801              1.908
 Vibration     8          0.657              1.781              1.812
 Vibration     9          0.713              1.614              1.256
 Vibration    10          0.742              1.534              1.080
 Vibration    11          0.772              1.455              0.938
 Vibration    12          0.775              1.446              0.922
 Vibration    13          0.792              1.404              0.857
 Vibration    14          0.821              1.331              0.756
 Vibration    15          0.830              1.309              0.727
 Vibration    16          0.838              1.292              0.707
 Vibration    17          0.916              1.117              0.523
 Vibration    18          0.947              1.053              0.467

                           ! Non-Optimized Parameters !
 Normal termination of Gaussian 16 at Wed Dec 20 03:27:23 2023.
