 Gaussian 16, Revision A.03,
 Gaussian 16:  ES64L-G16RevA.03 25-Dec-2016

 ----------------------------------------------------------------------
 #P UB3LYP/6-311++G(d,p) nosym opt freq SCRF=(PCM,Solvent=n,n-DiMethylF
 ormamide)
 ----------------------------------------------------------------------

 -------
 Reduced
 -------
 Symbolic Z-matrix:
 Charge = -2 Multiplicity = 1

 SCF Done:  E(UB3LYP) =  -5643.51184484     A.U. after   17 cycles
 SCF Done:  E(UB3LYP) =  -5643.51249813     A.U. after   14 cycles
 SCF Done:  E(UB3LYP) =  -5643.51266350     A.U. after   13 cycles
 SCF Done:  E(UB3LYP) =  -5643.51270050     A.U. after   13 cycles
 SCF Done:  E(UB3LYP) =  -5643.51271634     A.U. after   12 cycles
 SCF Done:  E(UB3LYP) =  -5643.51272333     A.U. after   12 cycles
 SCF Done:  E(UB3LYP) =  -5643.51272732     A.U. after   11 cycles
 SCF Done:  E(UB3LYP) =  -5643.51272829     A.U. after   10 cycles
 SCF Done:  E(UB3LYP) =  -5643.51272855     A.U. after    9 cycles
 SCF Done:  E(UB3LYP) =  -5643.51272866     A.U. after    8 cycles
 SCF Done:  E(UB3LYP) =  -5643.51272873     A.U. after    8 cycles
 SCF Done:  E(UB3LYP) =  -5643.51272875     A.U. after    8 cycles
 Optimization completed.
    -- Stationary point found.
 Normal termination of Gaussian 16 at Sat Feb 10 12:53:35 2024.

 ----------------------------------------------------------------------
 #P Geom=AllCheck Guess=TCheck SCRF=Check GenChk UB3LYP/6-311++G(d,p) F
 req
 ----------------------------------------------------------------------

 Structure from the checkpoint file:  "109-an.chk"
 -------
 Reduced
 -------
 Charge = -2 Multiplicity = 1

                          Input orientation:
 ---------------------------------------------------------------------
 Center     Atomic      Atomic             Coordinates (Angstroms)
 Number     Number       Type             X           Y           Z
 ---------------------------------------------------------------------
      1          6           0       -1.863892   -3.673332    1.322049
      2          6           0       -0.501749   -3.882875    1.072668
      3          6           0        0.345160   -2.856945    0.580319
      4          6           0       -0.111606   -1.540425    0.297813
      5          6           0       -1.517965   -1.316763    0.559010
      6          6           0       -2.311664   -2.339456    1.039332
      7          8           0       -2.756761   -4.526900    1.771605
      8          8           0        0.640563   -0.587351   -0.156873
      9          8           0       -3.656874   -2.167790    1.299173
     10          6           0       -2.083136    0.055501    0.296053
     11         35           0        0.161519   -5.669357    1.434753
     12         35           0        2.231711   -3.188908    0.263550
     13          1           0       -1.570130    0.819233    0.891871
     14          1           0       -3.147578    0.095385    0.531456
     15          1           0       -1.951322    0.348023   -0.751730
     16          1           0       -3.894530   -3.073211    1.614702
 ---------------------------------------------------------------------

 SCF Done:  E(UB3LYP) =  -5643.51272875     A.U. after    1 cycles

 Alpha  occ. eigenvalues -- -482.80899-482.80482 -62.46177 -62.45757 -56.28189
 Alpha  occ. eigenvalues --  -56.27846 -56.27820 -56.27766 -56.27428 -56.27401
 Alpha  occ. eigenvalues --  -19.11635 -19.03489 -19.02160 -10.18943 -10.18940
 Alpha  occ. eigenvalues --  -10.18553 -10.18258 -10.18010 -10.14313 -10.13875
 Alpha  occ. eigenvalues --   -8.67139  -8.66717  -6.50199  -6.49766  -6.49057
 Alpha  occ. eigenvalues --   -6.48980  -6.48641  -6.48564  -2.61307  -2.60992
 Alpha  occ. eigenvalues --   -2.60934  -2.60877  -2.60566  -2.60508  -2.60026
 Alpha  occ. eigenvalues --   -2.60026  -2.59612  -2.59612  -1.03028  -0.93732
 Alpha  occ. eigenvalues --   -0.93443  -0.82037  -0.77248  -0.76564  -0.71464
 Alpha  occ. eigenvalues --   -0.65548  -0.63771  -0.55325  -0.53937  -0.49349
 Alpha  occ. eigenvalues --   -0.45604  -0.41562  -0.41021  -0.38972  -0.37690
 Alpha  occ. eigenvalues --   -0.37629  -0.37160  -0.36449  -0.34851  -0.33305
 Alpha  occ. eigenvalues --   -0.32038  -0.31860  -0.28947  -0.28560  -0.27843
 Alpha  occ. eigenvalues --   -0.25808  -0.22751  -0.22261  -0.20169  -0.19315
 Alpha  occ. eigenvalues --   -0.13029
 Alpha virt. eigenvalues --   -0.01860   0.00372   0.01570   0.02054   0.02474
 Alpha virt. eigenvalues --    0.02533   0.03892   0.04444   0.05250   0.05279
 Alpha virt. eigenvalues --    0.05486   0.06416   0.06545   0.06952   0.07992

  Beta  occ. eigenvalues -- -482.80899-482.80482 -62.46177 -62.45757 -56.28189
  Beta  occ. eigenvalues --  -56.27846 -56.27820 -56.27766 -56.27428 -56.27401
  Beta  occ. eigenvalues --  -19.11635 -19.03489 -19.02160 -10.18943 -10.18940
  Beta  occ. eigenvalues --  -10.18553 -10.18258 -10.18010 -10.14313 -10.13875
  Beta  occ. eigenvalues --   -8.67139  -8.66717  -6.50199  -6.49766  -6.49057
  Beta  occ. eigenvalues --   -6.48980  -6.48641  -6.48564  -2.61307  -2.60992
  Beta  occ. eigenvalues --   -2.60934  -2.60877  -2.60566  -2.60508  -2.60026
  Beta  occ. eigenvalues --   -2.60026  -2.59612  -2.59612  -1.03028  -0.93732
  Beta  occ. eigenvalues --   -0.93443  -0.82037  -0.77248  -0.76564  -0.71464
  Beta  occ. eigenvalues --   -0.65548  -0.63771  -0.55325  -0.53937  -0.49349
  Beta  occ. eigenvalues --   -0.45604  -0.41562  -0.41021  -0.38972  -0.37690
  Beta  occ. eigenvalues --   -0.37629  -0.37160  -0.36449  -0.34851  -0.33305
  Beta  occ. eigenvalues --   -0.32038  -0.31860  -0.28947  -0.28560  -0.27843
  Beta  occ. eigenvalues --   -0.25808  -0.22751  -0.22261  -0.20169  -0.19315
  Beta  occ. eigenvalues --   -0.13029
  Beta virt. eigenvalues --   -0.01860   0.00372   0.01570   0.02054   0.02474
  Beta virt. eigenvalues --    0.02533   0.03892   0.04444   0.05250   0.05279
  Beta virt. eigenvalues --    0.05486   0.06416   0.06545   0.06952   0.07992

 Mulliken charges and spin densities:
               1          2
     1  C   -0.764958  -0.000000
     2  C    0.626654   0.000000
     3  C   -0.136907  -0.000000
     4  C   -0.651791  -0.000000
     5  C    1.783789   0.000000
     6  C   -1.319902  -0.000000
     7  O   -0.676725   0.000000
     8  O   -0.638065   0.000000
     9  O   -0.342888   0.000000
    10  C   -0.194190   0.000000
    11  Br  -0.200173   0.000000
    12  Br  -0.225830  -0.000000
    13  H    0.145776  -0.000000
    14  H    0.168742   0.000000
    15  H    0.145910  -0.000000
    16  H    0.280558   0.000000
 Sum of Mulliken charges =  -2.00000  -0.00000

 Dipole moment (field-independent basis, Debye):
    X=              6.1807    Y=             26.9110    Z=             -7.5621  Tot=             28.6284
 Quadrupole moment (field-independent basis, Debye-Ang):
   XX=           -142.8812   YY=           -215.8219   ZZ=           -116.2190
   XY=            -31.8637   XZ=             17.2350   YZ=             35.3509

  Exact polarizability: 259.007  -9.894 255.159 -26.826 -34.572 144.344
 Approx polarizability: 285.932  -3.363 274.091 -32.041 -37.997 159.162

                      1                      2                      3
                      A                      A                      A
 Frequencies --     52.1189                93.0687               128.1992
 Red. masses --     13.8363                 3.0631                54.2942
 Frc consts  --      0.0221                 0.0156                 0.5257
 IR Inten    --      0.0213                17.6842                 2.5314

                      4                      5                      6
                      A                      A                      A
 Frequencies --    141.6016               169.1271               180.1342
 Red. masses --      2.2782                 4.5556                13.7516
 Frc consts  --      0.0269                 0.0768                 0.2629
 IR Inten    --      1.1341                 0.5035                 3.6352

                      7                      8                      9
                      A                      A                      A
 Frequencies --    186.3966               251.6741               262.2399
 Red. masses --      2.4333                12.4217                14.0962
 Frc consts  --      0.0498                 0.4636                 0.5711
 IR Inten    --      3.5369                 9.3575                 0.9095

                     10                     11                     12
                      A                      A                      A
 Frequencies --    293.9196               296.6616               322.7278
 Red. masses --     10.9852                 3.4117                 6.1494
 Frc consts  --      0.5591                 0.1769                 0.3774
 IR Inten    --      0.5259                 9.9615                 0.0618

                     13                     14                     15
                      A                      A                      A
 Frequencies --    335.4203               396.9402               498.7131
 Red. masses --      6.0339                 8.9746                13.3149
 Frc consts  --      0.4000                 0.8331                 1.9511
 IR Inten    --     29.5965                30.8106                 5.4549

                     16                     17                     18
                      A                      A                      A
 Frequencies --    521.7549               536.0061               700.3760
 Red. masses --      6.8537                 7.8537                 5.6218
 Frc consts  --      1.0993                 1.3294                 1.6248
 IR Inten    --      0.1041                12.0861                 0.0149

                     19                     20                     21
                      A                      A                      A
 Frequencies --    708.2605               713.3453               722.7059
 Red. masses --      8.2065                 5.5639                 1.2266
 Frc consts  --      2.4254                 1.6681                 0.3775
 IR Inten    --      9.3514                18.9077               148.2367

                     22                     23                     24
                      A                      A                      A
 Frequencies --    762.0953               791.5509               948.3463
 Red. masses --      8.3567                10.7057                 2.4845
 Frc consts  --      2.8596                 3.9520                 1.3165
 IR Inten    --     97.9001               274.7579                59.6814

                     25                     26                     27
                      A                      A                      A
 Frequencies --   1038.4364              1044.1528              1114.3622
 Red. masses --      3.6282                 1.4444                 4.6949
 Frc consts  --      2.3051                 0.9278                 3.4350
 IR Inten    --    199.2406                 0.1263               141.1099

                     28                     29                     30
                      A                      A                      A
 Frequencies --   1174.3297              1224.2247              1310.9728
 Red. masses --      8.0836                 7.4884                 9.8003
 Frc consts  --      6.5681                 6.6125                 9.9238
 IR Inten    --    482.9036                53.7632                42.0592

                     31                     32                     33
                      A                      A                      A
 Frequencies --   1349.6846              1386.7677              1402.2173
 Red. masses --      1.7485                 1.6084                 4.2980
 Frc consts  --      1.8766                 1.8224                 4.9791
 IR Inten    --    195.0475               319.4733              1387.2068

                     34                     35                     36
                      A                      A                      A
 Frequencies --   1441.5601              1466.9736              1483.0577
 Red. masses --      6.2925                 1.0476                 1.1211
 Frc consts  --      7.7044                 1.3283                 1.4529
 IR Inten    --    195.4161                 8.0393                83.7336

                     37                     38                     39
                      A                      A                      A
 Frequencies --   1514.2131              1639.5423              3005.6003
 Red. masses --      4.3085                 5.9828                 1.0395
 Frc consts  --      5.8203                 9.4755                 5.5326
 IR Inten    --    109.6747               111.8842               127.9644

                     40                     41                     42
                      A                      A                      A
 Frequencies --   3037.8686              3104.7356              3380.2862
 Red. masses --      1.0992                 1.0965                 1.0639
 Frc consts  --      5.9769                 6.2272                 7.1627
 IR Inten    --     64.2700                33.1589               347.4902

 - Thermochemistry -
 -------------------
 Temperature   298.150 Kelvin.  Pressure   1.00000 Atm.
 Atom     1 has atomic number  6 and mass  12.00000

 Molecular mass:   293.85272 amu.
 Principal axes and moments of inertia in atomic units:
                           1         2         3
     Eigenvalues --  3080.861133869.953806939.66366
           X            0.78411   0.58338   0.21177
           Y           -0.62062   0.73576   0.27109
           Z            0.00234  -0.34399   0.93897
 This molecule is an asymmetric top.
 Rotational symmetry number  1.
 Warning -- assumption of classical behavior for rotation
           may cause significant error
 Rotational temperatures (Kelvin)      0.02811     0.02238     0.01248
 Rotational constants (GHZ):           0.58579     0.46635     0.26006
 Zero-point vibrational energy     246026.2 (Joules/Mol)
                                   58.80167 (Kcal/Mol)
 Warning -- explicit consideration of  17 degrees of freedom as
           vibrations may cause significant error
 Vibrational temperatures:     74.99   133.91   184.45   203.73   243.34
          (Kelvin)            259.17   268.18   362.10   377.30   422.88
                              426.83   464.33   482.59   571.11   717.54
                              750.69   771.19  1007.68  1019.03  1026.34
                             1039.81  1096.49  1138.87  1364.46  1494.08
                             1502.30  1603.32  1689.60  1761.39  1886.20
                             1941.90  1995.25  2017.48  2074.08  2110.65
                             2133.79  2178.61  2358.94  4324.39  4370.82
                             4467.02  4863.48

 Zero-point correction=                           0.093706 (Hartree/Particle)
 Thermal correction to Energy=                    0.105593
 Thermal correction to Enthalpy=                  0.106537
 Thermal correction to Gibbs Free Energy=         0.053979
 Sum of electronic and zero-point Energies=          -5643.419022
 Sum of electronic and thermal Energies=             -5643.407136
 Sum of electronic and thermal Enthalpies=           -5643.406192
 Sum of electronic and thermal Free Energies=        -5643.458750

                     E (Thermal)             CV                S
                      KCal/Mol        Cal/Mol-Kelvin    Cal/Mol-Kelvin
 Total                   66.260             41.792            110.618
 Electronic               0.000              0.000              0.000
 Translational            0.889              2.981             42.931
 Rotational               0.889              2.981             32.781
 Vibrational             64.483             35.831             34.906
 Vibration     1          0.596              1.977              4.735
 Vibration     2          0.602              1.954              3.595
 Vibration     3          0.611              1.925              2.973
 Vibration     4          0.615              1.912              2.782
 Vibration     5          0.625              1.880              2.445
 Vibration     6          0.629              1.867              2.327
 Vibration     7          0.632              1.858              2.263
 Vibration     8          0.664              1.760              1.719
 Vibration     9          0.670              1.742              1.647
 Vibration    10          0.689              1.685              1.451
 Vibration    11          0.690              1.680              1.436
 Vibration    12          0.708              1.630              1.296
 Vibration    13          0.717              1.605              1.234
 Vibration    14          0.763              1.477              0.974
 Vibration    15          0.854              1.253              0.661
 Vibration    16          0.877              1.202              0.606
 Vibration    17          0.891              1.170              0.574

 Optimization completed.
    -- Stationary point found.
 Normal termination of Gaussian 16 at Sat Feb 10 13:02:20 2024.
