 Gaussian 16, Revision A.03,
 Gaussian 16:  ES64L-G16RevA.03 25-Dec-2016

 ----------------------------------------------------------------
 #P UB3LYP/6-311++G(d,p) SCRF=(PCM,Solvent=n,n-DiMethylFormamide)
 ----------------------------------------------------------------

 ------------------
 Quinone PCM in DMF
 ------------------
 Symbolic Z-matrix:
 Charge =  0 Multiplicity = 1

                         Standard orientation:
 ---------------------------------------------------------------------
 Center     Atomic      Atomic             Coordinates (Angstroms)
 Number     Number       Type             X           Y           Z
 ---------------------------------------------------------------------
      1          6           0       -3.239210    0.922794    0.088666
      2          6           0       -4.226522   -0.057126    0.152916
      3          6           0       -3.873336   -1.406968    0.134332
      4          6           0       -1.896395    0.550382    0.008163
      5          6           0       -1.541102   -0.805629   -0.009211
      6          6           0       -2.533540   -1.782407    0.051152
      7          6           0       -0.843067    1.589423   -0.062405
      8          6           0        0.600252    1.164917   -0.160894
      9          6           0        0.924693   -0.172810   -0.110030
     10          6           0       -0.109079   -1.209138   -0.095074
     11          8           0       -1.102884    2.781812   -0.051544
     12          8           0        0.206729   -2.398339   -0.168567
     13          7           0        1.456369    2.192019   -0.325586
     14          1           0       -3.489795    1.976293    0.098461
     15          1           0       -5.269607    0.230347    0.216985
     16          1           0       -4.643323   -2.168435    0.184418
     17          1           0       -2.239486   -2.824308    0.033691
     18          1           0        1.044539    3.110853   -0.225017
     19          1           0        2.427974    2.043256   -0.051939
     20          7           0        2.214094   -0.735979   -0.215511
     21          6           0        3.440385   -0.267841    0.168288
     22          6           0        4.581528   -1.248266   -0.014689
     23          1           0        2.145072   -1.731141   -0.408205
     24          1           0        4.261931   -2.243439   -0.326809
     25          1           0        5.128194   -1.320538    0.927110
     26          1           0        5.269162   -0.845818   -0.762353
     27          8           0        3.641711    0.856110    0.619368
 ---------------------------------------------------------------------

 SCF Done:  E(UB3LYP) =  -798.750940018     A.U. after   15 cycles

 The electronic state is 1-A.
 Alpha  occ. eigenvalues --  -19.14534 -19.12965 -19.11626 -14.36967 -14.34046
 Alpha  occ. eigenvalues --  -10.30156 -10.29448 -10.28213 -10.25588 -10.23757
 Alpha  occ. eigenvalues --  -10.21170 -10.21106 -10.20162 -10.20066 -10.19914
 Alpha  occ. eigenvalues --  -10.19899 -10.18198  -1.08176  -1.07111  -1.06227
 Alpha  occ. eigenvalues --   -0.96406  -0.94029  -0.89298  -0.82328  -0.78192
 Alpha  occ. eigenvalues --   -0.77784  -0.74497  -0.70046  -0.65940  -0.65233
 Alpha  occ. eigenvalues --   -0.61508  -0.59762  -0.57073  -0.54780  -0.54161
 Alpha  occ. eigenvalues --   -0.51443  -0.50931  -0.48855  -0.47791  -0.47204
 Alpha  occ. eigenvalues --   -0.46252  -0.46029  -0.45440  -0.45188  -0.44116
 Alpha  occ. eigenvalues --   -0.43043  -0.42386  -0.41009  -0.40061  -0.38715
 Alpha  occ. eigenvalues --   -0.38054  -0.37293  -0.36166  -0.32436  -0.30223
 Alpha  occ. eigenvalues --   -0.29056  -0.28846  -0.28647  -0.28126  -0.22727
 Alpha virt. eigenvalues --   -0.12356  -0.05846  -0.03209  -0.01081  -0.00068
 Alpha virt. eigenvalues --    0.00091   0.00843   0.01659   0.02302   0.02465
 Alpha virt. eigenvalues --    0.03457   0.03639   0.03880   0.04595   0.04827

  Beta  occ. eigenvalues --  -19.14534 -19.12965 -19.11626 -14.36967 -14.34046
  Beta  occ. eigenvalues --  -10.30156 -10.29448 -10.28213 -10.25588 -10.23757
  Beta  occ. eigenvalues --  -10.21170 -10.21106 -10.20162 -10.20066 -10.19914
  Beta  occ. eigenvalues --  -10.19899 -10.18198  -1.08176  -1.07111  -1.06227
  Beta  occ. eigenvalues --   -0.96406  -0.94029  -0.89298  -0.82328  -0.78192
  Beta  occ. eigenvalues --   -0.77784  -0.74497  -0.70046  -0.65940  -0.65233
  Beta  occ. eigenvalues --   -0.61508  -0.59762  -0.57073  -0.54780  -0.54161
  Beta  occ. eigenvalues --   -0.51443  -0.50931  -0.48855  -0.47791  -0.47204
  Beta  occ. eigenvalues --   -0.46252  -0.46029  -0.45440  -0.45188  -0.44116
  Beta  occ. eigenvalues --   -0.43043  -0.42386  -0.41009  -0.40061  -0.38715
  Beta  occ. eigenvalues --   -0.38054  -0.37293  -0.36166  -0.32436  -0.30223
  Beta  occ. eigenvalues --   -0.29056  -0.28846  -0.28647  -0.28126  -0.22727
  Beta virt. eigenvalues --   -0.12356  -0.05846  -0.03209  -0.01081  -0.00068
  Beta virt. eigenvalues --    0.00091   0.00843   0.01659   0.02302   0.02465
  Beta virt. eigenvalues --    0.03457   0.03639   0.03880   0.04595   0.04827

 Mulliken charges and spin densities:
               1          2
     1  C    0.254674  -0.000000
     2  C   -0.335117   0.000000
     3  C   -0.369637  -0.000000
     4  C    0.341942   0.000000
     5  C    0.011333  -0.000000
     6  C    0.215515   0.000000
     7  C   -0.595972  -0.000000
     8  C    0.446403  -0.000000
     9  C    0.458363  -0.000000
    10  C   -0.920207   0.000000
    11  O   -0.283253  -0.000000
    12  O   -0.315598  -0.000000
    13  N   -0.403267   0.000000
    14  H    0.190494   0.000000
    15  H    0.204758   0.000000
    16  H    0.209259  -0.000000
    17  H    0.187731   0.000000
    18  H    0.314462  -0.000000
    19  H    0.321945   0.000000
    20  N   -0.061359   0.000000
    21  C    0.289790   0.000000
    22  C   -0.615248  -0.000000
    23  H    0.364632  -0.000000
    24  H    0.142207   0.000000
    25  H    0.188430   0.000000
    26  H    0.192996  -0.000000
    27  O   -0.435278  -0.000000
 Sum of Mulliken charges =  -0.00000   0.00000

 Dipole moment (field-independent basis, Debye):
    X=             -1.8036    Y=             -2.0511    Z=             -0.7257  Tot=              2.8260
 Quadrupole moment (field-independent basis, Debye-Ang):
   XX=            -77.6705   YY=           -104.3708   ZZ=           -101.5719
   XY=             -3.4874   XZ=             -5.3743   YZ=             -0.9609

 Normal termination of Gaussian 16 at Sun Jan 21 08:08:29 2024.
