 Gaussian 16, Revision A.03,
 Gaussian 16:  ES64L-G16RevA.03 25-Dec-2016

 ----------------------------------------------------------------
 #P UB3LYP/6-311++G(d,p) SCRF=(PCM,Solvent=n,n-DiMethylFormamide)
 ----------------------------------------------------------------

 ------------------
 Quinone PCM in DMF
 ------------------
 Symbolic Z-matrix:
 Charge =  0 Multiplicity = 1

                         Standard orientation:
 ---------------------------------------------------------------------
 Center     Atomic      Atomic             Coordinates (Angstroms)
 Number     Number       Type             X           Y           Z
 ---------------------------------------------------------------------
      1          6           0       -4.966754    1.165607    0.241548
      2          8           0       -3.551809    1.154933    0.092915
      3          6           0       -2.896051   -0.022217    0.056222
      4          6           0       -3.554065   -1.254860    0.152619
      5          6           0       -2.833228   -2.444476    0.118371
      6          6           0       -1.451723   -2.431291   -0.004117
      7          6           0       -0.778294   -1.212207   -0.088173
      8          6           0        0.723306   -1.278993   -0.206359
      9          8           0        1.255896   -2.358269   -0.398504
     10          6           0        1.479790   -0.008672   -0.070150
     11          6           0        2.896067    0.022219    0.056167
     12          8           0        3.551859   -1.154939    0.092672
     13          6           0        4.966766   -1.165753    0.241946
     14          6           0        3.554067    1.254859    0.152654
     15          6           0        2.833259    2.444489    0.118188
     16          6           0        1.451774    2.431304   -0.004422
     17          6           0        0.778300    1.212225   -0.088337
     18          6           0       -0.723340    1.279043   -0.206179
     19          8           0       -1.256017    2.358368   -0.397866
     20          6           0       -1.479791    0.008701   -0.070098
     21          1           0       -5.246781    2.217194    0.247833
     22          1           0       -5.461028    0.663523   -0.596548
     23          1           0       -5.274713    0.700672    1.183991
     24          1           0       -4.629664   -1.290520    0.252582
     25          1           0       -3.363494   -3.387605    0.190603
     26          1           0       -0.874362   -3.345251   -0.035669
     27          1           0        5.246645   -2.217377    0.248664
     28          1           0        5.274367   -0.700648    1.184429
     29          1           0        5.461507   -0.663933   -0.596013
     30          1           0        4.629648    1.290470    0.252835
     31          1           0        3.363538    3.387613    0.190390
     32          1           0        0.874403    3.345254   -0.036116
 ---------------------------------------------------------------------

 SCF Done:  E(UB3LYP) =  -918.064472068     A.U. after   15 cycles

 The electronic state is 1-A.
 Alpha  occ. eigenvalues --  -19.17178 -19.17177 -19.12312 -19.12311 -10.28003
 Alpha  occ. eigenvalues --  -10.28002 -10.26573 -10.26573 -10.22848 -10.22847
 Alpha  occ. eigenvalues --  -10.20846 -10.20845 -10.20724 -10.20724 -10.19928
 Alpha  occ. eigenvalues --  -10.19928 -10.19421 -10.19420 -10.18784 -10.18784
 Alpha  occ. eigenvalues --   -1.09266  -1.09244  -1.06022  -1.05868  -0.89034
 Alpha  occ. eigenvalues --   -0.87820  -0.81176  -0.78435  -0.78127  -0.77176
 Alpha  occ. eigenvalues --   -0.71968  -0.71649  -0.68740  -0.65663  -0.64803
 Alpha  occ. eigenvalues --   -0.60405  -0.58207  -0.56739  -0.56230  -0.52306
 Alpha  occ. eigenvalues --   -0.51611  -0.51388  -0.49325  -0.49123  -0.48625
 Alpha  occ. eigenvalues --   -0.48401  -0.47858  -0.45844  -0.45488  -0.45276
 Alpha  occ. eigenvalues --   -0.44763  -0.43047  -0.42355  -0.41579  -0.40511
 Alpha  occ. eigenvalues --   -0.39951  -0.39192  -0.38971  -0.37960  -0.37810
 Alpha  occ. eigenvalues --   -0.35422  -0.35153  -0.34333  -0.34040  -0.28907
 Alpha  occ. eigenvalues --   -0.27892  -0.27478  -0.26274  -0.24849  -0.24683
 Alpha virt. eigenvalues --   -0.11261  -0.06182  -0.03640  -0.01418  -0.00762
 Alpha virt. eigenvalues --   -0.00228   0.00616   0.01157   0.01455   0.02875
 Alpha virt. eigenvalues --    0.03009   0.03028   0.03388   0.03487   0.03809

  Beta  occ. eigenvalues --  -19.17178 -19.17177 -19.12312 -19.12311 -10.28003
  Beta  occ. eigenvalues --  -10.28002 -10.26573 -10.26573 -10.22848 -10.22847
  Beta  occ. eigenvalues --  -10.20846 -10.20845 -10.20724 -10.20724 -10.19928
  Beta  occ. eigenvalues --  -10.19928 -10.19421 -10.19420 -10.18784 -10.18784
  Beta  occ. eigenvalues --   -1.09266  -1.09244  -1.06022  -1.05868  -0.89034
  Beta  occ. eigenvalues --   -0.87820  -0.81176  -0.78435  -0.78127  -0.77176
  Beta  occ. eigenvalues --   -0.71968  -0.71649  -0.68740  -0.65663  -0.64803
  Beta  occ. eigenvalues --   -0.60405  -0.58207  -0.56739  -0.56230  -0.52306
  Beta  occ. eigenvalues --   -0.51611  -0.51388  -0.49325  -0.49123  -0.48625
  Beta  occ. eigenvalues --   -0.48401  -0.47858  -0.45844  -0.45488  -0.45276
  Beta  occ. eigenvalues --   -0.44763  -0.43047  -0.42355  -0.41579  -0.40511
  Beta  occ. eigenvalues --   -0.39951  -0.39192  -0.38971  -0.37960  -0.37810
  Beta  occ. eigenvalues --   -0.35422  -0.35153  -0.34333  -0.34040  -0.28907
  Beta  occ. eigenvalues --   -0.27892  -0.27478  -0.26274  -0.24849  -0.24683
  Beta virt. eigenvalues --   -0.11261  -0.06182  -0.03640  -0.01418  -0.00762
  Beta virt. eigenvalues --   -0.00228   0.00616   0.01157   0.01455   0.02875
  Beta virt. eigenvalues --    0.03009   0.03028   0.03388   0.03487   0.03809

 Mulliken charges and spin densities:
               1          2
     1  C   -0.301417   0.000000
     2  O   -0.133826   0.000000
     3  C   -0.014500  -0.000000
     4  C   -0.051915   0.000000
     5  C   -0.396673   0.000000
     6  C    0.028806  -0.000000
     7  C    0.664502   0.000000
     8  C   -0.494325  -0.000000
     9  O   -0.286952  -0.000000
    10  C   -0.150028   0.000000
    11  C   -0.015157  -0.000000
    12  O   -0.133873   0.000000
    13  C   -0.301397   0.000000
    14  C   -0.052120  -0.000000
    15  C   -0.396597  -0.000000
    16  C    0.029600  -0.000000
    17  C    0.663712  -0.000000
    18  C   -0.493559   0.000000
    19  O   -0.286892  -0.000000
    20  C   -0.149686   0.000000
    21  H    0.201060  -0.000000
    22  H    0.172704   0.000000
    23  H    0.166870  -0.000000
    24  H    0.202455  -0.000000
    25  H    0.219540  -0.000000
    26  H    0.173520   0.000000
    27  H    0.201055   0.000000
    28  H    0.166847  -0.000000
    29  H    0.172734  -0.000000
    30  H    0.202451  -0.000000
    31  H    0.219546   0.000000
    32  H    0.173516   0.000000
 Sum of Mulliken charges =  -0.00000   0.00000

 Dipole moment (field-independent basis, Debye):
    X=              0.0001    Y=             -0.0004    Z=              1.8787  Tot=              1.8787
 Quadrupole moment (field-independent basis, Debye-Ang):
   XX=            -60.5340   YY=           -121.3762   ZZ=           -117.9921
   XY=             15.3124   XZ=              0.0068   YZ=             -0.0054

 Normal termination of Gaussian 16 at Sun Jan 14 01:07:43 2024.
