 Q-Chem 5.4, Q-Chem, Inc., Pleasanton, CA (2021)
 Q-Chem 5.4.0 for Intel X86 EM64T Linux

User input:
--------------------------------------------------------------
$molecule
0 1
C                 -1.8831200000      3.5057350000     -0.9505460000
C                 -2.9893010000      2.9093670000     -0.3631540000
C                 -0.6632560000      2.8231180000     -1.0196650000
C                 -0.5215960000      1.5193390000     -0.4990370000
C                 -2.8709110000      1.6174380000      0.1593600000
C                 -1.6613440000      0.9444510000      0.0891910000
C                  0.4753590000      3.5240410000     -1.6616710000
C                  1.8322660000      2.7743430000     -1.7426800000
C                  1.9002910000      1.4066390000     -1.1729020000
C                  0.7722230000      0.8044250000     -0.5764020000
C                  3.1270360000      0.7373470000     -1.2500960000
C                  3.2612310000     -0.5444350000     -0.7369400000
C                  2.1556380000     -1.1600560000     -0.1412710000
C                  0.9423550000     -0.4942840000     -0.0666010000
O                  0.3919130000      4.6425240000     -2.1194300000
O                  2.7788530000      3.3236980000     -2.2620000000
O                  4.4270200000     -1.2515120000     -0.7797120000
O                 -4.2057050000      3.5186960000     -0.2634240000
H                 -1.9322820000      4.5063320000     -1.3677730000
H                 -3.7368860000      1.1548640000      0.6173690000
H                 -1.6170970000     -0.0524090000      0.5064590000
H                  3.9596550000      1.2507140000     -1.7200780000
H                  2.2641290000     -2.1611310000      0.2584060000
H                  0.1154200000     -1.0098270000      0.4026460000
H                  5.1136470000     -0.7301280000     -1.2098100000
H                 -4.1672490000      4.3983120000     -0.6546780000
$end

$rem
BASIS  =  6-311++G(d,p)
GUI  =  2
JOB_TYPE  =  SP
METHOD  =  B3LYP
SCF_CONVERGENCE  = 8
SOLVENT_METHOD = sm12
$end

$smx
solvent dimethylformamide
charges CM5
$end

--------------------------------------------------------------

             Standard Nuclear Orientation (Angstroms)
    I     Atom           X                Y                Z
 ----------------------------------------------------------------
    1      C      -1.8831200000     3.5057350000    -0.9505460000
    2      C      -2.9893010000     2.9093670000    -0.3631540000
    3      C      -0.6632560000     2.8231180000    -1.0196650000
    4      C      -0.5215960000     1.5193390000    -0.4990370000
    5      C      -2.8709110000     1.6174380000     0.1593600000
    6      C      -1.6613440000     0.9444510000     0.0891910000
    7      C       0.4753590000     3.5240410000    -1.6616710000
    8      C       1.8322660000     2.7743430000    -1.7426800000
    9      C       1.9002910000     1.4066390000    -1.1729020000
   10      C       0.7722230000     0.8044250000    -0.5764020000
   11      C       3.1270360000     0.7373470000    -1.2500960000
   12      C       3.2612310000    -0.5444350000    -0.7369400000
   13      C       2.1556380000    -1.1600560000    -0.1412710000
   14      C       0.9423550000    -0.4942840000    -0.0666010000
   15      O       0.3919130000     4.6425240000    -2.1194300000
   16      O       2.7788530000     3.3236980000    -2.2620000000
   17      O       4.4270200000    -1.2515120000    -0.7797120000
   18      O      -4.2057050000     3.5186960000    -0.2634240000
   19      H      -1.9322820000     4.5063320000    -1.3677730000
   20      H      -3.7368860000     1.1548640000     0.6173690000
   21      H      -1.6170970000    -0.0524090000     0.5064590000
   22      H       3.9596550000     1.2507140000    -1.7200780000
   23      H       2.2641290000    -2.1611310000     0.2584060000
   24      H       0.1154200000    -1.0098270000     0.4026460000
   25      H       5.1136470000    -0.7301280000    -1.2098100000
   26      H      -4.1672490000     4.3983120000    -0.6546780000
 ----------------------------------------------------------------

   14    -839.4304193962      6.54e-09  Convergence criterion met
 Total energy in the final basis set =     -839.4619660958

                    Orbital Energies (a.u.)
 --------------------------------------------------------------

 Alpha MOs
 -- Occupied --
-19.1704 -19.1704 -19.1398 -19.1398 -10.2822 -10.2821 -10.2572 -10.2572
-10.2136 -10.2133 -10.2076 -10.2076 -10.1985 -10.1985 -10.1978 -10.1977
-10.1968 -10.1967  -1.0854  -1.0823  -1.0822  -1.0589  -0.9011  -0.8736
 -0.8094  -0.7917  -0.7795  -0.7438  -0.7142  -0.6634  -0.6508  -0.6225
 -0.6208  -0.5839  -0.5693  -0.5403  -0.5201  -0.5089  -0.4940  -0.4858
 -0.4640  -0.4631  -0.4591  -0.4590  -0.4485  -0.4335  -0.4296  -0.4295
 -0.4179  -0.3986  -0.3983  -0.3846  -0.3833  -0.3800  -0.3620  -0.3441
 -0.3132  -0.2853  -0.2785  -0.2779  -0.2649  -0.2263

          Ground-State Mulliken Net Atomic Charges

     Atom                 Charge (a.u.)
  ----------------------------------------
      1 C                     0.069042
      2 C                    -0.202179
      3 C                     0.645374
      4 C                     0.170740
      5 C                     0.104998
      6 C                     0.062883
      7 C                    -1.404010
      8 C                    -1.406369
      9 C                     0.645749
     10 C                     0.170671
     11 C                     0.066833
     12 C                    -0.204002
     13 C                     0.104442
     14 C                     0.061222
     15 O                    -0.268985
     16 O                    -0.268459
     17 O                    -0.229462
     18 O                    -0.229591
     19 H                     0.191475
     20 H                     0.293940
     21 H                     0.262862
     22 H                     0.191447
     23 H                     0.294261
     24 H                     0.262338
     25 H                     0.307358
     26 H                     0.307423
  ----------------------------------------
  Sum of atomic charges =     0.000000

                    Cartesian Multipole Moments
 -----------------------------------------------------------------
    Charge (ESU x 10^10)
                 0.0000
    Dipole Moment (Debye)
         X      -2.0634      Y      -3.9851      Z       2.3348
       Tot       5.0587
    Quadrupole Moments (Debye-Ang)
        XX     -92.5984     XY     -16.2398     YY    -118.8568
        XZ       3.2411     YZ      10.7249     ZZ    -110.7890

 Total job time:  516.07s(wall), 3975.42s(cpu)
        *  Thank you very much for using Q-Chem.  Have a nice day.  *
