 Q-Chem 5.4, Q-Chem, Inc., Pleasanton, CA (2021)
 Q-Chem 5.4.0 for Intel X86 EM64T Linux

User input:
--------------------------------------------------------------
$molecule
0 1
N                 -4.5250980000      1.0190300000     -0.5046900000
C                 -3.2994860000      0.4424730000     -0.4037560000
C                 -3.1613840000     -0.9638270000     -0.4177580000
Cl                -4.6034730000     -1.9510390000     -0.6085540000
C                 -1.9389620000     -1.5775300000     -0.2901160000
C                 -0.7792080000     -0.8167560000     -0.1389950000
C                  0.4962620000     -1.5699090000     -0.0112990000
O                  0.5136880000     -2.7922130000     -0.0322690000
C                  1.7473310000     -0.7851460000      0.1390390000
C                  2.9705410000     -1.4531160000      0.2518670000
C                  4.1476010000     -0.7288260000      0.3922900000
C                  4.1096830000      0.6683980000      0.4220570000
C                  2.8968050000      1.3372210000      0.3118270000
C                  1.7062440000      0.6157580000      0.1686560000
C                  0.4240410000      1.3785140000      0.0557610000
O                  0.4440690000      2.5941600000      0.1092790000
C                 -0.8497940000      0.5971460000     -0.1179390000
C                 -2.1085260000      1.2022730000     -0.2543780000
Br                -2.3685500000      3.1042600000     -0.2672750000
H                 -4.5910170000      2.0182480000     -0.6120190000
H                 -5.3207480000      0.4484990000     -0.7363020000
H                 -1.8530170000     -2.6558380000     -0.3044860000
H                  2.9716660000     -2.5356640000      0.2266450000
H                  5.0955040000     -1.2476290000      0.4790940000
H                  5.0285300000      1.2331170000      0.5318060000
H                  2.8472970000      2.4183960000      0.3341040000
$end

$rem
BASIS  =  6-311++G(d,p)
GUI  =  2
JOB_TYPE  =  SP
METHOD  =  B3LYP
SCF_CONVERGENCE  = 8
SOLVENT_METHOD = sm12
$end

$smx
solvent dimethylformamide
charges CM5
$end

--------------------------------------------------------------

             Standard Nuclear Orientation (Angstroms)
    I     Atom           X                Y                Z
 ----------------------------------------------------------------
    1      N      -4.5250980000     1.0190300000    -0.5046900000
    2      C      -3.2994860000     0.4424730000    -0.4037560000
    3      C      -3.1613840000    -0.9638270000    -0.4177580000
    4      Cl     -4.6034730000    -1.9510390000    -0.6085540000
    5      C      -1.9389620000    -1.5775300000    -0.2901160000
    6      C      -0.7792080000    -0.8167560000    -0.1389950000
    7      C       0.4962620000    -1.5699090000    -0.0112990000
    8      O       0.5136880000    -2.7922130000    -0.0322690000
    9      C       1.7473310000    -0.7851460000     0.1390390000
   10      C       2.9705410000    -1.4531160000     0.2518670000
   11      C       4.1476010000    -0.7288260000     0.3922900000
   12      C       4.1096830000     0.6683980000     0.4220570000
   13      C       2.8968050000     1.3372210000     0.3118270000
   14      C       1.7062440000     0.6157580000     0.1686560000
   15      C       0.4240410000     1.3785140000     0.0557610000
   16      O       0.4440690000     2.5941600000     0.1092790000
   17      C      -0.8497940000     0.5971460000    -0.1179390000
   18      C      -2.1085260000     1.2022730000    -0.2543780000
   19      Br     -2.3685500000     3.1042600000    -0.2672750000
   20      H      -4.5910170000     2.0182480000    -0.6120190000
   21      H      -5.3207480000     0.4484990000    -0.7363020000
   22      H      -1.8530170000    -2.6558380000    -0.3044860000
   23      H       2.9716660000    -2.5356640000     0.2266450000
   24      H       5.0955040000    -1.2476290000     0.4790940000
   25      H       5.0285300000     1.2331170000     0.5318060000
   26      H       2.8472970000     2.4183960000     0.3341040000
 ----------------------------------------------------------------

   15   -3777.4833072159      8.86e-09  Convergence criterion met
 Total energy in the final basis set =    -3777.5054685410

                    Orbital Energies (a.u.)
 --------------------------------------------------------------

 Alpha MOs
 -- Occupied --
********-101.5768 -62.4982 -56.3188 -56.3149 -56.3145 -19.1323 -19.1256
-14.3519 -10.2888 -10.2801 -10.2698 -10.2617 -10.2613 -10.2296 -10.2117
-10.2099 -10.2099 -10.2081 -10.1982 -10.1977 -10.1972 -10.1971  -9.4912
 -8.7071  -7.2558  -7.2460  -7.2457  -6.5388  -6.5258  -6.5248  -2.6497
 -2.6462  -2.6453  -2.6350  -2.6349  -1.0705  -1.0611  -0.9734  -0.9027
 -0.8903  -0.8770  -0.8269  -0.8033  -0.7785  -0.7638  -0.7588  -0.6909
 -0.6693  -0.6480  -0.6261  -0.5944  -0.5771  -0.5646  -0.5463  -0.5263
 -0.5006  -0.4898  -0.4877  -0.4650  -0.4592  -0.4572  -0.4523  -0.4491
 -0.4412  -0.4352  -0.4310  -0.4214  -0.3922  -0.3827  -0.3823  -0.3699
 -0.3684  -0.3437  -0.3431  -0.3237  -0.3187  -0.2860  -0.2831  -0.2782
 -0.2718  -0.2664  -0.2387

          Ground-State Mulliken Net Atomic Charges

     Atom                 Charge (a.u.)
  ----------------------------------------
      1 N                    -0.036364
      2 C                    -0.175224
      3 C                     1.199573
      4 Cl                    0.597354
      5 C                    -0.135389
      6 C                    -0.713590
      7 C                    -1.493777
      8 O                    -0.274460
      9 C                    -0.566539
     10 C                     0.072879
     11 C                     0.405816
     12 C                     0.443846
     13 C                     0.266131
     14 C                    -0.188182
     15 C                    -1.921128
     16 O                    -0.132292
     17 C                     0.368644
     18 C                     0.478961
     19 Br                   -0.053448
     20 H                     0.291057
     21 H                     0.307298
     22 H                     0.223256
     23 H                     0.186853
     24 H                     0.326585
     25 H                     0.327734
     26 H                     0.194407
  ----------------------------------------
  Sum of atomic charges =     0.000000

                    Cartesian Multipole Moments
 -----------------------------------------------------------------
    Charge (ESU x 10^10)
                 0.0000
    Dipole Moment (Debye)
         X      -0.5037      Y       1.1022      Z      -0.4333
       Tot       1.2869
    Quadrupole Moments (Debye-Ang)
        XX     -90.5227     XY      -4.6524     YY    -139.0102
        XZ       6.2077     YZ      -1.3285     ZZ    -130.2289

 Total job time:  689.33s(wall), 5355.25s(cpu)
        *  Thank you very much for using Q-Chem.  Have a nice day.  *
