 Q-Chem 5.4, Q-Chem, Inc., Pleasanton, CA (2021)
 Q-Chem 5.4.0 for Intel X86 EM64T Linux

User input:
--------------------------------------------------------------
$molecule
-2 1
C                  2.9832400000     -1.0980550000     -0.1543260000
C                  1.6504130000     -0.4079710000     -0.0031000000
C                  1.5766390000      0.9315490000      0.3814550000
C                  0.3557550000      1.6630690000      0.5256290000
O                  0.3200400000      2.9037210000      0.9206650000
C                 -0.8296660000      0.8997670000      0.2185160000
C                 -0.7711780000     -0.4524720000     -0.1651650000
C                 -2.0347590000     -1.2138780000     -0.4958450000
C                  0.4703340000     -1.1692760000     -0.3075700000
O                  0.5353810000     -2.4123910000     -0.6944120000
C                 -2.1565980000      1.6108390000      0.3496430000
H                  3.1142990000     -1.5010270000     -1.1723840000
H                  3.8152480000     -0.4118020000      0.0508760000
H                  3.0699970000     -1.9665480000      0.5114360000
H                  2.4939250000      1.4691300000      0.6282390000
H                 -2.7966770000     -1.1278520000      0.2914780000
H                 -1.7734430000     -2.2659690000     -0.6373110000
H                 -2.5158030000     -0.8596050000     -1.4280400000
H                 -2.7656750000      1.2301940000      1.1926850000
H                 -1.9584650000      2.6700640000      0.5353830000
H                 -2.7830060000      1.5085110000     -0.5478520000
$end
$rem
MAX_SCF_CYCLES=200
BASIS  =  6-311++G(d,p)
GUI  =  2
JOB_TYPE  =  SP
METHOD  =  B3LYP
SOLVENT_METHOD = COSMO
$end
$solvent
dielectric 37.219
opticaldielectric 1.43
$end

--------------------------------------------------------------

             Standard Nuclear Orientation (Angstroms)
    I     Atom           X                Y                Z
 ----------------------------------------------------------------
    1      C       2.8454141524     1.1694140958    -0.0110233812
    2      C       1.4057636316     0.7195635484     0.0125118087
    3      C       0.3644177558     1.6484868827    -0.0059052380
    4      C      -1.0239281955     1.3035855023    -0.0078930094
    5      O      -1.9719357445     2.1966145172     0.0101971330
    6      C      -1.2794822071    -0.1165776495    -0.0076588867
    7      C      -0.2402490587    -1.0645263847     0.0162142697
    8      C      -0.5481811180    -2.5445853974    -0.0019094362
    9      C       1.1521485041    -0.6948443331     0.0143670469
   10      O       2.1211308275    -1.5667147656     0.0030553598
   11      C      -2.7261406765    -0.5533166908    -0.0097789892
   12      H       3.3854455696     0.7447465279    -0.8735942541
   13      H       2.9225129141     2.2632340082    -0.0648948307
   14      H       3.3956842497     0.8201361737     0.8722963014
   15      H       0.5973090072     2.7145521701     0.0180895091
   16      H      -1.2746889425    -2.8332070344     0.7705418240
   17      H       0.3860791741    -3.0906193391     0.1536501808
   18      H      -0.9762526036    -2.8804214251    -0.9662066789
   19      H      -3.0319753210    -1.0288045681     0.9425663633
   20      H      -3.3494489357     0.3336787233    -0.1527460601
   21      H      -2.9468025047    -1.2856906911    -0.7992674048
 ----------------------------------------------------------------

   19    -499.5100003417      7.10e-06  Convergence criterion met
 Total energy in the final basis set =     -499.5100003417
    6    -499.8113456733      3.55e-06  Convergence criterion met
 Total energy in the final basis set =     -499.8113456733

                    Orbital Energies (a.u.)
 --------------------------------------------------------------

 Alpha MOs
 -- Occupied --
-19.0139 -19.0118 -10.1607 -10.1573 -10.1364 -10.1320 -10.1320 -10.1227
-10.1218 -10.1202 -10.1122  -0.9251  -0.9215  -0.7822  -0.7445  -0.6924
 -0.6750  -0.6226  -0.5988  -0.5219  -0.4994  -0.4507  -0.4124  -0.4020
 -0.3850  -0.3836  -0.3776  -0.3681  -0.3577  -0.3505  -0.3486  -0.3363
 -0.3265  -0.3044  -0.3009  -0.2988  -0.2193  -0.1971  -0.1926  -0.1881
 -0.1131

          Ground-State Mulliken Net Atomic Charges

     Atom                 Charge (a.u.)
  ----------------------------------------
      1 C                    -0.367106
      2 C                     0.909554
      3 C                    -0.616038
      4 C                    -0.804429
      5 O                    -0.794273
      6 C                     0.720775
      7 C                     0.293143
      8 C                    -0.636034
      9 C                    -0.779853
     10 O                    -0.777896
     11 C                    -0.546640
     12 H                     0.141490
     13 H                     0.137993
     14 H                     0.142369
     15 H                     0.100009
     16 H                     0.130280
     17 H                     0.168438
     18 H                     0.140570
     19 H                     0.141691
     20 H                     0.163967
     21 H                     0.131991
  ----------------------------------------
  Sum of atomic charges =    -2.000000

                    Cartesian Multipole Moments
 -----------------------------------------------------------------
    Charge (ESU x 10^10)
                -9.6064
    Dipole Moment (Debye)
         X      -0.4973      Y      -3.3804      Z      -0.0510
       Tot       3.4172
    Quadrupole Moments (Debye-Ang)
        XX    -112.7804     XY      30.9437     YY    -108.6772
        XZ       0.0547     YZ       0.0221     ZZ     -75.7884

 Total job time:  41.08s(wall), 281.17s(cpu)
        *  Thank you very much for using Q-Chem.  Have a nice day.  *
