 Q-Chem 5.4, Q-Chem, Inc., Pleasanton, CA (2021)
 Q-Chem 5.4.0 for Intel X86 EM64T Linux

User input:
--------------------------------------------------------------
$molecule
-1 2
C                 -1.7955140000      1.1240630000      0.6360610000
C                 -1.1416390000     -0.0937720000     -0.0614240000
C                 -1.6846500000     -1.3678530000      0.6133200000
C                 -1.5749980000     -0.1264320000     -1.5474490000
C                  0.3919640000      0.0155380000      0.0308430000
C                  1.1542410000     -0.9436470000      0.6576310000
C                  2.5987730000     -0.9020140000      0.7794540000
O                  3.2478480000     -1.8157000000      1.3686950000
C                  3.2346340000      0.2494850000      0.1832570000
C                  2.5027440000      1.2186640000     -0.4461010000
C                  1.0613080000      1.1783710000     -0.5680630000
O                  0.4393650000      2.1100210000     -1.1646490000
H                 -2.8890080000      1.0628230000      0.5621280000
H                 -1.5285330000      1.1438540000      1.6979920000
H                 -1.4578430000      2.0512790000      0.1737260000
H                 -2.7758440000     -1.3920920000      0.5168430000
H                 -1.4422230000     -1.3993190000      1.6796080000
H                 -1.2874400000     -2.2755120000      0.1495130000
H                 -1.1501250000     -1.0022360000     -2.0492660000
H                 -2.6682770000     -0.1888210000     -1.6235470000
H                 -1.2320000000      0.7711810000     -2.0613720000
H                  0.6962030000     -1.8153790000      1.1109590000
H                  4.3171880000      0.3131450000      0.2557790000
H                  2.9838250000      2.0843550000     -0.8939380000
$end
$rem
MAX_SCF_CYCLES=200
BASIS  =  6-311++G(d,p)
GUI  =  2
JOB_TYPE  =  SP
METHOD  =  B3LYP
SOLVENT_METHOD = COSMO
$end
$solvent
dielectric 37.219
opticaldielectric 1.43
$end

--------------------------------------------------------------

             Standard Nuclear Orientation (Angstroms)
    I     Atom           X                Y                Z
 ----------------------------------------------------------------
    1      C      -2.3406820794     0.1449790889     1.2631180933
    2      C      -1.6570322637    -0.4331547858    -0.0000303860
    3      C      -1.8848116182    -1.9568145225    -0.0006457568
    4      C      -2.3406694565     0.1458798437    -1.2627639626
    5      C      -0.1627986793    -0.0594356195     0.0000998724
    6      C       0.8271928535    -1.0154073998     0.0001786349
    7      C       2.2495626660    -0.7323686059     0.0000971115
    8      O       3.1161826949    -1.6555669282     0.0001374073
    9      C       2.5991352739     0.6688875842    -0.0002232886
   10      C       1.6368566277     1.6410409700    -0.0002228977
   11      C       0.2172869270     1.3598688947     0.0001322548
   12      O      -0.6267709486     2.3076378303     0.0002762067
   13      H      -3.4099235617    -0.1033491310     1.2642590747
   14      H      -1.8932213953    -0.2808518254     2.1674493133
   15      H      -2.2257587143     1.2282060592     1.2933970963
   16      H      -2.9610808812    -2.1623482515    -0.0008604254
   17      H      -1.4532356602    -2.4338040497     0.8842012593
   18      H      -1.4529901402    -2.4330402873    -0.8857880107
   19      H      -1.8932268679    -0.2793450286    -2.1673903782
   20      H      -3.4099273165    -0.1023703451    -1.2640821057
   21      H      -2.2256235572     1.2291025677    -1.2922011319
   22      H       0.5856265070    -2.0722269013     0.0000992317
   23      H       3.6571306820     0.9176462470    -0.0004307522
   24      H       1.9026954288     2.6949610405    -0.0004001345
 ----------------------------------------------------------------

   10    -538.9383852141      8.97e-06  Convergence criterion met
 Total energy in the final basis set =     -538.9383852141
    4    -539.0233850003      6.89e-06  Convergence criterion met
 Total energy in the final basis set =     -539.0233850003

                    Orbital Energies (a.u.)
 --------------------------------------------------------------

 Alpha MOs
 -- Occupied --
-19.0806 -19.0765 -10.2196 -10.2194 -10.1801 -10.1719 -10.1620 -10.1609
-10.1572 -10.1479 -10.1437 -10.1437  -1.0006  -0.9973  -0.8312  -0.7987
 -0.7317  -0.6827  -0.6733  -0.6726  -0.6057  -0.5704  -0.5245  -0.4750
 -0.4703  -0.4493  -0.4312  -0.4298  -0.4181  -0.4110  -0.4039  -0.3861
 -0.3847  -0.3670  -0.3658  -0.3580  -0.3521  -0.3307  -0.3238  -0.3172
 -0.2814  -0.2522  -0.2450  -0.2354  -0.1637

 Beta MOs
 -- Occupied --
-19.0738 -19.0696 -10.2180 -10.2180 -10.1801 -10.1709 -10.1609 -10.1597
-10.1564 -10.1479 -10.1436 -10.1436  -0.9885  -0.9849  -0.8273  -0.7953
 -0.7293  -0.6782  -0.6731  -0.6660  -0.6020  -0.5666  -0.5222  -0.4731
 -0.4663  -0.4472  -0.4286  -0.4286  -0.4173  -0.3986  -0.3970  -0.3816
 -0.3719  -0.3664  -0.3572  -0.3557  -0.3390  -0.3291  -0.3220  -0.3167
 -0.2499  -0.2433  -0.2387  -0.2294

          Ground-State Mulliken Net Atomic Charges

     Atom                 Charge (a.u.)    Spin (a.u.)
  --------------------------------------------------------
      1 C                    -0.697847       0.010925
      2 C                     0.603288      -0.013648
      3 C                    -0.503233      -0.000279
      4 C                    -0.697340       0.010934
      5 C                     1.197613       0.128349
      6 C                    -0.559987      -0.010420
      7 C                    -0.519420       0.141590
      8 O                    -0.550504       0.231390
      9 C                     0.109893       0.090774
     10 C                    -0.043931       0.119740
     11 C                    -0.871160       0.065119
     12 O                    -0.477335       0.251092
     13 H                     0.154539       0.000505
     14 H                     0.140764       0.000770
     15 H                     0.176564      -0.002420
     16 H                     0.177026       0.000015
     17 H                     0.138596      -0.000179
     18 H                     0.138736      -0.000179
     19 H                     0.140704       0.000773
     20 H                     0.154478       0.000503
     21 H                     0.176384      -0.002422
     22 H                     0.209224      -0.007501
     23 H                     0.200620      -0.006931
     24 H                     0.202327      -0.008500
  --------------------------------------------------------
  Sum of atomic charges =    -1.000000

                    Cartesian Multipole Moments
 -----------------------------------------------------------------
    Charge (ESU x 10^10)
                -4.8032
    Dipole Moment (Debye)
         X      -6.7020      Y      -1.0835      Z      -0.0018
       Tot       6.7891
    Quadrupole Moments (Debye-Ang)
        XX    -103.6229     XY      21.2298     YY     -98.2579
        XZ      -0.0013     YZ      -0.0030     ZZ     -78.2765

 Total job time:  44.33s(wall), 327.80s(cpu)
        *  Thank you very much for using Q-Chem.  Have a nice day.  *
