 Q-Chem 5.4, Q-Chem, Inc., Pleasanton, CA (2021)
 Q-Chem 5.4.0 for Intel X86 EM64T Linux

User input:
--------------------------------------------------------------
$molecule
-1 2
C                 -0.5680230000      2.0890170000     -0.0875010000
C                 -1.8041910000      1.3012570000     -0.0651660000
C                 -1.7498390000     -0.0784790000      0.0001810000
C                 -0.4650970000     -0.7708900000      0.0472800000
C                  0.7665360000      0.0131650000      0.0233930000
C                  0.7215360000      1.3933010000     -0.0408780000
O                 -0.6136530000      3.3567890000     -0.1471290000
O                 -0.4194350000     -2.0396400000      0.1078100000
C                  1.9319270000      2.3319590000     -0.0715790000
C                  2.7760300000      2.3283650000      1.2190170000
C                  2.7989090000      2.2130590000     -1.3413520000
C                  2.0814770000     -0.7663140000      0.0723850000
C                  2.2558610000     -1.5601870000      1.3839140000
C                  2.2804460000     -1.6781990000     -1.1563530000
C                 -3.0789510000      2.1492830000     -0.1204050000
C                 -3.9427270000      2.0865740000      1.1555710000
C                 -3.9127840000      1.9653000000     -1.4045080000
C                 -3.0053710000     -0.9513950000      0.0261790000
C                 -3.1151860000     -1.8745910000     -1.2052900000
C                 -3.1455970000     -1.7567890000      1.3348440000
H                  1.4755590000      3.3225980000     -0.1202980000
H                  3.5121650000      3.1417290000      1.1898750000
H                  3.3229700000      1.3955970000      1.3803580000
H                  2.1351780000      2.4907740000      2.0903500000
H                  3.3443830000      1.2680960000     -1.4102660000
H                  3.5379490000      3.0237990000     -1.3704740000
H                  2.1742370000      2.3001310000     -2.2349320000
H                  2.8917930000     -0.0401530000      0.0462450000
H                  2.1757660000     -0.8977220000      2.2517210000
H                  3.2453300000     -2.0345940000      1.4122290000
H                  1.4905010000     -2.3318190000      1.4669100000
H                  1.5163040000     -2.4550380000     -1.1824200000
H                  3.2699150000     -2.1521610000     -1.1213690000
H                  2.2178070000     -1.0990990000     -2.0832400000
H                 -2.6949900000      3.1703870000     -0.1642700000
H                 -4.7373520000      2.8421070000      1.1102750000
H                 -3.3309500000      2.2996320000      2.0368320000
H                 -4.4204810000      1.1156980000      1.3118280000
H                 -4.7062210000      2.7220710000     -1.4501880000
H                 -4.3895270000      0.9842560000     -1.4785260000
H                 -3.2801700000      2.0929420000     -2.2875630000
H                 -3.8656440000     -0.2859340000     -0.0148210000
H                 -4.0685100000     -2.4184660000     -1.1887020000
H                 -2.2967480000     -2.5943980000     -1.2159540000
H                 -3.0765450000     -1.2920250000     -2.1313060000
H                 -4.0986360000     -2.3013320000      1.3454170000
H                 -3.1293430000     -1.0910350000      2.2036880000
H                 -2.3282720000     -2.4713370000      1.4321870000
$end
$rem
MAX_SCF_CYCLES=200
BASIS  =  6-311++G(d,p)
GUI  =  2
JOB_TYPE  =  SP
METHOD  =  B3LYP
SOLVENT_METHOD = COSMO
$end
$solvent
dielectric 37.219
opticaldielectric 1.43
$end

--------------------------------------------------------------

             Standard Nuclear Orientation (Angstroms)
    I     Atom           X                Y                Z
 ----------------------------------------------------------------
    1      C       0.0000658523    -1.6322730554    -0.0016480736
    2      C      -1.2637122630    -0.8892789390    -0.0008656576
    3      C      -1.2590430482     0.4930647018    -0.0011046456
    4      C       0.0000103330     1.2326576105    -0.0015822631
    5      C       1.2591071431     0.4931259290    -0.0006916936
    6      C       1.2638079739    -0.8892302040    -0.0014425382
    7      O       0.0000877891    -2.9022665266    -0.0017964012
    8      O      -0.0000067892     2.5036709708    -0.0022888711
    9      C       2.5072453594    -1.7841777864    -0.0012007636
   10      C       3.3627265980    -1.6895024841    -1.2807902541
   11      C       3.3573717215    -1.6940885591     1.2822662477
   12      C       2.5451844323     1.3208086207     0.0013403110
   13      C       2.7028308016     2.1812877992    -1.2696733172
   14      C       2.6992707185     2.1804104629     1.2734496137
   15      C      -2.5071987407    -1.7842380291     0.0005862952
   16      C      -3.3606783485    -1.6926298265    -1.2805603185
   17      C      -3.3591888897    -1.6909908098     1.2825634686
   18      C      -2.5452389335     1.3205417119    -0.0002189398
   19      C      -2.7001557615     2.1802068277     1.2717255368
   20      C      -2.7024264526     2.1810781181    -1.2713192844
   21      H       2.0868276312    -2.7917753314    -0.0038544116
   22      H       4.1276943417    -2.4763498808    -1.2815088012
   23      H       3.8768166567    -0.7311178030    -1.3923278634
   24      H       2.7364174639    -1.8336499045    -2.1658029974
   25      H       3.8673926961    -0.7344206780     1.4012715372
   26      H       4.1251470171    -2.4782111993     1.2816824418
   27      H       2.7279311370    -1.8455209781     2.1638299892
   28      H       3.3811324459     0.6238189142     0.0025172247
   29      H       2.6550634677     1.5579527261    -2.1683032426
   30      H       3.6745847920     2.6917615642    -1.2648400721
   31      H       1.9106840193     2.9279607596    -1.3250192713
   32      H       1.9071283385     2.9271916610     1.3272976274
   33      H       3.6711034769     2.6907539071     1.2716007634
   34      H       2.6490752472     1.5564484266     2.1715318800
   35      H      -2.0867268969    -2.7918127643     0.0009712159
   36      H      -4.1276454090    -2.4775316787    -1.2794014958
   37      H      -2.7333068691    -1.8418439429    -2.1639775096
   38      H      -3.8719929522    -0.7332762491    -1.3965923464
   39      H      -4.1249272984    -2.4771038601     1.2840611983
   40      H      -3.8720236840    -0.7322893793     1.3970271015
   41      H      -2.7306566867    -1.8372331193     2.1656487096
   42      H      -3.3810481401     0.6233962270     0.0001277090
   43      H      -3.6724603542     2.6896404382     1.2699929491
   44      H      -1.9086161564     2.9276674153     1.3250577170
   45      H      -2.6490084830     1.5564664102     2.1698979874
   46      H      -3.6745270030     2.6909056850    -1.2670094522
   47      H      -2.6537834373     1.5579719202    -2.1700711971
   48      H      -1.9107943357     2.9283326294    -1.3261275540
 ----------------------------------------------------------------

   10    -853.5225265608      7.61e-06  Convergence criterion met
 Total energy in the final basis set =     -853.5225265608
    4    -853.5939648004      3.88e-06  Convergence criterion met
 Total energy in the final basis set =     -853.5939648004

                    Orbital Energies (a.u.)
 --------------------------------------------------------------

 Alpha MOs
 -- Occupied --
-19.0660 -19.0572 -10.2072 -10.2031 -10.1599 -10.1599 -10.1570 -10.1570
-10.1558 -10.1558 -10.1551 -10.1551 -10.1470 -10.1470 -10.1470 -10.1470
-10.1408 -10.1408 -10.1408 -10.1408  -0.9903  -0.9820  -0.8245  -0.8069
 -0.7746  -0.7721  -0.7527  -0.7016  -0.6745  -0.6743  -0.6675  -0.6671
 -0.6608  -0.6218  -0.5925  -0.5665  -0.5504  -0.5274  -0.5173  -0.4792
 -0.4563  -0.4479  -0.4329  -0.4290  -0.4212  -0.4202  -0.4192  -0.4124
 -0.4008  -0.4005  -0.3993  -0.3958  -0.3956  -0.3894  -0.3876  -0.3737
 -0.3720  -0.3680  -0.3665  -0.3460  -0.3398  -0.3345  -0.3325  -0.3295
 -0.3281  -0.3275  -0.3267  -0.3225  -0.3188  -0.3102  -0.2979  -0.2971
 -0.2585  -0.2308  -0.2251  -0.2120  -0.1468

 Beta MOs
 -- Occupied --
-19.0596 -19.0505 -10.2054 -10.2015 -10.1600 -10.1600 -10.1571 -10.1571
-10.1548 -10.1548 -10.1540 -10.1540 -10.1470 -10.1470 -10.1470 -10.1470
-10.1407 -10.1407 -10.1407 -10.1407  -0.9789  -0.9701  -0.8202  -0.8059
 -0.7741  -0.7712  -0.7503  -0.6999  -0.6743  -0.6742  -0.6673  -0.6669
 -0.6519  -0.6198  -0.5907  -0.5643  -0.5500  -0.5258  -0.5136  -0.4777
 -0.4552  -0.4455  -0.4327  -0.4281  -0.4210  -0.4191  -0.4126  -0.4117
 -0.3999  -0.3998  -0.3972  -0.3952  -0.3906  -0.3854  -0.3822  -0.3736
 -0.3710  -0.3679  -0.3539  -0.3387  -0.3340  -0.3327  -0.3319  -0.3270
 -0.3269  -0.3264  -0.3257  -0.3181  -0.3137  -0.3087  -0.2970  -0.2962
 -0.2291  -0.2251  -0.2183  -0.2067

          Ground-State Mulliken Net Atomic Charges

     Atom                 Charge (a.u.)    Spin (a.u.)
  --------------------------------------------------------
      1 C                    -1.202122       0.135168
      2 C                     0.533797       0.052802
      3 C                     0.281244       0.085838
      4 C                    -0.614499       0.118569
      5 C                     0.281461       0.085828
      6 C                     0.533461       0.052812
      7 O                    -0.463468       0.231229
      8 O                    -0.400628       0.249881
      9 C                     0.185710      -0.003585
     10 C                    -0.747299       0.003055
     11 C                    -0.745935       0.003101
     12 C                     0.674237      -0.025184
     13 C                    -0.763131       0.010562
     14 C                    -0.762249       0.010494
     15 C                     0.185588      -0.003567
     16 C                    -0.746586       0.003079
     17 C                    -0.746987       0.003071
     18 C                     0.674097      -0.025154
     19 C                    -0.762922       0.010495
     20 C                    -0.762384       0.010555
     21 H                     0.200860      -0.002754
     22 H                     0.155545       0.000092
     23 H                     0.151666      -0.000014
     24 H                     0.159378      -0.000075
     25 H                     0.151741      -0.000019
     26 H                     0.155339       0.000100
     27 H                     0.159398      -0.000083
     28 H                     0.135024      -0.001121
     29 H                     0.130025      -0.000002
     30 H                     0.158280       0.000277
     31 H                     0.169804      -0.000602
     32 H                     0.169466      -0.000594
     33 H                     0.158152       0.000273
     34 H                     0.129923      -0.000001
     35 H                     0.200624      -0.002757
     36 H                     0.155455       0.000098
     37 H                     0.159486      -0.000084
     38 H                     0.151643      -0.000017
     39 H                     0.155436       0.000095
     40 H                     0.151774      -0.000019
     41 H                     0.159397      -0.000076
     42 H                     0.134913      -0.001118
     43 H                     0.158383       0.000272
     44 H                     0.169163      -0.000590
     45 H                     0.130000      -0.000003
     46 H                     0.158210       0.000275
     47 H                     0.130011       0.000001
     48 H                     0.169517      -0.000603
  --------------------------------------------------------
  Sum of atomic charges =    -1.000000

                    Cartesian Multipole Moments
 -----------------------------------------------------------------
    Charge (ESU x 10^10)
                -4.8032
    Dipole Moment (Debye)
         X      -0.0006      Y       0.9242      Z       0.0112
       Tot       0.9243
    Quadrupole Moments (Debye-Ang)
        XX    -133.1653     XY      -0.0005     YY    -170.7207
        XZ       0.0039     YZ      -0.0018     ZZ    -134.7999

 Total job time:  266.85s(wall), 1879.37s(cpu)
        *  Thank you very much for using Q-Chem.  Have a nice day.  *
