 Gaussian 16, Revision A.03,
 Gaussian 16:  ES64L-G16RevA.03 25-Dec-2016

 --------------------------------------
 #P UB3LYP/6-311++G(d,p) nosym opt freq
 --------------------------------------

 -------
 Radical
 -------
 Symbolic Z-matrix:
 Charge = -1 Multiplicity = 2

 SCF Done:  E(UB3LYP) =  -5639.50441438     A.U. after   20 cycles
 SCF Done:  E(UB3LYP) =  -5639.50442136     A.U. after   12 cycles
 SCF Done:  E(UB3LYP) =  -5639.50457554     A.U. after   16 cycles
 SCF Done:  E(UB3LYP) =  -5639.49980426     A.U. after   19 cycles
 SCF Done:  E(UB3LYP) =  -5639.50576011     A.U. after   16 cycles
 SCF Done:  E(UB3LYP) =  -5639.50546862     A.U. after   17 cycles
 SCF Done:  E(UB3LYP) =  -5639.50630020     A.U. after   15 cycles
 SCF Done:  E(UB3LYP) =  -5639.50636725     A.U. after   14 cycles
 SCF Done:  E(UB3LYP) =  -5639.50638168     A.U. after   13 cycles
 SCF Done:  E(UB3LYP) =  -5639.50638292     A.U. after   13 cycles
 SCF Done:  E(UB3LYP) =  -5639.50638327     A.U. after   11 cycles
 Optimization completed.
    -- Stationary point found.
 Normal termination of Gaussian 16 at Tue Jan 16 00:37:48 2024.

 ----------------------------------------------------------------------
 #P Geom=AllCheck Guess=TCheck SCRF=Check GenChk UB3LYP/6-311++G(d,p) F
 req
 ----------------------------------------------------------------------

 Structure from the checkpoint file:  "024-rad.chk"
 -------
 Radical
 -------
 Charge = -1 Multiplicity = 2

                          Input orientation:
 ---------------------------------------------------------------------
 Center     Atomic      Atomic             Coordinates (Angstroms)
 Number     Number       Type             X           Y           Z
 ---------------------------------------------------------------------
      1          6           0       -1.674941    0.816467    1.635549
      2          6           0       -2.857313    1.118871    0.806685
      3          6           0       -2.806142    1.007762   -0.566623
      4          6           0       -1.635321    0.632028   -1.300461
      5          6           0       -0.452776    0.329884   -0.471591
      6          6           0       -0.503997    0.441001    0.901738
      7          8           0       -1.540102    0.558891   -2.553796
      8          8           0       -1.770169    0.889095    2.888903
      9         35           0        1.086955    0.064178    1.937172
     10         35           0       -4.397112    1.384109   -1.602122
     11          7           0        0.649113   -0.088801   -1.190746
     12          7           0       -3.959530    1.538317    1.525850
     13          1           0        0.549253    0.116904   -2.178331
     14          1           0        1.552768    0.074025   -0.773419
     15          1           0       -3.859083    1.331092    2.513222
     16          1           0       -4.862872    1.370467    1.109594
 ---------------------------------------------------------------------

 SCF Done:  E(UB3LYP) =  -5639.50638327     A.U. after    1 cycles

 Alpha  occ. eigenvalues -- -482.70290-482.70287 -62.35566 -62.35563 -56.17578
 Alpha  occ. eigenvalues --  -56.17575 -56.17230 -56.17227 -56.17214 -56.17211
 Alpha  occ. eigenvalues --  -18.95061 -18.95059 -14.20135 -14.20125 -10.10491
 Alpha  occ. eigenvalues --  -10.10489 -10.09381 -10.09373 -10.08216 -10.08213
 Alpha  occ. eigenvalues --   -8.56526  -8.56523  -6.39591  -6.39588  -6.38424
 Alpha  occ. eigenvalues --   -6.38421  -6.38381  -6.38378  -2.50698  -2.50695
 Alpha  occ. eigenvalues --   -2.50367  -2.50364  -2.50336  -2.50333  -2.49408
 Alpha  occ. eigenvalues --   -2.49407  -2.49405  -2.49404  -0.88295  -0.87863
 Alpha  occ. eigenvalues --   -0.79874  -0.79807  -0.70536  -0.68144  -0.64498
 Alpha  occ. eigenvalues --   -0.57787  -0.55345  -0.47380  -0.46102  -0.43371
 Alpha  occ. eigenvalues --   -0.37037  -0.36948  -0.36329  -0.32303  -0.30708
 Alpha  occ. eigenvalues --   -0.28692  -0.28254  -0.27720  -0.26108  -0.24295
 Alpha  occ. eigenvalues --   -0.23404  -0.20014  -0.18358  -0.17579  -0.16850
 Alpha  occ. eigenvalues --   -0.16761  -0.12617  -0.12299  -0.11934  -0.08455
 Alpha  occ. eigenvalues --   -0.02507
 Alpha virt. eigenvalues --    0.08634   0.09293   0.10426   0.10899   0.12953
 Alpha virt. eigenvalues --    0.13201   0.13321   0.13859   0.14362   0.15038
 Alpha virt. eigenvalues --    0.15644   0.15657   0.15993   0.16879   0.17215

  Beta  occ. eigenvalues -- -482.70291-482.70288 -62.35566 -62.35563 -56.17579
  Beta  occ. eigenvalues --  -56.17576 -56.17231 -56.17228 -56.17214 -56.17211
  Beta  occ. eigenvalues --  -18.94468 -18.94466 -14.20019 -14.20010 -10.10313
  Beta  occ. eigenvalues --  -10.10312 -10.09133 -10.09125 -10.08280 -10.08277
  Beta  occ. eigenvalues --   -8.56527  -8.56524  -6.39592  -6.39589  -6.38425
  Beta  occ. eigenvalues --   -6.38422  -6.38382  -6.38379  -2.50699  -2.50696
  Beta  occ. eigenvalues --   -2.50368  -2.50366  -2.50337  -2.50334  -2.49409
  Beta  occ. eigenvalues --   -2.49408  -2.49406  -2.49405  -0.87335  -0.86853
  Beta  occ. eigenvalues --   -0.79478  -0.79444  -0.70278  -0.68103  -0.64234
  Beta  occ. eigenvalues --   -0.57477  -0.54448  -0.47037  -0.45741  -0.43223
  Beta  occ. eigenvalues --   -0.36807  -0.36778  -0.36000  -0.32074  -0.29317
  Beta  occ. eigenvalues --   -0.28335  -0.27821  -0.27339  -0.24275  -0.23568
  Beta  occ. eigenvalues --   -0.22845  -0.18167  -0.18019  -0.17016  -0.16833
  Beta  occ. eigenvalues --   -0.16506  -0.12051  -0.11375  -0.10368  -0.07852
  Beta virt. eigenvalues --    0.04384   0.08660   0.09297   0.10446   0.10904
  Beta virt. eigenvalues --    0.13188   0.13345   0.13864   0.13936   0.14868
  Beta virt. eigenvalues --    0.15053   0.15660   0.15671   0.16889   0.17221

 Mulliken charges and spin densities:
               1          2
     1  C   -0.754140   0.112454
     2  C   -1.037803   0.157302
     3  C    1.671424  -0.040718
     4  C   -0.755561   0.112602
     5  C   -1.043284   0.156659
     6  C    1.677407  -0.040584
     7  O   -0.394525   0.216809
     8  O   -0.394429   0.216671
     9  Br  -0.218451  -0.000996
    10  Br  -0.218363  -0.000985
    11  N   -0.241127   0.057248
    12  N   -0.241306   0.056992
    13  H    0.259668  -0.002305
    14  H    0.215462   0.000541
    15  H    0.259649  -0.002286
    16  H    0.215378   0.000595
 Sum of Mulliken charges =  -1.00000   1.00000

 Dipole moment (field-independent basis, Debye):
    X=              7.9570    Y=             -3.4876    Z=             -0.8084  Tot=              8.7253
 Quadrupole moment (field-independent basis, Debye-Ang):
   XX=           -116.0789   YY=           -106.5145   ZZ=           -132.0240
   XY=             11.1094   XZ=            -10.2004   YZ=             -1.7707

  Exact polarizability: 189.000 -28.341  93.595  13.885   2.484 193.811
 Approx polarizability: 260.782 -37.748 142.982  -2.120  14.895 349.618

                      1                      2                      3
                      A                      A                      A
 Frequencies --     59.1921               114.8220               133.2126
 Red. masses --     16.8149                 6.9063                 8.1464
 Frc consts  --      0.0347                 0.0536                 0.0852
 IR Inten    --      1.5415                10.3001                 0.0002

                      4                      5                      6
                      A                      A                      A
 Frequencies --    147.3609               184.4583               185.9871
 Red. masses --     16.5851                 6.8610                11.6901
 Frc consts  --      0.2122                 0.1375                 0.2383
 IR Inten    --      2.4707                 4.3955                 0.0001

                      7                      8                      9
                      A                      A                      A
 Frequencies --    198.5243               271.3238               290.8990
 Red. masses --     21.7849                 6.6979                 9.3586
 Frc consts  --      0.5059                 0.2905                 0.4666
 IR Inten    --      0.0000                 3.3406                 0.0001

                     10                     11                     12
                      A                      A                      A
 Frequencies --    354.0882               359.3633               383.1499
 Red. masses --      3.3946                 3.4348                 2.4142
 Frc consts  --      0.2508                 0.2614                 0.2088
 IR Inten    --      0.0005                25.2346                 0.0831

                     13                     14                     15
                      A                      A                      A
 Frequencies --    414.6999               426.9395               465.3777
 Red. masses --      1.4574                 8.1585                 1.7784
 Frc consts  --      0.1477                 0.8762                 0.2269
 IR Inten    --    140.6654                 0.0005                 0.0339

                     16                     17                     18
                      A                      A                      A
 Frequencies --    477.9707               529.4991               546.2107
 Red. masses --      4.0841                10.1145                 4.3289
 Frc consts  --      0.5497                 1.6708                 0.7609
 IR Inten    --     78.3508                 0.0001                18.5826

                     19                     20                     21
                      A                      A                      A
 Frequencies --    607.3612               613.1846               719.9431
 Red. masses --      1.4660                 1.3411                11.9499
 Frc consts  --      0.3186                 0.2971                 3.6493
 IR Inten    --    302.2295               101.8089                 5.9957

                     22                     23                     24
                      A                      A                      A
 Frequencies --    723.2560               725.0807               763.7581
 Red. masses --      4.3230                11.2392                 5.4620
 Frc consts  --      1.3323                 3.4814                 1.8772
 IR Inten    --      0.0159                 0.0065               172.4934

                     25                     26                     27
                      A                      A                      A
 Frequencies --    833.5265               961.1748              1123.8343
 Red. masses --     10.1435                 3.7403                 2.7469
 Frc consts  --      4.1522                 2.0359                 2.0441
 IR Inten    --      0.0004                24.7381                74.4640

                     28                     29                     30
                      A                      A                      A
 Frequencies --   1153.7793              1189.6693              1235.0343
 Red. masses --      1.6566                11.2038                 6.3004
 Frc consts  --      1.2993                 9.3426                 5.6621
 IR Inten    --      0.0044                27.0262                 0.0000

                     31                     32                     33
                      A                      A                      A
 Frequencies --   1325.1082              1398.7362              1512.8922
 Red. masses --      2.4965                 4.2433                 3.1041
 Frc consts  --      2.5827                 4.8913                 4.1861
 IR Inten    --     70.1945                 0.0004               251.3987

                     34                     35                     36
                      A                      A                      A
 Frequencies --   1541.9208              1543.1022              1565.3054
 Red. masses --     10.1615                 8.2500                 1.6550
 Frc consts  --     14.2342                11.5743                 2.3891
 IR Inten    --    785.7761                11.4765                 0.0029

                     37                     38                     39
                      A                      A                      A
 Frequencies --   1600.8897              1629.6413              3516.7879
 Red. masses --      1.5601                 3.3421                 1.0473
 Frc consts  --      2.3557                 5.2294                 7.6317
 IR Inten    --    102.0086                 0.0043                12.7229

                     40                     41                     42
                      A                      A                      A
 Frequencies --   3518.5012              3652.2673              3654.0880
 Red. masses --      1.0472                 1.0981                 1.0982
 Frc consts  --      7.6382                 8.6298                 8.6399
 IR Inten    --     23.5156                32.4869                30.8207

 - Thermochemistry -
 -------------------
 Temperature   298.150 Kelvin.  Pressure   1.00000 Atm.
 Atom     1 has atomic number  6 and mass  12.00000

 Molecular mass:   293.86395 amu.
 Principal axes and moments of inertia in atomic units:
                           1         2         3
     Eigenvalues --  1639.545156928.011478564.40899
           X            0.82507  -0.49529   0.27195
           Y           -0.20067   0.19307   0.96045
           Z            0.52820   0.84700  -0.05990
 This molecule is an asymmetric top.
 Rotational symmetry number  1.
 Warning -- assumption of classical behavior for rotation
           may cause significant error
 Rotational temperatures (Kelvin)      0.05283     0.01250     0.01011
 Rotational constants (GHZ):           1.10076     0.26050     0.21073
 Zero-point vibrational energy     255115.1 (Joules/Mol)
                                   60.97398 (Kcal/Mol)
 Warning -- explicit consideration of  20 degrees of freedom as
           vibrations may cause significant error
 Vibrational temperatures:     85.16   165.20   191.66   212.02   265.39
          (Kelvin)            267.59   285.63   390.37   418.54   509.45
                              517.04   551.27   596.66   614.27   669.57
                              687.69   761.83   785.88   873.86   882.24
                             1035.84  1040.60  1043.23  1098.88  1199.26
                             1382.92  1616.95  1660.03  1711.67  1776.94
                             1906.54  2012.47  2176.71  2218.48  2220.18
                             2252.13  2303.32  2344.69  5059.87  5062.34
                             5254.80  5257.42

 Zero-point correction=                           0.097168 (Hartree/Particle)
 Thermal correction to Energy=                    0.108902
 Thermal correction to Enthalpy=                  0.109846
 Thermal correction to Gibbs Free Energy=         0.057353
 Sum of electronic and zero-point Energies=          -5639.409215
 Sum of electronic and thermal Energies=             -5639.397481
 Sum of electronic and thermal Enthalpies=           -5639.396537
 Sum of electronic and thermal Free Energies=        -5639.449030

                     E (Thermal)             CV                S
                      KCal/Mol        Cal/Mol-Kelvin    Cal/Mol-Kelvin
 Total                   68.337             42.719            110.481
 Electronic               0.000              0.000              1.377
 Translational            0.889              2.981             42.931
 Rotational               0.889              2.981             32.942
 Vibrational             66.560             36.757             33.231
 Vibration     1          0.597              1.974              4.484
 Vibration     2          0.608              1.937              3.186
 Vibration     3          0.613              1.920              2.899
 Vibration     4          0.617              1.906              2.706
 Vibration     5          0.631              1.861              2.283
 Vibration     6          0.632              1.859              2.267
 Vibration     7          0.637              1.842              2.147
 Vibration     8          0.675              1.726              1.588
 Vibration     9          0.687              1.691              1.469
 Vibration    10          0.730              1.567              1.148
 Vibration    11          0.734              1.556              1.125
 Vibration    12          0.752              1.506              1.027
 Vibration    13          0.778              1.438              0.910
 Vibration    14          0.789              1.412              0.869
 Vibration    15          0.823              1.327              0.751
 Vibration    16          0.834              1.299              0.716
 Vibration    17          0.884              1.185              0.588
 Vibration    18          0.901              1.148              0.552
 Vibration    19          0.966              1.016              0.437
 Vibration    20          0.973              1.004              0.428

                           ! Non-Optimized Parameters !
 Normal termination of Gaussian 16 at Tue Jan 16 00:45:06 2024.
