 Q-Chem 5.4, Q-Chem, Inc., Pleasanton, CA (2021)
 Q-Chem 5.4.0 for Intel X86 EM64T Linux

User input:
--------------------------------------------------------------
$molecule
-1 2
C                 -1.6749410000      0.8164670000      1.6355490000
C                 -2.8573130000      1.1188710000      0.8066850000
C                 -2.8061420000      1.0077620000     -0.5666230000
C                 -1.6353210000      0.6320280000     -1.3004610000
C                 -0.4527760000      0.3298840000     -0.4715910000
C                 -0.5039970000      0.4410010000      0.9017380000
O                 -1.5401020000      0.5588910000     -2.5537960000
O                 -1.7701690000      0.8890950000      2.8889030000
Br                 1.0869550000      0.0641780000      1.9371720000
Br                -4.3971120000      1.3841090000     -1.6021220000
N                  0.6491130000     -0.0888010000     -1.1907460000
N                 -3.9595300000      1.5383170000      1.5258500000
H                  0.5492530000      0.1169040000     -2.1783310000
H                  1.5527680000      0.0740250000     -0.7734190000
H                 -3.8590830000      1.3310920000      2.5132220000
H                 -4.8628720000      1.3704670000      1.1095940000
$end
$rem
MAX_SCF_CYCLES=200
BASIS  =  6-311++G(d,p)
GUI  =  2
JOB_TYPE  =  SP
METHOD  =  B3LYP
SOLVENT_METHOD = PCM
$end
$pcm
theory = CPCM
$end
$solvent
dielectric 37.219
opticaldielectric 1.43
$end

--------------------------------------------------------------

             Standard Nuclear Orientation (Angstroms)
    I     Atom           X                Y                Z
 ----------------------------------------------------------------
    1      C      -1.6749410000     0.8164670000     1.6355490000
    2      C      -2.8573130000     1.1188710000     0.8066850000
    3      C      -2.8061420000     1.0077620000    -0.5666230000
    4      C      -1.6353210000     0.6320280000    -1.3004610000
    5      C      -0.4527760000     0.3298840000    -0.4715910000
    6      C      -0.5039970000     0.4410010000     0.9017380000
    7      O      -1.5401020000     0.5588910000    -2.5537960000
    8      O      -1.7701690000     0.8890950000     2.8889030000
    9      Br      1.0869550000     0.0641780000     1.9371720000
   10      Br     -4.3971120000     1.3841090000    -1.6021220000
   11      N       0.6491130000    -0.0888010000    -1.1907460000
   12      N      -3.9595300000     1.5383170000     1.5258500000
   13      H       0.5492530000     0.1169040000    -2.1783310000
   14      H       1.5527680000     0.0740250000    -0.7734190000
   15      H      -3.8590830000     1.3310920000     2.5132220000
   16      H      -4.8628720000     1.3704670000     1.1095940000
 ----------------------------------------------------------------

    8   -5639.5860253337      6.93e-06  Convergence criterion met
 Total energy in the final basis set =    -5639.5860253337

                    Orbital Energies (a.u.)
 --------------------------------------------------------------

 Alpha MOs
 -- Occupied --
********-482.8267 -62.4795 -62.4795 -56.2998 -56.2998 -56.2962 -56.2962
-56.2961 -56.2961 -19.0847 -19.0847 -14.3213 -14.3212 -10.2369 -10.2369
-10.2217 -10.2217 -10.2084 -10.2084  -8.6881  -8.6881  -6.5190  -6.5190
 -6.5069  -6.5069  -6.5066  -6.5066  -2.6302  -2.6302  -2.6264  -2.6264
 -2.6262  -2.6262  -2.6167  -2.6167  -2.6167  -2.6167  -1.0170  -1.0132
 -0.9220  -0.9200  -0.8313  -0.8063  -0.7703  -0.7025  -0.6825  -0.5971
 -0.5875  -0.5566  -0.4921  -0.4917  -0.4882  -0.4480  -0.4378  -0.4215
 -0.4151  -0.4035  -0.3942  -0.3712  -0.3609  -0.3307  -0.3080  -0.3011
 -0.2928  -0.2926  -0.2623  -0.2539  -0.2509  -0.2106  -0.1567

 Beta MOs
 -- Occupied --
********-482.8267 -62.4795 -62.4795 -56.2998 -56.2998 -56.2962 -56.2962
-56.2961 -56.2961 -19.0796 -19.0796 -14.3198 -14.3197 -10.2347 -10.2347
-10.2193 -10.2192 -10.2092 -10.2092  -8.6881  -8.6881  -6.5190  -6.5190
 -6.5069  -6.5069  -6.5066  -6.5066  -2.6302  -2.6302  -2.6265  -2.6265
 -2.6262  -2.6262  -2.6168  -2.6168  -2.6167  -2.6167  -1.0082  -1.0041
 -0.9175  -0.9163  -0.8286  -0.8059  -0.7677  -0.6993  -0.6733  -0.5935
 -0.5835  -0.5549  -0.4894  -0.4892  -0.4857  -0.4454  -0.4235  -0.4156
 -0.4112  -0.4027  -0.3724  -0.3665  -0.3560  -0.3113  -0.3052  -0.2955
 -0.2927  -0.2907  -0.2574  -0.2492  -0.2336  -0.2046

          Ground-State Mulliken Net Atomic Charges

     Atom                 Charge (a.u.)    Spin (a.u.)
  --------------------------------------------------------
      1 C                    -0.722118       0.137692
      2 C                    -1.396922       0.143736
      3 C                     1.997601      -0.042081
      4 C                    -0.722924       0.137936
      5 C                    -1.403320       0.142978
      6 C                     2.004276      -0.041926
      7 O                    -0.489365       0.189589
      8 O                    -0.489314       0.189398
      9 Br                   -0.159312      -0.000184
     10 Br                   -0.159389      -0.000168
     11 N                    -0.296785       0.074075
     12 N                    -0.297176       0.073686
     13 H                     0.294150      -0.002270
     14 H                     0.273333      -0.000138
     15 H                     0.294059      -0.002244
     16 H                     0.273206      -0.000080
  --------------------------------------------------------
  Sum of atomic charges =    -1.000000

                    Cartesian Multipole Moments
 -----------------------------------------------------------------
    Charge (ESU x 10^10)
                -4.8032
    Dipole Moment (Debye)
         X       7.9602      Y      -3.4918      Z      -0.8105
       Tot       8.7301
    Quadrupole Moments (Debye-Ang)
        XX    -106.2735     XY       9.8634     YY    -106.3388
        XZ     -11.2085     YZ      -2.1653     ZZ    -135.3128

 Total job time:  24.61s(wall), 157.74s(cpu)
        *  Thank you very much for using Q-Chem.  Have a nice day.  *
