 Q-Chem 5.4, Q-Chem, Inc., Pleasanton, CA (2021)
 Q-Chem 5.4.0 for Intel X86 EM64T Linux

User input:
--------------------------------------------------------------
$molecule
0 1
N                 -4.4684380000     -0.0113400000     -0.0297130000
C                 -3.1336450000     -0.3722050000      0.1757380000
C                 -2.7738870000     -1.5263320000      0.8588480000
C                 -1.4347990000     -1.8500250000      1.0612440000
C                 -0.4303670000     -1.0251940000      0.5733770000
C                  0.9778050000     -1.4355570000      0.8005130000
O                  1.2608130000     -2.4757320000      1.3798360000
C                  2.0471240000     -0.5250820000      0.3016530000
C                  3.3879480000     -0.8720220000      0.4939820000
C                  4.3982080000     -0.0323310000      0.0415850000
C                  4.0763320000      1.1629830000     -0.6082130000
C                  2.7463890000      1.5140910000     -0.8041960000
C                  1.7225520000      0.6742960000     -0.3514710000
C                  0.3045450000      1.0765860000     -0.5853230000
O                  0.0682120000      2.1406360000     -1.1651130000
C                 -0.7624290000      0.1775330000     -0.1109410000
C                 -2.1240840000      0.5205560000     -0.2919570000
N                 -2.5389820000      1.6583660000     -0.9457980000
H                 -4.6658450000      0.3565710000     -0.9532210000
H                 -5.1376840000     -0.7219550000      0.2314230000
H                 -3.5520540000     -2.1927240000      1.2179170000
H                 -1.1536420000     -2.7558590000      1.5823230000
H                  3.6105750000     -1.8026090000      1.0011790000
H                  5.4367370000     -0.3044990000      0.1929770000
H                  4.8652690000      1.8176890000     -0.9609650000
H                  2.4754780000      2.4339670000     -1.3067010000
H                 -1.7951460000      2.3087060000     -1.1774350000
H                 -3.4069860000      2.0614850000     -0.6215470000
$end

$rem
BASIS  =  6-311++G(d,p)
GUI  =  2
JOB_TYPE  =  SP
METHOD  =  B3LYP
SCF_CONVERGENCE  = 8
SOLVENT_METHOD = sm12
$end

$smx
solvent dimethylformamide
charges CM5
$end

--------------------------------------------------------------

             Standard Nuclear Orientation (Angstroms)
    I     Atom           X                Y                Z
 ----------------------------------------------------------------
    1      N      -4.4684380000    -0.0113400000    -0.0297130000
    2      C      -3.1336450000    -0.3722050000     0.1757380000
    3      C      -2.7738870000    -1.5263320000     0.8588480000
    4      C      -1.4347990000    -1.8500250000     1.0612440000
    5      C      -0.4303670000    -1.0251940000     0.5733770000
    6      C       0.9778050000    -1.4355570000     0.8005130000
    7      O       1.2608130000    -2.4757320000     1.3798360000
    8      C       2.0471240000    -0.5250820000     0.3016530000
    9      C       3.3879480000    -0.8720220000     0.4939820000
   10      C       4.3982080000    -0.0323310000     0.0415850000
   11      C       4.0763320000     1.1629830000    -0.6082130000
   12      C       2.7463890000     1.5140910000    -0.8041960000
   13      C       1.7225520000     0.6742960000    -0.3514710000
   14      C       0.3045450000     1.0765860000    -0.5853230000
   15      O       0.0682120000     2.1406360000    -1.1651130000
   16      C      -0.7624290000     0.1775330000    -0.1109410000
   17      C      -2.1240840000     0.5205560000    -0.2919570000
   18      N      -2.5389820000     1.6583660000    -0.9457980000
   19      H      -4.6658450000     0.3565710000    -0.9532210000
   20      H      -5.1376840000    -0.7219550000     0.2314230000
   21      H      -3.5520540000    -2.1927240000     1.2179170000
   22      H      -1.1536420000    -2.7558590000     1.5823230000
   23      H       3.6105750000    -1.8026090000     1.0011790000
   24      H       5.4367370000    -0.3044990000     0.1929770000
   25      H       4.8652690000     1.8176890000    -0.9609650000
   26      H       2.4754780000     2.4339670000    -1.3067010000
   27      H      -1.7951460000     2.3087060000    -1.1774350000
   28      H      -3.4069860000     2.0614850000    -0.6215470000
 ----------------------------------------------------------------

   15    -799.7123297747      4.79e-09  Convergence criterion met
 Total energy in the final basis set =     -799.7408925479

                    Orbital Energies (a.u.)
 --------------------------------------------------------------

 Alpha MOs
 -- Occupied --
-19.1228 -19.1139 -14.3297 -14.3290 -10.2763 -10.2685 -10.2401 -10.2330
-10.2037 -10.2020 -10.1996 -10.1947 -10.1941 -10.1930 -10.1927 -10.1924
-10.1879 -10.1857  -1.0567  -1.0489  -0.9572  -0.9074  -0.8850  -0.8589
 -0.8005  -0.7736  -0.7597  -0.7470  -0.6826  -0.6606  -0.6446  -0.6115
 -0.5864  -0.5705  -0.5564  -0.5301  -0.5112  -0.5023  -0.4940  -0.4839
 -0.4706  -0.4631  -0.4506  -0.4470  -0.4449  -0.4420  -0.4261  -0.4138
 -0.4077  -0.3980  -0.3829  -0.3754  -0.3713  -0.3629  -0.3323  -0.3223
 -0.2809  -0.2793  -0.2742  -0.2659  -0.2527  -0.2134

          Ground-State Mulliken Net Atomic Charges

     Atom                 Charge (a.u.)
  ----------------------------------------
      1 N                    -0.186119
      2 C                     1.596345
      3 C                     1.094808
      4 C                    -0.155827
      5 C                    -0.505971
      6 C                    -1.843704
      7 O                    -0.290939
      8 C                    -1.118533
      9 C                    -0.050038
     10 C                     0.400349
     11 C                     0.393376
     12 C                     0.320184
     13 C                    -0.029391
     14 C                    -1.385376
     15 O                    -0.238462
     16 C                    -0.567706
     17 C                     0.068556
     18 N                    -0.376464
     19 H                     0.350773
     20 H                     0.401665
     21 H                     0.317683
     22 H                     0.144313
     23 H                     0.174860
     24 H                     0.320846
     25 H                     0.329778
     26 H                     0.195856
     27 H                     0.259536
     28 H                     0.379602
  ----------------------------------------
  Sum of atomic charges =     0.000000

                    Cartesian Multipole Moments
 -----------------------------------------------------------------
    Charge (ESU x 10^10)
                 0.0000
    Dipole Moment (Debye)
         X      -4.3053      Y       1.3680      Z      -1.0717
       Tot       4.6428
    Quadrupole Moments (Debye-Ang)
        XX     -60.4235     XY       7.6961     YY    -109.6738
        XZ      -0.8503     YZ       2.2279     ZZ    -109.9551

 Total job time:  596.63s(wall), 4674.21s(cpu)
        *  Thank you very much for using Q-Chem.  Have a nice day.  *
