 Q-Chem 5.4, Q-Chem, Inc., Pleasanton, CA (2021)
 Q-Chem 5.4.0 for Intel X86 EM64T Linux

User input:
--------------------------------------------------------------
$molecule
-2 1
Br                -1.6318400000      2.7103350000      1.0572520000
C                 -0.7019160000      1.1321790000      0.3168440000
C                 -1.4354630000      0.0849210000     -0.2620900000
C                 -0.7406460000     -0.9475960000     -1.0374030000
O                 -1.3569590000     -1.8524960000     -1.6906570000
C                  0.6833050000     -0.8388920000     -0.9555310000
C                  1.4191400000      0.1728560000     -0.3190680000
C                  0.7182180000      1.3035250000      0.2973410000
O                  1.3278130000      2.3136660000      0.7804540000
C                  2.8910130000      0.1546230000     -0.1846290000
C                  3.6621240000      1.3172990000     -0.3927440000
C                  5.0462590000      1.3071720000     -0.2383150000
C                  5.7160070000      0.1447760000      0.1544420000
C                  4.9663670000     -1.0100150000      0.3911560000
C                  3.5834840000     -1.0020790000      0.2259370000
Br                 1.5980050000     -2.1739440000     -2.0889860000
C                 -2.8958910000     -0.0786630000     -0.1029310000
C                 -3.7174030000     -0.4401420000     -1.1911280000
C                 -5.0893370000     -0.6226090000     -1.0352610000
C                 -5.6949600000     -0.4771870000      0.2161600000
C                 -4.8935200000     -0.1454950000      1.3112430000
C                 -3.5233710000      0.0475540000      1.1525950000
H                  3.1463140000      2.2305690000     -0.6525440000
H                  5.6082840000      2.2210560000     -0.4173240000
H                  6.7954740000      0.1415920000      0.2824560000
H                  5.4607210000     -1.9237440000      0.7126650000
H                  3.0187790000     -1.9042920000      0.4230020000
H                 -3.2491150000     -0.5985090000     -2.1519810000
H                 -5.6919670000     -0.8914840000     -1.8999240000
H                 -6.7646340000     -0.6284070000      0.3369160000
H                 -5.3368440000     -0.0414960000      2.2988160000
H                 -2.9174400000      0.2949240000      2.0147840000
$end

$rem
BASIS  =  6-311++G(d,p)
GUI  =  2
JOB_TYPE  =  SP
METHOD  =  B3LYP
SCF_CONVERGENCE  = 8
SOLVENT_METHOD = sm12
$end

$smx
solvent dimethylformamide
charges CM5
$end

--------------------------------------------------------------

             Standard Nuclear Orientation (Angstroms)
    I     Atom           X                Y                Z
 ----------------------------------------------------------------
    1      Br     -1.6318400000     2.7103350000     1.0572520000
    2      C      -0.7019160000     1.1321790000     0.3168440000
    3      C      -1.4354630000     0.0849210000    -0.2620900000
    4      C      -0.7406460000    -0.9475960000    -1.0374030000
    5      O      -1.3569590000    -1.8524960000    -1.6906570000
    6      C       0.6833050000    -0.8388920000    -0.9555310000
    7      C       1.4191400000     0.1728560000    -0.3190680000
    8      C       0.7182180000     1.3035250000     0.2973410000
    9      O       1.3278130000     2.3136660000     0.7804540000
   10      C       2.8910130000     0.1546230000    -0.1846290000
   11      C       3.6621240000     1.3172990000    -0.3927440000
   12      C       5.0462590000     1.3071720000    -0.2383150000
   13      C       5.7160070000     0.1447760000     0.1544420000
   14      C       4.9663670000    -1.0100150000     0.3911560000
   15      C       3.5834840000    -1.0020790000     0.2259370000
   16      Br      1.5980050000    -2.1739440000    -2.0889860000
   17      C      -2.8958910000    -0.0786630000    -0.1029310000
   18      C      -3.7174030000    -0.4401420000    -1.1911280000
   19      C      -5.0893370000    -0.6226090000    -1.0352610000
   20      C      -5.6949600000    -0.4771870000     0.2161600000
   21      C      -4.8935200000    -0.1454950000     1.3112430000
   22      C      -3.5233710000     0.0475540000     1.1525950000
   23      H       3.1463140000     2.2305690000    -0.6525440000
   24      H       5.6082840000     2.2210560000    -0.4173240000
   25      H       6.7954740000     0.1415920000     0.2824560000
   26      H       5.4607210000    -1.9237440000     0.7126650000
   27      H       3.0187790000    -1.9042920000     0.4230020000
   28      H      -3.2491150000    -0.5985090000    -2.1519810000
   29      H      -5.6919670000    -0.8914840000    -1.8999240000
   30      H      -6.7646340000    -0.6284070000     0.3369160000
   31      H      -5.3368440000    -0.0414960000     2.2988160000
   32      H      -2.9174400000     0.2949240000     2.0147840000
 ----------------------------------------------------------------

   17   -5990.8768600046      5.91e-09  Convergence criterion met
 Total energy in the final basis set =    -5991.1308391615

                    Orbital Energies (a.u.)
 --------------------------------------------------------------

 Alpha MOs
 -- Occupied --
********-482.7946 -62.4470 -62.4470 -56.2673 -56.2673 -56.2640 -56.2639
-56.2636 -56.2636 -19.0180 -19.0179 -10.1910 -10.1910 -10.1840 -10.1839
-10.1815 -10.1815 -10.1780 -10.1780 -10.1775 -10.1774 -10.1766 -10.1766
-10.1722 -10.1722 -10.1682 -10.1682 -10.1571 -10.1571  -8.6554  -8.6554
 -6.4858  -6.4858  -6.4747  -6.4747  -6.4736  -6.4736  -2.5969  -2.5968
 -2.5939  -2.5938  -2.5931  -2.5929  -2.5842  -2.5842  -2.5842  -2.5841
 -0.9465  -0.9430  -0.8574  -0.8573  -0.8135  -0.7899  -0.7547  -0.7529
 -0.7461  -0.7460  -0.7319  -0.6847  -0.6451  -0.6245  -0.6054  -0.6051
 -0.5898  -0.5565  -0.5247  -0.5185  -0.5023  -0.4732  -0.4600  -0.4593
 -0.4504  -0.4371  -0.4268  -0.4218  -0.4207  -0.4203  -0.3851  -0.3745
 -0.3744  -0.3649  -0.3632  -0.3589  -0.3511  -0.3437  -0.3432  -0.3393
 -0.3260  -0.3252  -0.2939  -0.2720  -0.2695  -0.2667  -0.2563  -0.2542
 -0.2476  -0.2439  -0.2197  -0.2024  -0.1973  -0.1932  -0.1234

          Ground-State Mulliken Net Atomic Charges

     Atom                 Charge (a.u.)
  ----------------------------------------
      1 Br                    0.159011
      2 C                    -0.746581
      3 C                     0.195346
      4 C                    -2.890936
      5 O                    -0.272769
      6 C                    -0.742471
      7 C                     0.193745
      8 C                    -2.896662
      9 O                    -0.273023
     10 C                     0.371317
     11 C                    -0.858128
     12 C                     0.815735
     13 C                     1.461355
     14 C                     0.599227
     15 C                    -1.101410
     16 Br                    0.158896
     17 C                     0.375231
     18 C                    -0.851030
     19 C                     0.817006
     20 C                     1.464436
     21 C                     0.594188
     22 C                    -1.097540
     23 H                     0.080848
     24 H                     0.321391
     25 H                     0.396861
     26 H                     0.342886
     27 H                     0.120092
     28 H                     0.081224
     29 H                     0.321633
     30 H                     0.396961
     31 H                     0.342605
     32 H                     0.120557
  ----------------------------------------
  Sum of atomic charges =    -2.000000

                    Cartesian Multipole Moments
 -----------------------------------------------------------------
    Charge (ESU x 10^10)
                -9.6064
    Dipole Moment (Debye)
         X       0.1051      Y      -1.7314      Z       3.5931
       Tot       3.9899
    Quadrupole Moments (Debye-Ang)
        XX    -215.5918     XY      -5.8117     YY    -203.8081
        XZ      -1.6219     YZ     -23.7270     ZZ    -180.0565

 Total job time:  1216.52s(wall), 9457.24s(cpu)
        *  Thank you very much for using Q-Chem.  Have a nice day.  *
