 Gaussian 16, Revision A.03,
 Gaussian 16:  ES64L-G16RevA.03 25-Dec-2016

 --------------------------------------
 #P UB3LYP/6-311++G(d,p) nosym opt freq
 --------------------------------------

 -------
 Radical
 -------
 Symbolic Z-matrix:
 Charge = -3 Multiplicity = 2

 SCF Done:  E(UB3LYP) =  -1935.50034453     A.U. after   26 cycles
 SCF Done:  E(UB3LYP) =  -1935.54581978     A.U. after   20 cycles
 SCF Done:  E(UB3LYP) =  -1935.56972804     A.U. after   19 cycles
 SCF Done:  E(UB3LYP) =  -1935.57246961     A.U. after   18 cycles
 SCF Done:  E(UB3LYP) =  -1935.57260793     A.U. after   17 cycles
 SCF Done:  E(UB3LYP) =  -1935.57265693     A.U. after   16 cycles
 SCF Done:  E(UB3LYP) =  -1935.57270426     A.U. after   16 cycles
 SCF Done:  E(UB3LYP) =  -1935.57275347     A.U. after   16 cycles
 SCF Done:  E(UB3LYP) =  -1935.57281488     A.U. after   19 cycles
 SCF Done:  E(UB3LYP) =  -1935.57283115     A.U. after   14 cycles
 SCF Done:  E(UB3LYP) =  -1935.57310047     A.U. after   13 cycles
 SCF Done:  E(UB3LYP) =  -1935.57310108     A.U. after   13 cycles
 SCF Done:  E(UB3LYP) =  -1935.57310112     A.U. after   11 cycles
 SCF Done:  E(UB3LYP) =  -1935.57310116     A.U. after   11 cycles
 SCF Done:  E(UB3LYP) =  -1935.57310122     A.U. after   11 cycles
 SCF Done:  E(UB3LYP) =  -1935.57310131     A.U. after   10 cycles
 SCF Done:  E(UB3LYP) =  -1935.57310141     A.U. after   10 cycles
 SCF Done:  E(UB3LYP) =  -1935.57310150     A.U. after   10 cycles
 SCF Done:  E(UB3LYP) =  -1935.57310156     A.U. after   10 cycles
 Optimization completed.
    -- Stationary point found.
 Normal termination of Gaussian 16 at Fri Dec 22 03:14:03 2023.

 ----------------------------------------------------------------------
 #P Geom=AllCheck Guess=TCheck SCRF=Check GenChk UB3LYP/6-311++G(d,p) F
 req
 ----------------------------------------------------------------------

 Structure from the checkpoint file:  "226-rad.chk"
 -------
 Radical
 -------
 Charge = -3 Multiplicity = 2

                          Input orientation:
 ---------------------------------------------------------------------
 Center     Atomic      Atomic             Coordinates (Angstroms)
 Number     Number       Type             X           Y           Z
 ---------------------------------------------------------------------
      1          8           0       -6.035743    0.338683   -1.229860
      2         16           0       -5.411376    0.580290    0.107900
      3          8           0       -5.290675    2.022758    0.455400
      4          8           0       -6.045056   -0.242166    1.184795
      5          6           0       -3.706041   -0.059927   -0.039844
      6          6           0       -3.540144   -1.423874   -0.374709
      7          6           0       -2.274682   -1.953485   -0.496593
      8          6           0       -1.115949   -1.164586   -0.294394
      9          6           0        0.202035   -1.779006   -0.436888
     10          8           0        0.341025   -3.002432   -0.737252
     11          6           0        1.350878   -0.904217   -0.213719
     12          6           0        2.659217   -1.432781   -0.335238
     13          6           0        3.775872   -0.651822   -0.135453
     14          6           0        3.631709    0.714387    0.200148
     15          6           0        2.369236    1.259349    0.326022
     16          6           0        1.204574    0.473270    0.124644
     17          6           0       -0.123970    1.091227    0.267967
     18          8           0       -0.261490    2.301994    0.565321
     19          6           0       -1.282303    0.210797    0.043273
     20          6           0       -2.595781    0.735380    0.163652
     21         16           0        5.152960    1.695518    0.451545
     22          8           0        5.893194    1.606525   -0.845338
     23          8           0        4.711999    3.076391    0.790297
     24          8           0        5.879199    1.010595    1.565620
     25          1           0       -4.419167   -2.038903   -0.532619
     26          1           0       -2.124656   -2.996817   -0.752690
     27          1           0        2.746836   -2.482728   -0.593252
     28          1           0        4.772130   -1.069098   -0.231568
     29          1           0        2.250081    2.304254    0.582652
     30          1           0       -2.713909    1.780425    0.420183
 ---------------------------------------------------------------------

 SCF Done:  E(UB3LYP) =  -1935.57310156     A.U. after    2 cycles

 Alpha  occ. eigenvalues --  -88.73894 -88.73893 -18.78773 -18.78633 -18.78312
 Alpha  occ. eigenvalues --  -18.78312 -18.78229 -18.78229 -18.78228 -18.78227
 Alpha  occ. eigenvalues --   -9.93801  -9.93590  -9.90286  -9.90285  -9.89421
 Alpha  occ. eigenvalues --   -9.89421  -9.88983  -9.88982  -9.88930  -9.88929
 Alpha  occ. eigenvalues --   -9.88854  -9.88853  -9.88662  -9.88661  -7.79748
 Alpha  occ. eigenvalues --   -7.79748  -5.76018  -5.76017  -5.76009  -5.76009
 Alpha  occ. eigenvalues --   -5.75935  -5.75935  -0.79754  -0.79753  -0.71237
 Alpha  occ. eigenvalues --   -0.70820  -0.66287  -0.66287  -0.65889  -0.65888
 Alpha  occ. eigenvalues --   -0.57723  -0.56850  -0.50369  -0.46857  -0.46773
 Alpha  occ. eigenvalues --   -0.45923  -0.38716  -0.36494  -0.34827  -0.31199
 Alpha  occ. eigenvalues --   -0.29887  -0.28165  -0.27052  -0.23076  -0.22875
 Alpha  occ. eigenvalues --   -0.19339  -0.18592  -0.18347  -0.17380  -0.14656
 Alpha  occ. eigenvalues --   -0.14515  -0.14491  -0.14405  -0.14258  -0.13862
 Alpha  occ. eigenvalues --   -0.13269  -0.13136  -0.12589  -0.11824  -0.10817
 Alpha  occ. eigenvalues --   -0.08951  -0.08665  -0.08458  -0.06346  -0.05862
 Alpha  occ. eigenvalues --   -0.05150  -0.02434  -0.02434  -0.02410  -0.02371
 Alpha  occ. eigenvalues --    0.00027   0.00119   0.01212   0.01297   0.01390
 Alpha  occ. eigenvalues --    0.01422   0.02604   0.02712   0.03667   0.04326
 Alpha  occ. eigenvalues --    0.04751   0.05315   0.05455   0.05459   0.14452
 Alpha virt. eigenvalues --    0.23091   0.23178   0.23642   0.25650   0.25677
 Alpha virt. eigenvalues --    0.27031   0.27058   0.27926   0.28720   0.29759
 Alpha virt. eigenvalues --    0.30124   0.30746   0.30995   0.31188   0.31449

  Beta  occ. eigenvalues --  -88.73895 -88.73895 -18.78310 -18.78310 -18.78224
  Beta  occ. eigenvalues --  -18.78224 -18.78223 -18.78223 -18.78186 -18.78063
  Beta  occ. eigenvalues --   -9.93690  -9.93397  -9.90208  -9.90207  -9.89396
  Beta  occ. eigenvalues --   -9.89396  -9.88970  -9.88969  -9.88833  -9.88831
  Beta  occ. eigenvalues --   -9.88781  -9.88781  -9.88685  -9.88685  -7.79750
  Beta  occ. eigenvalues --   -7.79750  -5.76018  -5.76018  -5.76010  -5.76010
  Beta  occ. eigenvalues --   -5.75938  -5.75938  -0.79748  -0.79747  -0.70256
  Beta  occ. eigenvalues --   -0.69777  -0.66281  -0.66281  -0.65879  -0.65878
  Beta  occ. eigenvalues --   -0.57466  -0.56738  -0.49967  -0.46646  -0.46609
  Beta  occ. eigenvalues --   -0.45750  -0.38061  -0.36285  -0.34649  -0.31101
  Beta  occ. eigenvalues --   -0.29755  -0.28079  -0.26799  -0.22968  -0.22699
  Beta  occ. eigenvalues --   -0.19220  -0.18379  -0.18268  -0.17289  -0.14608
  Beta  occ. eigenvalues --   -0.14418  -0.14409  -0.14374  -0.14217  -0.13827
  Beta  occ. eigenvalues --   -0.12949  -0.12507  -0.12087  -0.11369  -0.10492
  Beta  occ. eigenvalues --   -0.08535  -0.08151  -0.06615  -0.06281  -0.04961
  Beta  occ. eigenvalues --   -0.04839  -0.02421  -0.02420  -0.02395  -0.02324
  Beta  occ. eigenvalues --    0.00203   0.00963   0.01251   0.01315   0.01410
  Beta  occ. eigenvalues --    0.01482   0.03042   0.03942   0.04862   0.04871
  Beta  occ. eigenvalues --    0.05167   0.05473   0.05481   0.05836
  Beta virt. eigenvalues --    0.20345   0.23081   0.23630   0.24012   0.25639
  Beta virt. eigenvalues --    0.26702   0.27011   0.27064   0.28119   0.28715
  Beta virt. eigenvalues --    0.29767   0.30233   0.30742   0.31005   0.31205

 Mulliken charges and spin densities:
               1          2
     1  O   -0.335712   0.000622
     2  S    0.733293  -0.001713
     3  O   -0.359108   0.000611
     4  O   -0.334155   0.000649
     5  C   -1.038302   0.045100
     6  C   -0.506715   0.022766
     7  C   -0.262604   0.043326
     8  C    0.732075   0.025960
     9  C   -0.651325   0.102724
    10  O   -0.403639   0.219506
    11  C    0.732044   0.025943
    12  C   -0.262627   0.043334
    13  C   -0.506882   0.022754
    14  C   -1.038155   0.045094
    15  C    0.069952  -0.003850
    16  C    0.519891   0.078518
    17  C   -1.044523   0.051444
    18  O   -0.354191   0.212513
    19  C    0.519860   0.078524
    20  C    0.069994  -0.003851
    21  S    0.733261  -0.001711
    22  O   -0.334841   0.000637
    23  O   -0.359132   0.000610
    24  O   -0.335030   0.000633
    25  H    0.157325  -0.002158
    26  H    0.127167  -0.002569
    27  H    0.127180  -0.002571
    28  H    0.157332  -0.002158
    29  H    0.223781  -0.000343
    30  H    0.223787  -0.000343
 Sum of Mulliken charges =  -3.00000   1.00000

 Dipole moment (field-independent basis, Debye):
    X=              1.1806    Y=            -10.3992    Z=             -2.5581  Tot=             10.7741
 Quadrupole moment (field-independent basis, Debye-Ang):
   XX=           -515.1561   YY=           -227.2407   ZZ=           -182.1175
   XY=            -30.3757   XZ=             -9.6644   YZ=            -12.0631

  Exact polarizability: 466.685  19.844 271.847   6.953  29.652 159.400
 Approx polarizability: 602.940   8.803 501.376   4.505  62.210 264.438

                      1                      2                      3
                      A                      A                      A
 Frequencies --     11.7993                12.2370                32.8802
 Red. masses --     15.5022                14.6880                11.3979
 Frc consts  --      0.0013                 0.0013                 0.0073
 IR Inten    --      0.1453                 1.1383                 0.3485

                      4                      5                      6
                      A                      A                      A
 Frequencies --     58.0021                74.5545                91.3410
 Red. masses --      7.0653                14.7354                10.1716
 Frc consts  --      0.0140                 0.0483                 0.0500
 IR Inten    --      0.0000                 2.1223                10.3729

                      7                      8                      9
                      A                      A                      A
 Frequencies --    130.8215               140.7573               152.2077
 Red. masses --     11.0896                 5.4271                 5.8981
 Frc consts  --      0.1118                 0.0634                 0.0805
 IR Inten    --      0.1905                 0.0000                 0.8878

                     10                     11                     12
                      A                      A                      A
 Frequencies --    176.2168               178.1256               222.3253
 Red. masses --     12.4858                15.9452                 9.8641
 Frc consts  --      0.2284                 0.2981                 0.2873
 IR Inten    --      2.8444                 0.3762                 2.2100

                     13                     14                     15
                      A                      A                      A
 Frequencies --    226.5921               240.1057               268.1165
 Red. masses --      8.1775                13.1841                13.4912
 Frc consts  --      0.2474                 0.4478                 0.5714
 IR Inten    --      0.0003                 7.0875                 0.0542

                     16                     17                     18
                      A                      A                      A
 Frequencies --    317.4241               341.1965               373.8644
 Red. masses --      8.1313                 6.8798                 7.3950
 Frc consts  --      0.4827                 0.4719                 0.6090
 IR Inten    --      0.9009                 0.0001                14.7463

                     19                     20                     21
                      A                      A                      A
 Frequencies --    376.9876               390.5389               419.9644
 Red. masses --      7.6915                10.7803                 3.6482
 Frc consts  --      0.6440                 0.9687                 0.3791
 IR Inten    --      0.0940                17.2572                 0.6045

                     22                     23                     24
                      A                      A                      A
 Frequencies --    434.1553               451.3071               462.0142
 Red. masses --      8.2865                 9.2149                 3.4887
 Frc consts  --      0.9203                 1.1058                 0.4388
 IR Inten    --      0.9621                 2.3249                 0.0012

                     25                     26                     27
                      A                      A                      A
 Frequencies --    467.1070               489.1282               501.5447
 Red. masses --      8.6177                 9.1156                10.5674
 Frc consts  --      1.1078                 1.2849                 1.5662
 IR Inten    --     48.3803                 0.0001                 2.0619

                     28                     29                     30
                      A                      A                      A
 Frequencies --    517.9755               524.1021               525.2259
 Red. masses --     15.1424                13.0409                11.1987
 Frc consts  --      2.3937                 2.1105                 1.8202
 IR Inten    --      8.2744                 0.2710                39.8071

                     31                     32                     33
                      A                      A                      A
 Frequencies --    577.3311               609.3399               610.1127
 Red. masses --      6.5776                14.5288                11.7835
 Frc consts  --      1.2917                 3.1783                 2.5843
 IR Inten    --      0.0004               370.0162                89.7597

                     34                     35                     36
                      A                      A                      A
 Frequencies --    649.6367               656.2416               676.8614
 Red. masses --      4.0089                 7.8381                 8.1147
 Frc consts  --      0.9968                 1.9888                 2.1904
 IR Inten    --     28.7250                51.4161                 0.0309

                     37                     38                     39
                      A                      A                      A
 Frequencies --    702.7372               717.2782               722.3232
 Red. masses --      6.8631                 5.6842                 8.4375
 Frc consts  --      1.9969                 1.7230                 2.5938
 IR Inten    --      3.3143                 0.0015                36.4775

                     40                     41                     42
                      A                      A                      A
 Frequencies --    724.2918               792.2301               808.6989
 Red. masses --      4.7177                 3.6969                 1.4060
 Frc consts  --      1.4582                 1.3671                 0.5417
 IR Inten    --     16.1809                 1.0071                 0.0002

                     43                     44                     45
                      A                      A                      A
 Frequencies --    826.8917               842.3810               928.5130
 Red. masses --      2.1015                 7.4317                 6.8417
 Frc consts  --      0.8466                 3.1071                 3.4753
 IR Inten    --     18.6398                 0.8078               130.4699

                     46                     47                     48
                      A                      A                      A
 Frequencies --    945.0670               947.8030               948.6795
 Red. masses --      1.2634                10.8067                 1.2953
 Frc consts  --      0.6648                 5.7198                 0.6869
 IR Inten    --      0.0012               299.5495                 3.3612

                     49                     50                     51
                      A                      A                      A
 Frequencies --    968.6871               970.0758               974.4406
 Red. masses --     13.6134                 1.3209                 1.3588
 Frc consts  --      7.5263                 0.7324                 0.7602
 IR Inten    --     53.5050                 0.0005                14.2816

                     52                     53                     54
                      A                      A                      A
 Frequencies --    995.1232              1070.6709              1073.7107
 Red. masses --      5.3288                 2.1405                 2.1841
 Frc consts  --      3.1091                 1.4457                 1.4835
 IR Inten    --    248.1247                 2.8975               248.9633

                     55                     56                     57
                      A                      A                      A
 Frequencies --   1118.6026              1119.1697              1119.8040
 Red. masses --     19.9963                19.5259                 1.9130
 Frc consts  --     14.7418                14.4097                 1.4134
 IR Inten    --      0.0614               681.5468                 4.6769

                     58                     59                     60
                      A                      A                      A
 Frequencies --   1122.2438              1147.6952              1149.5248
 Red. masses --      2.3583                 8.6990                10.1614
 Frc consts  --      1.7499                 6.7511                 7.9111
 IR Inten    --    103.3543                85.2771               366.0159

                     61                     62                     63
                      A                      A                      A
 Frequencies --   1171.2523              1184.7735              1189.6123
 Red. masses --      4.7734                 9.2665                 1.8635
 Frc consts  --      3.8582                 7.6636                 1.5538
 IR Inten    --      9.5663                27.3718                 0.0004

                     64                     65                     66
                      A                      A                      A
 Frequencies --   1212.3260              1249.0407              1306.6657
 Red. masses --      1.5875                 1.6408                 1.9648
 Frc consts  --      1.3746                 1.5082                 1.9765
 IR Inten    --      0.6718                40.9514                 2.0556

                     67                     68                     69
                      A                      A                      A
 Frequencies --   1352.2973              1352.5877              1373.6609
 Red. masses --     11.1628                11.0577                 3.6105
 Frc consts  --     12.0273                11.9192                 4.0140
 IR Inten    --     33.1666                 0.3828               188.0825

                     70                     71                     72
                      A                      A                      A
 Frequencies --   1433.8235              1469.0578              1477.3715
 Red. masses --      4.0280                 3.2356                 2.6545
 Frc consts  --      4.8790                 4.1141                 3.4136
 IR Inten    --      7.8646                59.2469                71.7796

                     73                     74                     75
                      A                      A                      A
 Frequencies --   1490.6207              1535.5283              1541.2927
 Red. masses --      9.3776                 7.6247                 6.4155
 Frc consts  --     12.2766                10.5923                 8.9795
 IR Inten    --    494.1634               180.0452                63.0214

                     76                     77                     78
                      A                      A                      A
 Frequencies --   1596.2090              1604.8541              1621.9734
 Red. masses --      9.5033                 5.9630                 7.0585
 Frc consts  --     14.2661                 9.0486                10.9408
 IR Inten    --      3.6654                 0.6870                 9.7465

                     79                     80                     81
                      A                      A                      A
 Frequencies --   3158.5225              3158.6327              3177.1422
 Red. masses --      1.0852                 1.0852                 1.0937
 Frc consts  --      6.3784                 6.3792                 6.5049
 IR Inten    --      0.0771                 0.3945                24.8935

                     82                     83                     84
                      A                      A                      A
 Frequencies --   3177.5666              3205.0478              3205.3737
 Red. masses --      1.0938                 1.0890                 1.0891
 Frc consts  --      6.5068                 6.5908                 6.5931
 IR Inten    --     40.0928                 0.9072                 2.6009

 - Thermochemistry -
 -------------------
 Temperature   298.150 Kelvin.  Pressure   1.00000 Atm.
 Atom     1 has atomic number  8 and mass  15.99491

 Molecular mass:   365.95041 amu.
 Principal axes and moments of inertia in atomic units:
                           1         2         3
     Eigenvalues --  3179.65707********************
           X            0.99395  -0.10961  -0.00635
           Y            0.10492   0.96528  -0.23924
           Z            0.03235   0.23712   0.97094
 This molecule is an asymmetric top.
 Rotational symmetry number  1.
 Warning -- assumption of classical behavior for rotation
           may cause significant error
 Rotational temperatures (Kelvin)      0.02724     0.00397     0.00357
 Rotational constants (GHZ):           0.56759     0.08272     0.07429
 Zero-point vibrational energy     474738.1 (Joules/Mol)
                                  113.46514 (Kcal/Mol)
 Warning -- explicit consideration of  33 degrees of freedom as
           vibrations may cause significant error
 Vibrational temperatures:     16.98    17.61    47.31    83.45   107.27
          (Kelvin)            131.42   188.22   202.52   218.99   253.54
                              256.28   319.88   326.02   345.46   385.76
                              456.70   490.91   537.91   542.40   561.90
                              604.24   624.65   649.33   664.74   672.06
                              703.75   721.61   745.25   754.07   755.68
                              830.65   876.70   877.82   934.68   944.19
                              973.85  1011.08  1032.00  1039.26  1042.09
                             1139.84  1163.54  1189.71  1212.00  1335.92
                             1359.74  1363.68  1364.94  1393.72  1395.72
                             1402.00  1431.76  1540.46  1544.83  1609.42
                             1610.24  1611.15  1614.66  1651.28  1653.91
                             1685.17  1704.62  1711.59  1744.27  1797.09
                             1880.00  1945.65  1946.07  1976.39  2062.95
                             2113.65  2125.61  2144.67  2209.28  2217.58
                             2296.59  2309.03  2333.66  4544.41  4544.57
                             4571.20  4571.81  4611.35  4611.82

 Zero-point correction=                           0.180818 (Hartree/Particle)
 Thermal correction to Energy=                    0.200346
 Thermal correction to Enthalpy=                  0.201290
 Thermal correction to Gibbs Free Energy=         0.128530
 Sum of electronic and zero-point Energies=          -1935.392283
 Sum of electronic and thermal Energies=             -1935.372756
 Sum of electronic and thermal Enthalpies=           -1935.371812
 Sum of electronic and thermal Free Energies=        -1935.444572

                     E (Thermal)             CV                S
                      KCal/Mol        Cal/Mol-Kelvin    Cal/Mol-Kelvin
 Total                  125.719             74.328            153.136
 Electronic               0.000              0.000              1.377
 Translational            0.889              2.981             43.585
 Rotational               0.889              2.981             35.776
 Vibrational            123.941             68.367             72.398
 Vibration     1          0.593              1.987              7.682
 Vibration     2          0.593              1.987              7.610
 Vibration     3          0.594              1.983              5.648
 Vibration     4          0.596              1.974              4.524
 Vibration     5          0.599              1.966              4.029
 Vibration     6          0.602              1.955              3.631
 Vibration     7          0.612              1.922              2.934
 Vibration     8          0.615              1.913              2.794
 Vibration     9          0.619              1.900              2.644
 Vibration    10          0.628              1.872              2.368
 Vibration    11          0.629              1.869              2.348
 Vibration    12          0.648              1.807              1.940
 Vibration    13          0.650              1.801              1.906
 Vibration    14          0.657              1.779              1.802
 Vibration    15          0.673              1.732              1.608
 Vibration    16          0.704              1.640              1.323
 Vibration    17          0.721              1.593              1.207
 Vibration    18          0.745              1.526              1.064
 Vibration    19          0.748              1.519              1.051
 Vibration    20          0.758              1.490              0.998
 Vibration    21          0.783              1.427              0.892
 Vibration    22          0.795              1.396              0.845
 Vibration    23          0.810              1.358              0.792
 Vibration    24          0.820              1.334              0.760
 Vibration    25          0.824              1.323              0.746
 Vibration    26          0.845              1.274              0.686
 Vibration    27          0.857              1.247              0.654
 Vibration    28          0.873              1.210              0.615
 Vibration    29          0.879              1.197              0.601
 Vibration    30          0.880              1.194              0.598
 Vibration    31          0.934              1.080              0.490
 Vibration    32          0.968              1.012              0.434
 Vibration    33          0.969              1.010              0.433

 Optimization completed.
    -- Stationary point found.
 Normal termination of Gaussian 16 at Fri Dec 22 05:20:18 2023.
