 Q-Chem 5.4, Q-Chem, Inc., Pleasanton, CA (2021)
 Q-Chem 5.4.0 for Intel X86 EM64T Linux

User input:
--------------------------------------------------------------
$molecule
-2 1
C                 -0.8775120000      2.3476390000     -0.9713230000
C                 -2.1686020000      1.8548290000     -1.0374680000
C                 -2.5432190000      0.7555190000     -0.2240730000
C                  0.0995400000      1.7896110000     -0.1135660000
C                 -0.2850870000      0.6727520000      0.7173100000
C                 -1.6097480000      0.1913480000      0.6284040000
C                  1.4446630000      2.3681350000     -0.1037010000
C                  2.3215690000      1.7063240000      0.8073790000
C                  1.9483250000      0.6310420000      1.6283480000
C                  0.6566230000      0.0406010000      1.6419850000
O                  1.7692490000      3.3649040000     -0.8463500000
O                  0.3274130000     -0.9547900000      2.3892180000
H                 -0.5596780000      3.1881580000     -1.5811050000
H                 -1.8608360000     -0.6501390000      1.2677310000
O                  3.6257110000      2.2108880000      0.9718920000
H                 -2.8942640000      2.3085140000     -1.7111130000
H                 -3.5568350000      0.3601510000     -0.2700290000
H                  2.6956160000      0.2152890000      2.3012300000
C                  4.6705220000      1.5326570000      0.2836760000
C                  5.9816750000      2.1417760000      0.7794910000
C                  4.5163140000      1.6364630000     -1.2357440000
H                  4.6458740000      0.4666770000      0.5664430000
H                  6.8472060000      1.6410010000      0.3332490000
H                  6.0582360000      2.0550220000      1.8676290000
H                  6.0277720000      3.2044730000      0.5188760000
H                  5.3316970000      1.1026600000     -1.7410560000
H                  4.5091290000      2.6856460000     -1.5414270000
H                  3.5608550000      1.2051630000     -1.5415540000
$end
$rem
MAX_SCF_CYCLES=200
BASIS  =  6-311++G(d,p)
GUI  =  2
JOB_TYPE  =  SP
METHOD  =  B3LYP
SOLVENT_METHOD = COSMO
$end
$solvent
dielectric 37.219
opticaldielectric 1.43
$end

--------------------------------------------------------------

             Standard Nuclear Orientation (Angstroms)
    I     Atom           X                Y                Z
 ----------------------------------------------------------------
    1      C       2.1474550121    -1.7781730108     0.1099786028
    2      C       3.5025135549    -1.6091636311    -0.1122879500
    3      C       4.0270368005    -0.3044149067    -0.2937760485
    4      C       1.2499358433    -0.6857041354     0.1623620792
    5      C       1.7866829829     0.6427891191    -0.0184003705
    6      C       3.1736480799     0.7844235881    -0.2434522531
    7      C      -0.1707065363    -0.9489901482     0.4002673686
    8      C      -0.9541521401     0.2436749626     0.4283319036
    9      C      -0.4350736564     1.5377863383     0.2690653436
   10      C       0.9341424192     1.8311298283     0.0313732435
   11      O      -0.6312776554    -2.1371394238     0.5633857033
   12      O       1.3989253838     3.0212712647    -0.1269927266
   13      H       1.7150925996    -2.7640770245     0.2527397615
   14      H       3.5395035420     1.7985775386    -0.3758384817
   15      O      -2.3267124494     0.1396485930     0.7244609721
   16      H       4.1637846976    -2.4738337860    -0.1480510942
   17      H       5.0920757336    -0.1616283283    -0.4702676030
   18      H      -1.1237859364     2.3781437379     0.3285583496
   19      C      -3.2287891397     0.1917753065    -0.3749975439
   20      C      -4.6343381636     0.2592297214     0.2215445779
   21      C      -3.0512911099    -1.0011181618    -1.3177024564
   22      H      -3.0401715938     1.1184379993    -0.9429744234
   23      H      -5.3949257817     0.3513953142    -0.5608002398
   24      H      -4.7260316763     1.1188745910     0.8923911685
   25      H      -4.8441989865    -0.6471051378     0.7993729119
   26      H      -3.7554366416    -0.9341982795    -2.1572476288
   27      H      -3.2051578246    -1.9359939994    -0.7730825059
   28      H      -2.0306140445    -1.0183053189    -1.7054707849
 ----------------------------------------------------------------

   20    -728.4455816095      1.40e-06  Convergence criterion met
 Total energy in the final basis set =     -728.4455816095
    6    -728.7319511924      3.07e-06  Convergence criterion met
 Total energy in the final basis set =     -728.7319511924

                    Orbital Energies (a.u.)
 --------------------------------------------------------------

 Alpha MOs
 -- Occupied --
-19.1066 -19.0241 -19.0184 -10.2072 -10.1759 -10.1732 -10.1717 -10.1509
-10.1500 -10.1473 -10.1472 -10.1463 -10.1409 -10.1399 -10.1394 -10.1207
 -1.0189  -0.9408  -0.9344  -0.8270  -0.7766  -0.7505  -0.7241  -0.6985
 -0.6759  -0.6427  -0.5947  -0.5867  -0.5534  -0.5306  -0.4931  -0.4789
 -0.4526  -0.4397  -0.4317  -0.4282  -0.4075  -0.3994  -0.3812  -0.3769
 -0.3765  -0.3728  -0.3666  -0.3586  -0.3510  -0.3423  -0.3274  -0.3241
 -0.3201  -0.3088  -0.3020  -0.2522  -0.2320  -0.2280  -0.2115  -0.2046
 -0.1983  -0.1152

          Ground-State Mulliken Net Atomic Charges

     Atom                 Charge (a.u.)
  ----------------------------------------
      1 C                    -0.011186
      2 C                    -0.520443
      3 C                    -0.488080
      4 C                     0.259591
      5 C                     0.443228
      6 C                     0.033965
      7 C                    -0.675932
      8 C                    -0.265466
      9 C                     0.573094
     10 C                    -0.568619
     11 O                    -0.710501
     12 O                    -0.749968
     13 H                     0.157041
     14 H                     0.156165
     15 O                    -0.148240
     16 H                     0.183234
     17 H                     0.180773
     18 H                     0.155872
     19 C                     0.015478
     20 C                    -0.531589
     21 C                    -0.523039
     22 H                     0.126566
     23 H                     0.150655
     24 H                     0.152981
     25 H                     0.150558
     26 H                     0.135915
     27 H                     0.164502
     28 H                     0.153443
  ----------------------------------------
  Sum of atomic charges =    -2.000000

                    Cartesian Multipole Moments
 -----------------------------------------------------------------
    Charge (ESU x 10^10)
                -9.6064
    Dipole Moment (Debye)
         X      -5.0442      Y      -3.5761      Z      -3.6324
       Tot       7.1713
    Quadrupole Moments (Debye-Ang)
        XX    -120.1743     XY     -20.2694     YY    -156.4252
        XZ       6.7609     YZ       5.3804     ZZ    -109.2462

 Total job time:  91.27s(wall), 685.05s(cpu)
        *  Thank you very much for using Q-Chem.  Have a nice day.  *
