 Q-Chem 5.4, Q-Chem, Inc., Pleasanton, CA (2021)
 Q-Chem 5.4.0 for Intel X86 EM64T Linux

User input:
--------------------------------------------------------------
$molecule
-2 1
C                  3.7245590000      2.2157790000     -0.4867190000
O                  2.3778470000      1.8227940000     -0.3932780000
C                  2.0808070000      0.4897450000     -0.2385720000
C                  3.0942880000     -0.4565910000     -0.1690120000
C                  2.7769690000     -1.8308180000     -0.0099790000
C                  1.4666140000     -2.2277640000      0.0554360000
C                  0.3990620000     -1.2941790000     -0.0233770000
C                 -0.9442500000     -1.8352640000      0.0501170000
O                 -1.1779610000     -3.0926280000      0.1621170000
C                 -2.0069200000     -0.8573340000      0.0037230000
C                 -3.3578220000     -1.2857300000      0.0786940000
C                 -4.4100390000     -0.3946460000      0.0403410000
C                 -4.1474650000      0.9970650000     -0.0786220000
C                 -2.8396970000      1.4390530000     -0.1501770000
C                 -1.7391290000      0.5517110000     -0.1106980000
C                 -0.3876560000      1.1131870000     -0.1918330000
O                 -0.2264310000      2.3692330000     -0.2917060000
C                  0.6892860000      0.1288360000     -0.1528430000
H                  4.2478490000      1.7435440000     -1.3324270000
H                  4.2939270000      1.9974020000      0.4298410000
H                  3.7145970000      3.2971900000     -0.6439570000
H                  4.1329630000     -0.1573800000     -0.2212190000
H                  3.5842840000     -2.5584020000      0.0491280000
H                  1.1853020000     -3.2687100000      0.1687730000
H                 -3.5214330000     -2.3550660000      0.1686140000
H                 -5.4362730000     -0.7538280000      0.0996270000
H                 -4.9706270000      1.7084520000     -0.1124910000
H                 -2.6026520000      2.4943500000     -0.2410200000
$end
$rem
MAX_SCF_CYCLES=200
BASIS  =  6-311++G(d,p)
GUI  =  2
JOB_TYPE  =  SP
METHOD  =  B3LYP
SOLVENT_METHOD = PCM
$end
$pcm
theory = CPCM
$end
$solvent
dielectric 37.219
opticaldielectric 1.43
$end

--------------------------------------------------------------

             Standard Nuclear Orientation (Angstroms)
    I     Atom           X                Y                Z
 ----------------------------------------------------------------
    1      C       3.7245590000     2.2157790000    -0.4867190000
    2      O       2.3778470000     1.8227940000    -0.3932780000
    3      C       2.0808070000     0.4897450000    -0.2385720000
    4      C       3.0942880000    -0.4565910000    -0.1690120000
    5      C       2.7769690000    -1.8308180000    -0.0099790000
    6      C       1.4666140000    -2.2277640000     0.0554360000
    7      C       0.3990620000    -1.2941790000    -0.0233770000
    8      C      -0.9442500000    -1.8352640000     0.0501170000
    9      O      -1.1779610000    -3.0926280000     0.1621170000
   10      C      -2.0069200000    -0.8573340000     0.0037230000
   11      C      -3.3578220000    -1.2857300000     0.0786940000
   12      C      -4.4100390000    -0.3946460000     0.0403410000
   13      C      -4.1474650000     0.9970650000    -0.0786220000
   14      C      -2.8396970000     1.4390530000    -0.1501770000
   15      C      -1.7391290000     0.5517110000    -0.1106980000
   16      C      -0.3876560000     1.1131870000    -0.1918330000
   17      O      -0.2264310000     2.3692330000    -0.2917060000
   18      C       0.6892860000     0.1288360000    -0.1528430000
   19      H       4.2478490000     1.7435440000    -1.3324270000
   20      H       4.2939270000     1.9974020000     0.4298410000
   21      H       3.7145970000     3.2971900000    -0.6439570000
   22      H       4.1329630000    -0.1573800000    -0.2212190000
   23      H       3.5842840000    -2.5584020000     0.0491280000
   24      H       1.1853020000    -3.2687100000     0.1687730000
   25      H      -3.5214330000    -2.3550660000     0.1686140000
   26      H      -5.4362730000    -0.7538280000     0.0996270000
   27      H      -4.9706270000     1.7084520000    -0.1124910000
   28      H      -2.6026520000     2.4943500000    -0.2410200000
 ----------------------------------------------------------------

    9    -803.7417913438      3.10e-06  Convergence criterion met
 Total energy in the final basis set =     -803.7417913438

                    Orbital Energies (a.u.)
 --------------------------------------------------------------

 Alpha MOs
 -- Occupied --
-19.1345 -19.0198 -19.0194 -10.2147 -10.2051 -10.1813 -10.1708 -10.1496
-10.1477 -10.1474 -10.1454 -10.1454 -10.1432 -10.1411 -10.1368 -10.1360
-10.1354 -10.1350  -1.0514  -0.9463  -0.9394  -0.8267  -0.8192  -0.7508
 -0.7351  -0.7221  -0.7078  -0.6758  -0.6342  -0.6041  -0.5895  -0.5553
 -0.5317  -0.5128  -0.5017  -0.4618  -0.4557  -0.4532  -0.4404  -0.4295
 -0.4249  -0.4024  -0.3989  -0.3825  -0.3780  -0.3720  -0.3660  -0.3537
 -0.3491  -0.3306  -0.3304  -0.3220  -0.3121  -0.3116  -0.3034  -0.2932
 -0.2302  -0.2265  -0.2175  -0.2068  -0.2021  -0.1919  -0.1037

          Ground-State Mulliken Net Atomic Charges

     Atom                 Charge (a.u.)
  ----------------------------------------
      1 C                    -0.301801
      2 O                    -0.164902
      3 C                    -0.118705
      4 C                    -0.095658
      5 C                    -0.508762
      6 C                    -0.089785
      7 C                     0.466543
      8 C                    -0.411226
      9 O                    -0.690301
     10 C                    -0.002049
     11 C                    -0.011208
     12 C                    -0.556610
     13 C                    -0.549175
     14 C                     0.022439
     15 C                     0.248587
     16 C                    -0.317281
     17 O                    -0.669081
     18 C                     0.118201
     19 H                     0.152989
     20 H                     0.159233
     21 H                     0.190879
     22 H                     0.182295
     23 H                     0.179427
     24 H                     0.135282
     25 H                     0.145933
     26 H                     0.171570
     27 H                     0.171696
     28 H                     0.141472
  ----------------------------------------
  Sum of atomic charges =    -2.000000

                    Cartesian Multipole Moments
 -----------------------------------------------------------------
    Charge (ESU x 10^10)
                -9.6064
    Dipole Moment (Debye)
         X       8.1389      Y       4.3363      Z       0.5083
       Tot       9.2360
    Quadrupole Moments (Debye-Ang)
        XX    -124.5656     XY      -5.2960     YY    -168.1402
        XZ      -0.4963     YZ       3.4556     ZZ    -117.8795

 Total job time:  88.88s(wall), 349.29s(cpu)
        *  Thank you very much for using Q-Chem.  Have a nice day.  *
