 Q-Chem 5.4, Q-Chem, Inc., Pleasanton, CA (2021)
 Q-Chem 5.4.0 for Intel X86 EM64T Linux

User input:
--------------------------------------------------------------
$molecule
0 1
C                 -0.9266980000      2.0953680000      0.0243730000
C                 -2.1246160000      1.2551420000     -0.0122780000
C                 -2.0833030000     -0.0823910000     -0.0782180000
C                 -0.8358350000     -0.8468660000     -0.1202410000
C                  0.4220010000     -0.0137730000     -0.0539270000
C                  0.3802160000      1.3387710000      0.0121980000
O                 -0.9788690000      3.3116420000      0.0569860000
O                 -0.8129910000     -2.0613800000     -0.2070320000
C                  1.6243350000      2.1802000000      0.0752860000
C                  1.7158180000     -0.7790360000     -0.0696360000
O                 -3.3390790000     -0.6063830000     -0.1682970000
O                 -3.4105370000      1.7071430000     -0.0543090000
C                 -4.2104310000      0.5151360000      0.0803320000
H                  2.2185280000      1.9349850000      0.9614390000
H                  1.3686590000      3.2378940000      0.1098790000
H                  2.2621570000      2.0031900000     -0.7964140000
H                  1.5257110000     -1.8496880000     -0.1229910000
H                  2.3046460000     -0.5718570000      0.8295520000
H                  2.3310140000     -0.4911490000     -0.9280950000
H                 -5.0096460000      0.5268520000     -0.6586490000
H                 -4.5941020000      0.4527930000      1.1049390000
$end

$rem
BASIS  =  6-311++G(d,p)
GUI  =  2
JOB_TYPE  =  SP
METHOD  =  B3LYP
SCF_CONVERGENCE  = 8
SOLVENT_METHOD = sm12
$end

$smx
solvent dimethylformamide
charges CM5
$end

--------------------------------------------------------------

             Standard Nuclear Orientation (Angstroms)
    I     Atom           X                Y                Z
 ----------------------------------------------------------------
    1      C      -0.9266980000     2.0953680000     0.0243730000
    2      C      -2.1246160000     1.2551420000    -0.0122780000
    3      C      -2.0833030000    -0.0823910000    -0.0782180000
    4      C      -0.8358350000    -0.8468660000    -0.1202410000
    5      C       0.4220010000    -0.0137730000    -0.0539270000
    6      C       0.3802160000     1.3387710000     0.0121980000
    7      O      -0.9788690000     3.3116420000     0.0569860000
    8      O      -0.8129910000    -2.0613800000    -0.2070320000
    9      C       1.6243350000     2.1802000000     0.0752860000
   10      C       1.7158180000    -0.7790360000    -0.0696360000
   11      O      -3.3390790000    -0.6063830000    -0.1682970000
   12      O      -3.4105370000     1.7071430000    -0.0543090000
   13      C      -4.2104310000     0.5151360000     0.0803320000
   14      H       2.2185280000     1.9349850000     0.9614390000
   15      H       1.3686590000     3.2378940000     0.1098790000
   16      H       2.2621570000     2.0031900000    -0.7964140000
   17      H       1.5257110000    -1.8496880000    -0.1229910000
   18      H       2.3046460000    -0.5718570000     0.8295520000
   19      H       2.3310140000    -0.4911490000    -0.9280950000
   20      H      -5.0096460000     0.5268520000    -0.6586490000
   21      H      -4.5941020000     0.4527930000     1.1049390000
 ----------------------------------------------------------------

   14    -648.7950113610      8.57e-09  Convergence criterion met
 Total energy in the final basis set =     -648.8134719301

                    Orbital Energies (a.u.)
 --------------------------------------------------------------

 Alpha MOs
 -- Occupied --
-19.1877 -19.1877 -19.1412 -19.1412 -10.3000 -10.2914 -10.2914 -10.2615
-10.2606 -10.2139 -10.2132 -10.1716 -10.1715  -1.1536  -1.0768  -1.0730
 -1.0543  -0.8709  -0.8159  -0.7511  -0.7204  -0.7040  -0.6714  -0.6162
 -0.6144  -0.5549  -0.5375  -0.5330  -0.4899  -0.4809  -0.4655  -0.4646
 -0.4357  -0.4343  -0.4243  -0.4155  -0.4129  -0.4049  -0.3976  -0.3853
 -0.3823  -0.3762  -0.3723  -0.2947  -0.2862  -0.2849  -0.2350

          Ground-State Mulliken Net Atomic Charges

     Atom                 Charge (a.u.)
  ----------------------------------------
      1 C                    -1.524521
      2 C                     0.329961
      3 C                     0.331208
      4 C                    -1.526006
      5 C                     0.717745
      6 C                     0.718551
      7 O                    -0.334444
      8 O                    -0.334438
      9 C                    -0.060677
     10 C                    -0.060217
     11 O                    -0.141619
     12 O                    -0.141896
     13 C                     0.235520
     14 H                     0.224498
     15 H                     0.168412
     16 H                     0.220499
     17 H                     0.168213
     18 H                     0.224020
     19 H                     0.221103
     20 H                     0.280650
     21 H                     0.283437
  ----------------------------------------
  Sum of atomic charges =     0.000000

                    Cartesian Multipole Moments
 -----------------------------------------------------------------
    Charge (ESU x 10^10)
                 0.0000
    Dipole Moment (Debye)
         X       0.5638      Y      -0.0083      Z       0.5216
       Tot       0.7681
    Quadrupole Moments (Debye-Ang)
        XX     -56.7720     XY       1.7053     YY     -97.5503
        XZ      -1.5415     YZ      -0.9279     ZZ     -72.7373

 Total job time:  242.14s(wall), 1875.25s(cpu)
        *  Thank you very much for using Q-Chem.  Have a nice day.  *
