 Gaussian 16, Revision A.03,
 Gaussian 16:  ES64L-G16RevA.03 25-Dec-2016

 --------------------------------------
 #P UB3LYP/6-311++G(d,p) nosym opt freq
 --------------------------------------

 --------
 Oxidized
 --------
 Symbolic Z-matrix:
 Charge =  0 Multiplicity = 1

 SCF Done:  E(UB3LYP) =  -648.796092997     A.U. after   15 cycles
 SCF Done:  E(UB3LYP) =  -648.796154712     A.U. after   11 cycles
 SCF Done:  E(UB3LYP) =  -648.796128757     A.U. after   12 cycles
 SCF Done:  E(UB3LYP) =  -648.796156344     A.U. after   12 cycles
 SCF Done:  E(UB3LYP) =  -648.796158560     A.U. after   10 cycles
 SCF Done:  E(UB3LYP) =  -648.796158610     A.U. after    8 cycles
 SCF Done:  E(UB3LYP) =  -648.796158927     A.U. after   11 cycles
 SCF Done:  E(UB3LYP) =  -648.796159403     A.U. after   11 cycles
 SCF Done:  E(UB3LYP) =  -648.796161091     A.U. after   11 cycles
 SCF Done:  E(UB3LYP) =  -648.739377381     A.U. after   16 cycles
 SCF Done:  E(UB3LYP) =  -648.796333791     A.U. after   11 cycles
 SCF Done:  E(UB3LYP) =  -648.796340511     A.U. after   11 cycles
 SCF Done:  E(UB3LYP) =  -648.796344498     A.U. after   11 cycles
 SCF Done:  E(UB3LYP) =  -648.796346997     A.U. after   11 cycles
 SCF Done:  E(UB3LYP) =  -648.796348168     A.U. after   11 cycles
 SCF Done:  E(UB3LYP) =  -648.796348981     A.U. after   10 cycles
 SCF Done:  E(UB3LYP) =  -648.796349649     A.U. after   11 cycles
 SCF Done:  E(UB3LYP) =  -648.796349723     A.U. after    9 cycles
 SCF Done:  E(UB3LYP) =  -648.796349739     A.U. after    9 cycles
 Optimization completed.
    -- Stationary point found.
 Normal termination of Gaussian 16 at Fri Jan 19 04:05:46 2024.

 ----------------------------------------------------------------------
 #P Geom=AllCheck Guess=TCheck SCRF=Check GenChk UB3LYP/6-311++G(d,p) F
 req
 ----------------------------------------------------------------------

 Structure from the checkpoint file:  "044.chk"
 --------
 Oxidized
 --------
 Charge =  0 Multiplicity = 1

                          Input orientation:
 ---------------------------------------------------------------------
 Center     Atomic      Atomic             Coordinates (Angstroms)
 Number     Number       Type             X           Y           Z
 ---------------------------------------------------------------------
      1          6           0       -0.926698    2.095368    0.024373
      2          6           0       -2.124616    1.255142   -0.012278
      3          6           0       -2.083303   -0.082391   -0.078218
      4          6           0       -0.835835   -0.846866   -0.120241
      5          6           0        0.422001   -0.013773   -0.053927
      6          6           0        0.380216    1.338771    0.012198
      7          8           0       -0.978869    3.311642    0.056986
      8          8           0       -0.812991   -2.061380   -0.207032
      9          6           0        1.624335    2.180200    0.075286
     10          6           0        1.715818   -0.779036   -0.069636
     11          8           0       -3.339079   -0.606383   -0.168297
     12          8           0       -3.410537    1.707143   -0.054309
     13          6           0       -4.210431    0.515136    0.080332
     14          1           0        2.218528    1.934985    0.961439
     15          1           0        1.368659    3.237894    0.109879
     16          1           0        2.262157    2.003190   -0.796414
     17          1           0        1.525711   -1.849688   -0.122991
     18          1           0        2.304646   -0.571857    0.829552
     19          1           0        2.331014   -0.491149   -0.928095
     20          1           0       -5.009646    0.526852   -0.658649
     21          1           0       -4.594102    0.452793    1.104939
 ---------------------------------------------------------------------

 SCF Done:  E(UB3LYP) =  -648.796349739     A.U. after    1 cycles

 Alpha  occ. eigenvalues --  -19.19621 -19.19620 -19.14290 -19.14289 -10.31506
 Alpha  occ. eigenvalues --  -10.29377 -10.29377 -10.26611 -10.26530 -10.22066
 Alpha  occ. eigenvalues --  -10.21994 -10.18381 -10.18380  -1.16178  -1.07990
 Alpha  occ. eigenvalues --   -1.07437  -1.06061  -0.87656  -0.82382  -0.75993
 Alpha  occ. eigenvalues --   -0.73165  -0.70962  -0.68089  -0.62393  -0.62023
 Alpha  occ. eigenvalues --   -0.56140  -0.54938  -0.53997  -0.49814  -0.48772
 Alpha  occ. eigenvalues --   -0.47264  -0.46568  -0.44455  -0.43781  -0.43486
 Alpha  occ. eigenvalues --   -0.42321  -0.42153  -0.41629  -0.40625  -0.39394
 Alpha  occ. eigenvalues --   -0.39256  -0.38312  -0.38037  -0.29524  -0.29245
 Alpha  occ. eigenvalues --   -0.28614  -0.24222
 Alpha virt. eigenvalues --   -0.13522  -0.01875  -0.01834  -0.00717   0.00339
 Alpha virt. eigenvalues --    0.01386   0.01757   0.01937   0.02387   0.02607
 Alpha virt. eigenvalues --    0.03914   0.04685   0.05628   0.05657   0.06582

  Beta  occ. eigenvalues --  -19.19621 -19.19620 -19.14290 -19.14289 -10.31506
  Beta  occ. eigenvalues --  -10.29377 -10.29377 -10.26611 -10.26530 -10.22066
  Beta  occ. eigenvalues --  -10.21994 -10.18381 -10.18380  -1.16178  -1.07990
  Beta  occ. eigenvalues --   -1.07437  -1.06061  -0.87656  -0.82382  -0.75993
  Beta  occ. eigenvalues --   -0.73165  -0.70962  -0.68089  -0.62393  -0.62023
  Beta  occ. eigenvalues --   -0.56140  -0.54938  -0.53997  -0.49814  -0.48772
  Beta  occ. eigenvalues --   -0.47264  -0.46568  -0.44455  -0.43781  -0.43486
  Beta  occ. eigenvalues --   -0.42321  -0.42153  -0.41629  -0.40625  -0.39394
  Beta  occ. eigenvalues --   -0.39256  -0.38312  -0.38037  -0.29524  -0.29245
  Beta  occ. eigenvalues --   -0.28614  -0.24222
  Beta virt. eigenvalues --   -0.13522  -0.01875  -0.01834  -0.00717   0.00339
  Beta virt. eigenvalues --    0.01386   0.01757   0.01937   0.02387   0.02607
  Beta virt. eigenvalues --    0.03914   0.04685   0.05628   0.05657   0.06582

 Mulliken charges and spin densities:
               1          2
     1  C   -1.009202  -0.000000
     2  C    0.386080   0.000000
     3  C    0.386157   0.000000
     4  C   -1.009002  -0.000000
     5  C    0.709782   0.000000
     6  C    0.709835   0.000000
     7  O   -0.235996   0.000000
     8  O   -0.236036   0.000000
     9  C   -0.433721   0.000000
    10  C   -0.433621  -0.000000
    11  O   -0.136091  -0.000000
    12  O   -0.136062   0.000000
    13  C   -0.024121   0.000000
    14  H    0.159826  -0.000000
    15  H    0.210025   0.000000
    16  H    0.158565   0.000000
    17  H    0.209921   0.000000
    18  H    0.158679   0.000000
    19  H    0.159786   0.000000
    20  H    0.195551   0.000000
    21  H    0.209644   0.000000
 Sum of Mulliken charges =  -0.00000   0.00000

 Dipole moment (field-independent basis, Debye):
    X=              0.5308    Y=             -0.0066    Z=              0.4689  Tot=              0.7083
 Quadrupole moment (field-independent basis, Debye-Ang):
   XX=            -59.8629   YY=            -95.9292   ZZ=            -72.9521
   XY=              1.5297   XZ=             -1.3987   YZ=             -0.8708

  Exact polarizability: 134.391  -0.489 151.244  -0.743   4.021  69.591
 Approx polarizability: 165.917  -5.037 329.129  -0.402  10.927 108.295

                      1                      2                      3
                      A                      A                      A
 Frequencies --     46.6553                66.1846                91.5826
 Red. masses --      1.0250                 2.9925                 1.2391
 Frc consts  --      0.0013                 0.0077                 0.0061
 IR Inten    --      0.0003                10.6490                 1.3173

                      4                      5                      6
                      A                      A                      A
 Frequencies --    113.4119               116.5683               135.9752
 Red. masses --      3.6115                 2.7775                10.1797
 Frc consts  --      0.0274                 0.0222                 0.1109
 IR Inten    --      0.0002                 2.5378                 0.0509

                      7                      8                      9
                      A                      A                      A
 Frequencies --    179.6209               254.3892               286.7406
 Red. masses --      5.2899                 6.7672                 4.7897
 Frc consts  --      0.1006                 0.2580                 0.2320
 IR Inten    --      5.5766                 2.2694                 1.0409

                     10                     11                     12
                      A                      A                      A
 Frequencies --    305.9578               327.8101               375.3431
 Red. masses --      2.5970                 3.8913                11.8549
 Frc consts  --      0.1432                 0.2464                 0.9840
 IR Inten    --      0.1374                 0.0008                 8.9289

                     13                     14                     15
                      A                      A                      A
 Frequencies --    420.8460               429.1615               440.4813
 Red. masses --      7.1010                 7.0967                 4.7211
 Frc consts  --      0.7410                 0.7701                 0.5397
 IR Inten    --     11.3011                 5.2982                 0.0147

                     16                     17                     18
                      A                      A                      A
 Frequencies --    527.8387               582.8838               637.8848
 Red. masses --      8.7307                 7.9853                 6.9206
 Frc consts  --      1.4332                 1.5985                 1.6591
 IR Inten    --      1.7822                 0.5813                 2.3372

                     19                     20                     21
                      A                      A                      A
 Frequencies --    720.3440               732.7215               734.9090
 Red. masses --      7.1349                 5.9716                 4.6501
 Frc consts  --      2.1813                 1.8890                 1.4797
 IR Inten    --     13.9612                 0.0058                 0.7442

                     22                     23                     24
                      A                      A                      A
 Frequencies --    750.5593               876.6887               912.6588
 Red. masses --     10.3501                 6.4128                 4.0184
 Frc consts  --      3.4353                 2.9039                 1.9721
 IR Inten    --      1.9038                 4.1190                38.1646

                     25                     26                     27
                      A                      A                      A
 Frequencies --    960.1420              1016.4799              1022.2354
 Red. masses --      5.7976                 1.9609                 1.4309
 Frc consts  --      3.1490                 1.1937                 0.8810
 IR Inten    --      2.1554                17.4459                 0.4500

                     28                     29                     30
                      A                      A                      A
 Frequencies --   1050.9371              1063.3024              1069.9155
 Red. masses --      1.4805                 3.8090                 4.2827
 Frc consts  --      0.9634                 2.5373                 2.8884
 IR Inten    --      0.0308               301.5204                59.4774

                     31                     32                     33
                      A                      A                      A
 Frequencies --   1127.2618              1138.2961              1187.4290
 Red. masses --      2.3174                 1.5389                 6.6421
 Frc consts  --      1.7350                 1.1749                 5.5178
 IR Inten    --     14.1264                11.6625               228.8015

                     34                     35                     36
                      A                      A                      A
 Frequencies --   1207.3736              1260.2234              1319.3716
 Red. masses --      1.1097                 4.2340                 4.2096
 Frc consts  --      0.9531                 3.9618                 4.3175
 IR Inten    --     18.9370               143.4501                16.1637

                     37                     38                     39
                      A                      A                      A
 Frequencies --   1398.2336              1403.4821              1411.1535
 Red. masses --      9.1237                 1.2913                 1.2383
 Frc consts  --     10.5095                 1.4986                 1.4529
 IR Inten    --     20.3865                10.7947                10.5783

                     40                     41                     42
                      A                      A                      A
 Frequencies --   1446.9564              1480.2068              1481.4888
 Red. masses --      1.5215                 1.0652                 1.0931
 Frc consts  --      1.8769                 1.3751                 1.4136
 IR Inten    --     31.8861                 0.2437                27.1863

                     43                     44                     45
                      A                      A                      A
 Frequencies --   1486.8719              1500.6188              1535.5564
 Red. masses --      1.0449                 1.0447                 1.1057
 Frc consts  --      1.3611                 1.3861                 1.5362
 IR Inten    --      0.2842                23.3838                 2.3229

                     46                     47                     48
                      A                      A                      A
 Frequencies --   1637.3858              1705.9173              1718.1575
 Red. masses --      9.1536                12.0714                12.8506
 Frc consts  --     14.4591                20.6979                22.3512
 IR Inten    --     86.2326                79.4657               589.3666

                     49                     50                     51
                      A                      A                      A
 Frequencies --   1727.9766              3018.7146              3022.9355
 Red. masses --     12.3454                 1.0663                 1.0396
 Frc consts  --     21.7185                 5.7247                 5.5973
 IR Inten    --     41.4017                97.1428                24.4988

                     52                     53                     54
                      A                      A                      A
 Frequencies --   3026.5423              3065.0244              3073.1522
 Red. masses --      1.0405                 1.0994                 1.0995
 Frc consts  --      5.6155                 6.0851                 6.1183
 IR Inten    --      0.5863                23.5825                 0.0112

                     55                     56                     57
                      A                      A                      A
 Frequencies --   3130.0473              3136.7762              3137.3498
 Red. masses --      1.1055                 1.0968                 1.0973
 Frc consts  --      6.3813                 6.3586                 6.3638
 IR Inten    --     22.5897                 1.7493                 4.6441

 - Thermochemistry -
 -------------------
 Temperature   298.150 Kelvin.  Pressure   1.00000 Atm.
 Atom     1 has atomic number  6 and mass  12.00000

 Molecular mass:   180.04226 amu.
 Principal axes and moments of inertia in atomic units:
                           1         2         3
     Eigenvalues --  1520.895312281.284823764.61930
           X            0.99952  -0.03083  -0.00386
           Y            0.03061   0.99832  -0.04919
           Z            0.00537   0.04905   0.99878
 This molecule is an asymmetric top.
 Rotational symmetry number  1.
 Warning -- assumption of classical behavior for rotation
           may cause significant error
 Rotational temperatures (Kelvin)      0.05695     0.03797     0.02301
 Rotational constants (GHZ):           1.18663     0.79111     0.47940
 Zero-point vibrational energy     406938.1 (Joules/Mol)
                                   97.26053 (Kcal/Mol)
 Warning -- explicit consideration of  17 degrees of freedom as
           vibrations may cause significant error
 Vibrational temperatures:     67.13    95.22   131.77   163.17   167.72
          (Kelvin)            195.64   258.43   366.01   412.56   440.20
                              471.65   540.04   605.50   617.47   633.75
                              759.44   838.64   917.77  1036.41  1054.22
                             1057.37  1079.89  1261.36  1313.11  1381.43
                             1462.49  1470.77  1512.06  1529.86  1539.37
                             1621.88  1637.75  1708.45  1737.14  1813.18
                             1898.28  2011.75  2019.30  2030.34  2081.85
                             2129.69  2131.53  2139.28  2159.06  2209.32
                             2355.83  2454.43  2472.05  2486.17  4343.26
                             4349.33  4354.52  4409.89  4421.58  4503.44
                             4513.12  4513.95

 Zero-point correction=                           0.154995 (Hartree/Particle)
 Thermal correction to Energy=                    0.167174
 Thermal correction to Enthalpy=                  0.168118
 Thermal correction to Gibbs Free Energy=         0.115844
 Sum of electronic and zero-point Energies=           -648.641355
 Sum of electronic and thermal Energies=              -648.629176
 Sum of electronic and thermal Enthalpies=            -648.628232
 Sum of electronic and thermal Free Energies=         -648.680506

                     E (Thermal)             CV                S
                      KCal/Mol        Cal/Mol-Kelvin    Cal/Mol-Kelvin
 Total                  104.903             43.520            110.020
 Electronic               0.000              0.000              0.000
 Translational            0.889              2.981             41.471
 Rotational               0.889              2.981             30.947
 Vibrational            103.126             37.559             37.602
 Vibration     1          0.595              1.979              4.954
 Vibration     2          0.598              1.970              4.264
 Vibration     3          0.602              1.955              3.626
 Vibration     4          0.607              1.938              3.210
 Vibration     5          0.608              1.936              3.156
 Vibration     6          0.614              1.917              2.860
 Vibration     7          0.629              1.867              2.332
 Vibration     8          0.665              1.755              1.700
 Vibration     9          0.684              1.698              1.493
 Vibration    10          0.696              1.662              1.384
 Vibration    11          0.711              1.620              1.271
 Vibration    12          0.746              1.523              1.058
 Vibration    13          0.783              1.425              0.889
 Vibration    14          0.791              1.407              0.861
 Vibration    15          0.800              1.382              0.825
 Vibration    16          0.883              1.188              0.592
 Vibration    17          0.940              1.068              0.480

 Optimization completed.
    -- Stationary point found.
 Normal termination of Gaussian 16 at Fri Jan 19 04:14:38 2024.
