 Gaussian 16, Revision A.03,
 Gaussian 16:  ES64L-G16RevA.03 25-Dec-2016

 ----------------------------------------------------------------
 #P UB3LYP/6-311++G(d,p) SCRF=(PCM,Solvent=n,n-DiMethylFormamide)
 ----------------------------------------------------------------

 ------------------
 Quinone PCM in DMF
 ------------------
 Symbolic Z-matrix:
 Charge =  0 Multiplicity = 1

                         Standard orientation:
 ---------------------------------------------------------------------
 Center     Atomic      Atomic             Coordinates (Angstroms)
 Number     Number       Type             X           Y           Z
 ---------------------------------------------------------------------
      1          6           0       -2.424143    2.267758   -1.282953
      2          6           0       -1.584223    2.112190    0.000026
      3          6           0       -2.423977    2.267313    1.283146
      4          6           0       -0.728716    0.853269   -0.000163
      5          6           0       -1.136118   -0.431120   -0.000108
      6         35           0       -2.969887   -0.965435    0.000163
      7          6           0       -0.197281   -1.600659   -0.000123
      8          8           0       -0.608942   -2.742056    0.000339
      9          6           0        1.279749   -1.335246   -0.000528
     10          6           0        1.693889   -0.056761   -0.000132
     11         35           0        3.545159    0.383083    0.000475
     12          6           0        0.764177    1.110119   -0.000461
     13          8           0        1.193032    2.245432   -0.001067
     14          6           0        2.187115   -2.528222   -0.001010
     15          1           0       -3.211944    1.518379   -1.360745
     16          1           0       -1.796021    2.200280   -2.175038
     17          1           0       -2.895158    3.254594   -1.282703
     18          1           0       -0.864707    2.931173    0.000096
     19          1           0       -3.210934    1.517089    1.361447
     20          1           0       -1.795513    2.200881    2.175064
     21          1           0       -2.896072    3.253635    1.282695
     22          1           0        2.838404   -2.513069    0.877202
     23          1           0        1.604369   -3.446625   -0.000788
     24          1           0        2.837485   -2.512896   -0.879910
 ---------------------------------------------------------------------

 SCF Done:  E(UB3LYP) =  -5685.95169426     A.U. after   16 cycles

 The electronic state is 1-A.
 Alpha  occ. eigenvalues -- -482.85069-482.84832 -62.50341 -62.50111 -56.32382
 Alpha  occ. eigenvalues --  -56.32155 -56.32005 -56.31958 -56.31772 -56.31726
 Alpha  occ. eigenvalues --  -19.15425 -19.15403 -10.30579 -10.30528 -10.26580
 Alpha  occ. eigenvalues --  -10.26376 -10.23633 -10.23473 -10.19580 -10.18337
 Alpha  occ. eigenvalues --  -10.16583 -10.16582  -8.71311  -8.71088  -6.54465
 Alpha  occ. eigenvalues --   -6.54250  -6.53205  -6.53069  -6.52976  -6.52844
 Alpha  occ. eigenvalues --   -2.65559  -2.65342  -2.65221  -2.65118  -2.65000
 Alpha  occ. eigenvalues --   -2.64900  -2.64115  -2.64113  -2.63887  -2.63885
 Alpha  occ. eigenvalues --   -1.09148  -1.08958  -0.89621  -0.86565  -0.81161
 Alpha  occ. eigenvalues --   -0.80231  -0.77360  -0.72027  -0.69788  -0.69374
 Alpha  occ. eigenvalues --   -0.63273  -0.60653  -0.58044  -0.55210  -0.50290
 Alpha  occ. eigenvalues --   -0.48390  -0.47761  -0.46580  -0.45285  -0.44332
 Alpha  occ. eigenvalues --   -0.43888  -0.43392  -0.42783  -0.42246  -0.41475
 Alpha  occ. eigenvalues --   -0.39729  -0.39582  -0.37054  -0.36094  -0.34846
 Alpha  occ. eigenvalues --   -0.34569  -0.34242  -0.31142  -0.30924  -0.30093
 Alpha  occ. eigenvalues --   -0.29378  -0.28919  -0.27219
 Alpha virt. eigenvalues --   -0.14389  -0.04170  -0.02920  -0.02811  -0.01337
 Alpha virt. eigenvalues --   -0.00640   0.00444   0.01590   0.01712   0.02295
 Alpha virt. eigenvalues --    0.02949   0.03479   0.04008   0.04774   0.04872

  Beta  occ. eigenvalues -- -482.85069-482.84832 -62.50341 -62.50111 -56.32382
  Beta  occ. eigenvalues --  -56.32155 -56.32005 -56.31958 -56.31772 -56.31726
  Beta  occ. eigenvalues --  -19.15425 -19.15403 -10.30579 -10.30528 -10.26580
  Beta  occ. eigenvalues --  -10.26376 -10.23633 -10.23473 -10.19580 -10.18337
  Beta  occ. eigenvalues --  -10.16583 -10.16582  -8.71311  -8.71088  -6.54465
  Beta  occ. eigenvalues --   -6.54250  -6.53205  -6.53069  -6.52976  -6.52844
  Beta  occ. eigenvalues --   -2.65559  -2.65342  -2.65221  -2.65118  -2.65000
  Beta  occ. eigenvalues --   -2.64900  -2.64115  -2.64113  -2.63887  -2.63885
  Beta  occ. eigenvalues --   -1.09148  -1.08958  -0.89621  -0.86565  -0.81161
  Beta  occ. eigenvalues --   -0.80231  -0.77360  -0.72027  -0.69788  -0.69374
  Beta  occ. eigenvalues --   -0.63273  -0.60653  -0.58044  -0.55210  -0.50290
  Beta  occ. eigenvalues --   -0.48390  -0.47761  -0.46580  -0.45285  -0.44332
  Beta  occ. eigenvalues --   -0.43888  -0.43392  -0.42783  -0.42246  -0.41475
  Beta  occ. eigenvalues --   -0.39729  -0.39582  -0.37054  -0.36094  -0.34846
  Beta  occ. eigenvalues --   -0.34569  -0.34242  -0.31142  -0.30924  -0.30093
  Beta  occ. eigenvalues --   -0.29378  -0.28919  -0.27219
  Beta virt. eigenvalues --   -0.14389  -0.04170  -0.02920  -0.02811  -0.01337
  Beta virt. eigenvalues --   -0.00640   0.00444   0.01590   0.01712   0.02295
  Beta virt. eigenvalues --    0.02949   0.03479   0.04008   0.04774   0.04872

 Mulliken charges and spin densities:
               1          2
     1  C   -0.683265   0.000000
     2  C    0.263245  -0.000000
     3  C   -0.683187   0.000000
     4  C    1.206663   0.000000
     5  C    0.177448  -0.000000
     6  Br  -0.021269   0.000000
     7  C   -1.254082   0.000000
     8  O   -0.185943   0.000000
     9  C    0.908775   0.000000
    10  C    0.106932  -0.000000
    11  Br  -0.083936  -0.000000
    12  C   -1.021655  -0.000000
    13  O   -0.178143   0.000000
    14  C   -0.310599  -0.000000
    15  H    0.154655   0.000000
    16  H    0.157723  -0.000000
    17  H    0.162536   0.000000
    18  H    0.227341   0.000000
    19  H    0.154574   0.000000
    20  H    0.157681  -0.000000
    21  H    0.162515   0.000000
    22  H    0.192372   0.000000
    23  H    0.197077  -0.000000
    24  H    0.192542   0.000000
 Sum of Mulliken charges =  -0.00000  -0.00000

 Dipole moment (field-independent basis, Debye):
    X=              0.0107    Y=              0.2592    Z=             -0.0005  Tot=              0.2594
 Quadrupole moment (field-independent basis, Debye-Ang):
   XX=           -105.9789   YY=           -116.9748   ZZ=           -106.6323
   XY=            -14.0412   XZ=              0.0010   YZ=              0.0091

 Normal termination of Gaussian 16 at Sun Jan 21 06:53:12 2024.
