 Q-Chem 5.4, Q-Chem, Inc., Pleasanton, CA (2021)
 Q-Chem 5.4.0 for Intel X86 EM64T Linux

User input:
--------------------------------------------------------------
$molecule
0 1
C                 -0.9371220000     -1.5861600000      3.6441100000
C                  0.3608830000     -1.9966680000      3.1005820000
C                  0.9145810000     -1.4548870000      1.9987530000
C                  0.1362120000     -0.3545590000      1.2882350000
C                 -1.1492280000      0.0599380000      1.8169000000
C                 -1.7059450000     -0.4924650000      2.9340170000
O                 -1.4044880000     -2.1046820000      4.6483450000
O                  0.5913900000      0.1774600000      0.2773250000
N                 -2.8793990000     -0.2146700000      3.5388990000
C                 -3.9268950000      0.7668520000      3.1879690000
C                 -5.0216420000      0.6109910000      4.2555380000
C                 -4.5224530000      0.4532390000      1.8019060000
C                 -3.3668010000      2.2012660000      3.2420150000
C                  2.2711490000     -1.8976350000      1.4471430000
C                  2.8944960000     -3.0157010000      2.3041290000
C                  2.0965120000     -2.4402210000      0.0055250000
C                  3.2502940000     -0.6957980000      1.4424070000
H                  0.8405990000     -2.7824290000      3.6692350000
H                 -1.6295270000      0.8442910000      1.2506100000
H                 -3.0375190000     -0.7871630000      4.3608890000
H                 -4.6274230000      0.8191700000      5.2544020000
H                 -5.4347940000     -0.4017930000      4.2482990000
H                 -5.8378420000      1.3097240000      4.0625960000
H                 -4.9346530000     -0.5585700000      1.7842310000
H                 -3.7807840000      0.5294600000      1.0062250000
H                 -5.3281950000      1.1566970000      1.5765930000
H                 -2.9689640000      2.4179060000      4.2363820000
H                 -4.1627460000      2.9187620000      3.0263520000
H                 -2.5682120000      2.3608190000      2.5168970000
H                  3.0761230000     -2.6927200000      3.3330570000
H                  3.8583370000     -3.2992140000      1.8742860000
H                  2.2693010000     -3.9126630000      2.3285060000
H                  1.4074680000     -3.2901290000     -0.0092220000
H                  3.0639460000     -2.7882480000     -0.3686340000
H                  1.7194590000     -1.6715020000     -0.6662540000
H                  3.3850260000     -0.3001120000      2.4536590000
H                  2.8945580000      0.1050420000      0.7970660000
H                  4.2279600000     -1.0284160000      1.0810460000
$end
$rem
MAX_SCF_CYCLES=200
BASIS  =  6-311++G(d,p)
GUI  =  2
JOB_TYPE  =  SP
METHOD  =  B3LYP
SOLVENT_METHOD = PCM
$end
$pcm
theory = CPCM
$end
$solvent
dielectric 37.219
opticaldielectric 1.43
$end

--------------------------------------------------------------

             Standard Nuclear Orientation (Angstroms)
    I     Atom           X                Y                Z
 ----------------------------------------------------------------
    1      C      -0.9371220000    -1.5861600000     3.6441100000
    2      C       0.3608830000    -1.9966680000     3.1005820000
    3      C       0.9145810000    -1.4548870000     1.9987530000
    4      C       0.1362120000    -0.3545590000     1.2882350000
    5      C      -1.1492280000     0.0599380000     1.8169000000
    6      C      -1.7059450000    -0.4924650000     2.9340170000
    7      O      -1.4044880000    -2.1046820000     4.6483450000
    8      O       0.5913900000     0.1774600000     0.2773250000
    9      N      -2.8793990000    -0.2146700000     3.5388990000
   10      C      -3.9268950000     0.7668520000     3.1879690000
   11      C      -5.0216420000     0.6109910000     4.2555380000
   12      C      -4.5224530000     0.4532390000     1.8019060000
   13      C      -3.3668010000     2.2012660000     3.2420150000
   14      C       2.2711490000    -1.8976350000     1.4471430000
   15      C       2.8944960000    -3.0157010000     2.3041290000
   16      C       2.0965120000    -2.4402210000     0.0055250000
   17      C       3.2502940000    -0.6957980000     1.4424070000
   18      H       0.8405990000    -2.7824290000     3.6692350000
   19      H      -1.6295270000     0.8442910000     1.2506100000
   20      H      -3.0375190000    -0.7871630000     4.3608890000
   21      H      -4.6274230000     0.8191700000     5.2544020000
   22      H      -5.4347940000    -0.4017930000     4.2482990000
   23      H      -5.8378420000     1.3097240000     4.0625960000
   24      H      -4.9346530000    -0.5585700000     1.7842310000
   25      H      -3.7807840000     0.5294600000     1.0062250000
   26      H      -5.3281950000     1.1566970000     1.5765930000
   27      H      -2.9689640000     2.4179060000     4.2363820000
   28      H      -4.1627460000     2.9187620000     3.0263520000
   29      H      -2.5682120000     2.3608190000     2.5168970000
   30      H       3.0761230000    -2.6927200000     3.3330570000
   31      H       3.8583370000    -3.2992140000     1.8742860000
   32      H       2.2693010000    -3.9126630000     2.3285060000
   33      H       1.4074680000    -3.2901290000    -0.0092220000
   34      H       3.0639460000    -2.7882480000    -0.3686340000
   35      H       1.7194590000    -1.6715020000    -0.6662540000
   36      H       3.3850260000    -0.3001120000     2.4536590000
   37      H       2.8945580000     0.1050420000     0.7970660000
   38      H       4.2279600000    -1.0284160000     1.0810460000
 ----------------------------------------------------------------

    9    -751.5587739658      4.25e-06  Convergence criterion met
 Total energy in the final basis set =     -751.5587739658

                    Orbital Energies (a.u.)
 --------------------------------------------------------------

 Alpha MOs
 -- Occupied --
-19.1425 -19.1137 -14.3487 -10.2869 -10.2670 -10.2447 -10.2306 -10.2140
-10.1985 -10.1927 -10.1710 -10.1623 -10.1599 -10.1599 -10.1566 -10.1553
-10.1553  -1.0762  -1.0470  -0.9599  -0.8575  -0.8245  -0.7975  -0.7532
 -0.6976  -0.6936  -0.6928  -0.6854  -0.6853  -0.6391  -0.6062  -0.5778
 -0.5532  -0.5328  -0.5087  -0.4849  -0.4801  -0.4617  -0.4616  -0.4476
 -0.4451  -0.4396  -0.4371  -0.4339  -0.4275  -0.4165  -0.4022  -0.3992
 -0.3878  -0.3816  -0.3784  -0.3709  -0.3703  -0.3648  -0.3591  -0.3531
 -0.3395  -0.3386  -0.3334  -0.3287  -0.2913  -0.2895  -0.2621  -0.2285

          Ground-State Mulliken Net Atomic Charges

     Atom                 Charge (a.u.)
  ----------------------------------------
      1 C                    -0.851905
      2 C                    -0.470628
      3 C                     1.242630
      4 C                    -0.441087
      5 C                    -0.297526
      6 C                     0.382049
      7 O                    -0.287992
      8 O                    -0.324683
      9 N                     0.016058
     10 C                    -0.062424
     11 C                    -0.537389
     12 C                    -0.465973
     13 C                    -0.466755
     14 C                     0.623478
     15 C                    -0.517178
     16 C                    -0.706749
     17 C                    -0.706370
     18 H                     0.256790
     19 H                     0.249358
     20 H                     0.387262
     21 H                     0.166478
     22 H                     0.166607
     23 H                     0.171437
     24 H                     0.170481
     25 H                     0.140602
     26 H                     0.179524
     27 H                     0.170636
     28 H                     0.179415
     29 H                     0.139914
     30 H                     0.147173
     31 H                     0.191476
     32 H                     0.146894
     33 H                     0.155099
     34 H                     0.172272
     35 H                     0.176820
     36 H                     0.155542
     37 H                     0.176448
     38 H                     0.172215
  ----------------------------------------
  Sum of atomic charges =     0.000000

                    Cartesian Multipole Moments
 -----------------------------------------------------------------
    Charge (ESU x 10^10)
                -0.0000
    Dipole Moment (Debye)
         X      -3.0015      Y       0.2892      Z       2.0614
       Tot       3.6526
    Quadrupole Moments (Debye-Ang)
        XX     -82.6790     XY     -11.5124     YY    -104.9694
        XZ      -7.4635     YZ       8.5794     ZZ    -108.1591

 Total job time:  70.96s(wall), 506.55s(cpu)
        *  Thank you very much for using Q-Chem.  Have a nice day.  *
