 Q-Chem 5.4, Q-Chem, Inc., Pleasanton, CA (2021)
 Q-Chem 5.4.0 for Intel X86 EM64T Linux

User input:
--------------------------------------------------------------
$molecule
0 1
O                  5.0446640000     -0.1674860000     -0.4368120000
C                  3.7370170000      0.1587360000     -0.2525560000
C                  3.4496190000      1.4943940000      0.0603270000
C                  2.1367290000      1.8835560000      0.2586750000
C                  1.0881020000      0.9592180000      0.1509190000
C                 -0.3069190000      1.4080310000      0.3692060000
O                 -0.5770800000      2.5680800000      0.6427250000
C                 -1.3860580000      0.3781080000      0.2412600000
C                 -2.7074350000      0.7733860000      0.4416080000
C                 -3.7369890000     -0.1587440000      0.3303480000
O                 -5.0447060000      0.1675310000      0.5144670000
C                 -3.4496130000     -1.4944020000      0.0175520000
C                 -2.1366840000     -1.8835680000     -0.1807320000
C                 -1.0881090000     -0.9592270000     -0.0729590000
C                  0.3069450000     -1.4080350000     -0.2912010000
O                  0.5771110000     -2.5680920000     -0.5646800000
C                  1.3860700000     -0.3780960000     -0.1632930000
C                  2.7074530000     -0.7733730000     -0.3637120000
H                  5.1260750000     -1.1049000000     -0.6454220000
H                  4.2664700000      2.2010590000      0.1414050000
H                  1.8949750000      2.9110170000      0.5011620000
H                 -2.9063330000      1.8124950000      0.6829070000
H                 -5.1261130000      1.1049280000      0.7231960000
H                 -4.2664790000     -2.2010460000     -0.0635220000
H                 -1.8949690000     -2.9110530000     -0.4231520000
H                  2.9062550000     -1.8125170000     -0.6049610000
$end
$rem
MAX_SCF_CYCLES=200
BASIS  =  6-311++G(d,p)
GUI  =  2
JOB_TYPE  =  SP
METHOD  =  B3LYP
SOLVENT_METHOD = COSMO
$end
$solvent
dielectric 37.219
opticaldielectric 1.43
$end

--------------------------------------------------------------

             Standard Nuclear Orientation (Angstroms)
    I     Atom           X                Y                Z
 ----------------------------------------------------------------
    1      O       5.0371947690    -0.5741602780    -0.0000906088
    2      C       3.7492374262    -0.1365787127    -0.0000782330
    3      C       3.5455142632     1.2501341443    -0.0000641719
    4      C       2.2562569404     1.7524136405     0.0000183180
    5      C       1.1489656735     0.8924504285     0.0000752329
    6      C      -0.2187224210     1.4621829884     0.0000875362
    7      O      -0.4162211153     2.6682126553     0.0000826710
    8      C      -1.3631657540     0.4968322737     0.0000510866
    9      C      -2.6605272319     1.0060222083     0.0000775788
   10      C      -3.7492117699     0.1365438994    -0.0000241848
   11      O      -5.0372250290     0.5741518966    -0.0001623172
   12      C      -3.5455165662    -1.2501488767     0.0000446277
   13      C      -2.2562252414    -1.7524208735     0.0000286255
   14      C      -1.1489866438    -0.8924478971    -0.0000167740
   15      C       0.2187315140    -1.4621679109     0.0000165056
   16      O       0.4162317627    -2.6681970664     0.0000624356
   17      C       1.3631648249    -0.4968089296     0.0000113953
   18      C       2.6605373095    -1.0060135465    -0.0000839538
   19      H       5.0597721307    -1.5376855371     0.0003871371
   20      H       4.4072224586     1.9063761772    -0.0000891298
   21      H       2.0788577860     2.8208005498     0.0000282072
   22      H      -2.7943158369     2.0828851257     0.0001228068
   23      H      -5.0598080523     1.5376859695    -0.0005202455
   24      H      -4.4072383243    -1.9063686640     0.0000678007
   25      H      -2.0788714235    -2.8208143604     0.0000857240
   26      H       2.7942242226    -2.0828939378    -0.0000812817
 ----------------------------------------------------------------

    9    -839.4540031726      4.12e-06  Convergence criterion met
 Total energy in the final basis set =     -839.4540031726
    5    -839.4793193325      3.34e-06  Convergence criterion met
 Total energy in the final basis set =     -839.4793193325

                    Orbital Energies (a.u.)
 --------------------------------------------------------------

 Alpha MOs
 -- Occupied --
-19.1742 -19.1742 -19.1302 -19.1301 -10.2829 -10.2828 -10.2643 -10.2643
-10.2116 -10.2116 -10.2022 -10.2022 -10.1995 -10.1995 -10.1965 -10.1965
-10.1944 -10.1944  -1.0866  -1.0866  -1.0659  -1.0642  -0.8934  -0.8806
 -0.8097  -0.7821  -0.7777  -0.7667  -0.6896  -0.6827  -0.6435  -0.6417
 -0.5898  -0.5852  -0.5658  -0.5645  -0.5127  -0.5008  -0.4958  -0.4935
 -0.4601  -0.4592  -0.4555  -0.4513  -0.4511  -0.4368  -0.4261  -0.4253
 -0.4211  -0.4195  -0.4039  -0.3912  -0.3762  -0.3665  -0.3639  -0.3482
 -0.2893  -0.2862  -0.2799  -0.2769  -0.2619  -0.2494

          Ground-State Mulliken Net Atomic Charges

     Atom                 Charge (a.u.)
  ----------------------------------------
      1 O                    -0.272626
      2 C                    -0.647155
      3 C                    -0.181426
      4 C                     0.204516
      5 C                     0.166370
      6 C                    -0.604342
      7 O                    -0.307517
      8 C                     0.356897
      9 C                     0.309810
     10 C                    -0.646909
     11 O                    -0.272678
     12 C                    -0.181377
     13 C                     0.204612
     14 C                     0.166655
     15 C                    -0.604515
     16 O                    -0.307505
     17 C                     0.357038
     18 C                     0.309968
     19 H                     0.331970
     20 H                     0.249979
     21 H                     0.206092
     22 H                     0.187061
     23 H                     0.331967
     24 H                     0.249979
     25 H                     0.206098
     26 H                     0.187040
  ----------------------------------------
  Sum of atomic charges =     0.000000

                    Cartesian Multipole Moments
 -----------------------------------------------------------------
    Charge (ESU x 10^10)
                 0.0000
    Dipole Moment (Debye)
         X       0.0007      Y      -0.0003      Z       0.0001
       Tot       0.0008
    Quadrupole Moments (Debye-Ang)
        XX     -82.8541     XY      -9.6416     YY    -106.9615
        XZ       0.0075     YZ      -0.0026     ZZ    -105.1943

 Total job time:  57.15s(wall), 435.43s(cpu)
        *  Thank you very much for using Q-Chem.  Have a nice day.  *
