 Q-Chem 5.4, Q-Chem, Inc., Pleasanton, CA (2021)
 Q-Chem 5.4.0 for Intel X86 EM64T Linux

User input:
--------------------------------------------------------------
$molecule
-1 1
C                 -5.0461510000     -0.0935260000     -3.9588530000
C                 -4.4809470000     -0.0680410000     -5.2293510000
C                 -3.0926580000      0.0013560000     -5.3788850000
C                 -4.2302720000     -0.0499540000     -2.8253240000
C                 -2.8385620000      0.0195300000     -2.9769080000
C                 -2.2746780000      0.0449540000     -4.2554530000
C                 -4.8712990000     -0.0790020000     -1.4590040000
C                 -3.9510730000     -0.0302080000     -0.2834500000
C                 -2.6165530000      0.0360890000     -0.4542070000
C                 -1.9589240000      0.0662020000     -1.7682310000
O                 -6.0797950000     -0.1394090000     -1.3624960000
O                 -0.7391520000      0.1269290000     -1.8767260000
S                 -4.6343630000     -0.0598230000      1.4299420000
O                 -5.4793220000      1.1523820000      1.4844170000
O                 -5.3555880000     -1.3491360000      1.4911360000
O                 -3.4187220000      0.0025710000      2.2762830000
H                 -6.1187800000     -0.1471010000     -3.8166010000
H                 -5.1194240000     -0.1021290000     -6.1058870000
H                 -2.6537490000      0.0211550000     -6.3708430000
H                 -1.1958960000      0.0988780000     -4.3410770000
H                 -1.9720030000      0.0702530000      0.4174670000
$end

$rem
BASIS  =  6-311++G(d,p)
GUI  =  2
JOB_TYPE  =  SP
METHOD  =  B3LYP
SCF_CONVERGENCE  = 8
SOLVENT_METHOD = sm12
$end

$smx
solvent dimethylformamide
charges CM5
$end

--------------------------------------------------------------

             Standard Nuclear Orientation (Angstroms)
    I     Atom           X                Y                Z
 ----------------------------------------------------------------
    1      C      -5.0461510000    -0.0935260000    -3.9588530000
    2      C      -4.4809470000    -0.0680410000    -5.2293510000
    3      C      -3.0926580000     0.0013560000    -5.3788850000
    4      C      -4.2302720000    -0.0499540000    -2.8253240000
    5      C      -2.8385620000     0.0195300000    -2.9769080000
    6      C      -2.2746780000     0.0449540000    -4.2554530000
    7      C      -4.8712990000    -0.0790020000    -1.4590040000
    8      C      -3.9510730000    -0.0302080000    -0.2834500000
    9      C      -2.6165530000     0.0360890000    -0.4542070000
   10      C      -1.9589240000     0.0662020000    -1.7682310000
   11      O      -6.0797950000    -0.1394090000    -1.3624960000
   12      O      -0.7391520000     0.1269290000    -1.8767260000
   13      S      -4.6343630000    -0.0598230000     1.4299420000
   14      O      -5.4793220000     1.1523820000     1.4844170000
   15      O      -5.3555880000    -1.3491360000     1.4911360000
   16      O      -3.4187220000     0.0025710000     2.2762830000
   17      H      -6.1187800000    -0.1471010000    -3.8166010000
   18      H      -5.1194240000    -0.1021290000    -6.1058870000
   19      H      -2.6537490000     0.0211550000    -6.3708430000
   20      H      -1.1958960000     0.0988780000    -4.3410770000
   21      H      -1.9720030000     0.0702530000     0.4174670000
 ----------------------------------------------------------------

   16   -1158.6310480293      3.69e-09  Convergence criterion met
 Total energy in the final basis set =    -1158.7321014054

                    Orbital Energies (a.u.)
 --------------------------------------------------------------

 Alpha MOs
 -- Occupied --
-89.0388 -19.1361 -19.1336 -19.0811 -19.0810 -19.0808 -10.2869 -10.2843
-10.2250 -10.2103 -10.2093 -10.2089 -10.1997 -10.1994 -10.1989 -10.1984
 -8.0974  -6.0599  -6.0598  -6.0597  -1.1025  -1.0682  -1.0651  -0.9667
 -0.9655  -0.8918  -0.8430  -0.7793  -0.7786  -0.7050  -0.6583  -0.6460
 -0.5999  -0.5767  -0.5440  -0.5254  -0.5041  -0.4906  -0.4639  -0.4596
 -0.4559  -0.4524  -0.4471  -0.4401  -0.4393  -0.4237  -0.4192  -0.3840
 -0.3825  -0.3700  -0.3244  -0.3233  -0.3223  -0.3028  -0.2909  -0.2878
 -0.2849  -0.2795  -0.2742  -0.2624  -0.2440

          Ground-State Mulliken Net Atomic Charges

     Atom                 Charge (a.u.)
  ----------------------------------------
      1 C                     0.650963
      2 C                     1.470100
      3 C                     1.530545
      4 C                    -0.103526
      5 C                    -0.104681
      6 C                     1.510886
      7 C                    -1.928096
      8 C                    -3.196010
      9 C                    -0.728323
     10 C                     0.199040
     11 O                    -0.227735
     12 O                    -0.186417
     13 S                    -0.296465
     14 O                    -0.373895
     15 O                    -0.373329
     16 O                    -0.324156
     17 H                     0.185863
     18 H                     0.398628
     19 H                     0.413463
     20 H                     0.236641
     21 H                     0.246505
  ----------------------------------------
  Sum of atomic charges =    -1.000000

                    Cartesian Multipole Moments
 -----------------------------------------------------------------
    Charge (ESU x 10^10)
                -4.8032
    Dipole Moment (Debye)
         X      22.1757      Y       0.2741      Z     -10.2623
       Tot      24.4367
    Quadrupole Moments (Debye-Ang)
        XX    -225.8931     XY      -1.9717     YY    -109.3242
        XZ      49.0144     YZ       0.7507     ZZ     -95.9788

 Total job time:  344.08s(wall), 2574.99s(cpu)
        *  Thank you very much for using Q-Chem.  Have a nice day.  *
