 Gaussian 16, Revision A.03,
 Gaussian 16:  ES64L-G16RevA.03 25-Dec-2016

 ----------------------------------------------------------------------
 #P UB3LYP/6-311++G(d,p) nosym opt freq SCRF=(PCM,Solvent=n,n-DiMethylF
 ormamide)
 ----------------------------------------------------------------------

 -------
 Reduced
 -------
 Symbolic Z-matrix:
 Charge = -2 Multiplicity = 1

 SCF Done:  E(UB3LYP) =  -421.153202341     A.U. after   16 cycles
 SCF Done:  E(UB3LYP) =  -421.153875357     A.U. after   13 cycles
 SCF Done:  E(UB3LYP) =  -421.153965396     A.U. after   11 cycles
 SCF Done:  E(UB3LYP) =  -421.153971165     A.U. after   11 cycles
 SCF Done:  E(UB3LYP) =  -421.153971602     A.U. after   10 cycles
 SCF Done:  E(UB3LYP) =  -421.153971690     A.U. after    8 cycles
 Optimization completed.
    -- Stationary point found.
 Normal termination of Gaussian 16 at Sat Feb 10 10:08:03 2024.

 ----------------------------------------------------------------------
 #P Geom=AllCheck Guess=TCheck SCRF=Check GenChk UB3LYP/6-311++G(d,p) F
 req
 ----------------------------------------------------------------------

 Structure from the checkpoint file:  "032-an.chk"
 -------
 Reduced
 -------
 Charge = -2 Multiplicity = 1

                          Input orientation:
 ---------------------------------------------------------------------
 Center     Atomic      Atomic             Coordinates (Angstroms)
 Number     Number       Type             X           Y           Z
 ---------------------------------------------------------------------
      1          6           0       -2.189008   -0.374971    0.003519
      2          6           0       -0.698085   -0.136043   -0.000806
      3          6           0       -0.195555    1.173212   -0.041904
      4          6           0        1.190672    1.502685   -0.045772
      5          8           0        1.631672    2.747431   -0.085477
      6          6           0        2.049526    0.371552   -0.001651
      7          6           0        1.563047   -0.943074    0.038862
      8          6           0        0.180355   -1.266846    0.040422
      9          8           0       -0.266033   -2.509106    0.077877
     10          1           0       -2.507264   -0.940346    0.888469
     11          1           0       -2.510534   -0.968832   -0.861439
     12          1           0       -2.741569    0.569287   -0.012225
     13          1           0       -0.904923    2.001397   -0.072344
     14          1           0        3.125369    0.543783    0.000662
     15          1           0        2.272328   -1.770131    0.071806
 ---------------------------------------------------------------------

 SCF Done:  E(UB3LYP) =  -421.153971690     A.U. after    1 cycles

 Alpha  occ. eigenvalues --  -19.00676 -19.00633 -10.15992 -10.15741 -10.13821
 Alpha  occ. eigenvalues --  -10.12637 -10.11660 -10.11528 -10.11483  -0.91013
 Alpha  occ. eigenvalues --   -0.90603  -0.77602  -0.72115  -0.65715  -0.62625
 Alpha  occ. eigenvalues --   -0.54789  -0.51097  -0.42778  -0.41885  -0.39710
 Alpha  occ. eigenvalues --   -0.39063  -0.36480  -0.35103  -0.34343  -0.33529
 Alpha  occ. eigenvalues --   -0.30920  -0.30527  -0.29570  -0.21440  -0.20431
 Alpha  occ. eigenvalues --   -0.18729  -0.18616  -0.11388
 Alpha virt. eigenvalues --    0.00340   0.01546   0.01990   0.02391   0.03971
 Alpha virt. eigenvalues --    0.04393   0.04625   0.06319   0.06572   0.07567
 Alpha virt. eigenvalues --    0.08051   0.08863   0.09070   0.10098   0.11938

  Beta  occ. eigenvalues --  -19.00676 -19.00633 -10.15992 -10.15741 -10.13821
  Beta  occ. eigenvalues --  -10.12637 -10.11660 -10.11528 -10.11483  -0.91013
  Beta  occ. eigenvalues --   -0.90603  -0.77602  -0.72115  -0.65715  -0.62625
  Beta  occ. eigenvalues --   -0.54789  -0.51097  -0.42778  -0.41885  -0.39710
  Beta  occ. eigenvalues --   -0.39063  -0.36480  -0.35103  -0.34343  -0.33529
  Beta  occ. eigenvalues --   -0.30920  -0.30527  -0.29570  -0.21440  -0.20431
  Beta  occ. eigenvalues --   -0.18729  -0.18616  -0.11388
  Beta virt. eigenvalues --    0.00340   0.01546   0.01990   0.02391   0.03971
  Beta virt. eigenvalues --    0.04393   0.04625   0.06319   0.06572   0.07567
  Beta virt. eigenvalues --    0.08051   0.08863   0.09070   0.10098   0.11938

 Mulliken charges and spin densities:
               1          2
     1  C   -0.472938   0.000000
     2  C    1.182774   0.000000
     3  C   -0.626443   0.000000
     4  C   -0.464469  -0.000000
     5  O   -0.779095  -0.000000
     6  C    0.025853   0.000000
     7  C    0.064803  -0.000000
     8  C   -0.909549  -0.000000
     9  O   -0.766169   0.000000
    10  H    0.135322  -0.000000
    11  H    0.135081  -0.000000
    12  H    0.127890  -0.000000
    13  H    0.098807  -0.000000
    14  H    0.123886  -0.000000
    15  H    0.124245  -0.000000
 Sum of Mulliken charges =  -2.00000  -0.00000

 Dipole moment (field-independent basis, Debye):
    X=             -6.8715    Y=             -1.3866    Z=              0.0438  Tot=              7.0101
 Quadrupole moment (field-independent basis, Debye-Ang):
   XX=            -75.3359   YY=           -121.1048   ZZ=            -62.9580
   XY=            -22.0170   XZ=              0.6802   YZ=              1.7987

  Exact polarizability: 184.662  15.251 201.493   0.063  -3.301  99.060
 Approx polarizability: 197.379  14.773 219.009   0.123  -3.746 103.930

                      1                      2                      3
                      A                      A                      A
 Frequencies --    133.6682               195.8637               224.7836
 Red. masses --      7.0911                 2.1788                 1.2543
 Frc consts  --      0.0746                 0.0492                 0.0373
 IR Inten    --     27.6224                 1.7322                 0.0569

                      4                      5                      6
                      A                      A                      A
 Frequencies --    311.1433               350.0858               360.6657
 Red. masses --      3.3330                 6.7782                 9.5779
 Frc consts  --      0.1901                 0.4895                 0.7341
 IR Inten    --      7.4787                 0.1177                12.2786

                      7                      8                      9
                      A                      A                      A
 Frequencies --    449.5434               467.5005               518.6185
 Red. masses --      2.9678                 7.7787                 5.6729
 Frc consts  --      0.3534                 1.0017                 0.8990
 IR Inten    --      4.7299                 1.0001                 5.0188

                     10                     11                     12
                      A                      A                      A
 Frequencies --    588.5185               591.7941               725.2853
 Red. masses --      2.0362                 4.5336                 2.8332
 Frc consts  --      0.4155                 0.9355                 0.8781
 IR Inten    --     20.0193                 2.3884                 0.6106

                     13                     14                     15
                      A                      A                      A
 Frequencies --    728.0236               789.6410               792.6799
 Red. masses --      6.3880                 1.7554                 5.1132
 Frc consts  --      1.9948                 0.6449                 1.8930
 IR Inten    --     42.5997                44.0075               194.3898

                     16                     17                     18
                      A                      A                      A
 Frequencies --    839.2034               876.4950               940.5988
 Red. masses --      1.7419                 1.3577                 3.0712
 Frc consts  --      0.7228                 0.6145                 1.6009
 IR Inten    --     61.0113                 5.2063                 5.5551

                     19                     20                     21
                      A                      A                      A
 Frequencies --   1000.6487              1044.7679              1101.1670
 Red. masses --      1.6192                 1.4809                 1.6356
 Frc consts  --      0.9552                 0.9524                 1.1685
 IR Inten    --    132.7865                 1.8302                11.5310

                     22                     23                     24
                      A                      A                      A
 Frequencies --   1150.2030              1203.7051              1248.2639
 Red. masses --      1.8376                 4.8522                 1.7742
 Frc consts  --      1.4323                 4.1422                 1.6288
 IR Inten    --    135.6968               286.2271               201.0411

                     25                     26                     27
                      A                      A                      A
 Frequencies --   1275.6976              1304.1536              1394.0218
 Red. masses --      2.8072                 7.0964                 1.4702
 Frc consts  --      2.6917                 7.1112                 1.6833
 IR Inten    --    921.0009                23.9750                81.2605

                     28                     29                     30
                      A                      A                      A
 Frequencies --   1399.0169              1459.0666              1465.5046
 Red. masses --      2.7595                 2.7002                 1.0478
 Frc consts  --      3.1822                 3.3869                 1.3259
 IR Inten    --    284.3972               742.1871                 6.1651

                     31                     32                     33
                      A                      A                      A
 Frequencies --   1488.0155              1510.4525              1608.6413
 Red. masses --      1.1058                 5.6003                 6.2115
 Frc consts  --      1.4426                 7.5280                 9.4703
 IR Inten    --    104.0591                24.7057                12.9425

                     34                     35                     36
                      A                      A                      A
 Frequencies --   2990.3504              3020.8378              3065.6772
 Red. masses --      1.0367                 1.0987                 1.0992
 Frc consts  --      5.4620                 5.9071                 6.0867
 IR Inten    --    156.1560                84.9153                42.2096

                     37                     38                     39
                      A                      A                      A
 Frequencies --   3087.1195              3089.4889              3111.5040
 Red. masses --      1.0841                 1.0872                 1.0922
 Frc consts  --      6.0873                 6.1141                 6.2298
 IR Inten    --     86.7853               171.9554               101.1368

 - Thermochemistry -
 -------------------
 Temperature   298.150 Kelvin.  Pressure   1.00000 Atm.
 Atom     1 has atomic number  6 and mass  12.00000

 Molecular mass:   122.03678 amu.
 Principal axes and moments of inertia in atomic units:
                           1         2         3
     Eigenvalues --   583.363471337.671111910.00827
           X            0.55454   0.83214  -0.00467
           Y            0.83178  -0.55412   0.03296
           Z           -0.02484   0.02216   0.99945
 This molecule is an asymmetric top.
 Rotational symmetry number  1.
 Warning -- assumption of classical behavior for rotation
           may cause significant error
 Rotational temperatures (Kelvin)      0.14847     0.06475     0.04535
 Rotational constants (GHZ):           3.09368     1.34917     0.94489
 Zero-point vibrational energy     286520.1 (Joules/Mol)
                                   68.47994 (Kcal/Mol)
 Warning -- explicit consideration of  11 degrees of freedom as
           vibrations may cause significant error
 Vibrational temperatures:    192.32   281.80   323.41   447.67   503.70
          (Kelvin)            518.92   646.79   672.63   746.18   846.75
                              851.46  1043.52  1047.46  1136.12  1140.49
                             1207.43  1261.08  1353.31  1439.71  1503.19
                             1584.33  1654.89  1731.86  1795.97  1835.44
                             1876.39  2005.69  2012.87  2099.27  2108.53
                             2140.92  2173.20  2314.48  4302.45  4346.31
                             4410.83  4441.68  4445.09  4476.76

 Zero-point correction=                           0.109130 (Hartree/Particle)
 Thermal correction to Energy=                    0.116643
 Thermal correction to Enthalpy=                  0.117587
 Thermal correction to Gibbs Free Energy=         0.077316
 Sum of electronic and zero-point Energies=           -421.044842
 Sum of electronic and thermal Energies=              -421.037329
 Sum of electronic and thermal Enthalpies=            -421.036384
 Sum of electronic and thermal Free Energies=         -421.076656

                     E (Thermal)             CV                S
                      KCal/Mol        Cal/Mol-Kelvin    Cal/Mol-Kelvin
 Total                   73.195             29.264             84.758
 Electronic               0.000              0.000              0.000
 Translational            0.889              2.981             40.312
 Rotational               0.889              2.981             28.790
 Vibrational             71.417             23.302             15.656
 Vibration     1          0.613              1.920              2.893
 Vibration     2          0.636              1.846              2.172
 Vibration     3          0.649              1.803              1.920
 Vibration     4          0.700              1.652              1.356
 Vibration     5          0.727              1.575              1.166
 Vibration     6          0.735              1.553              1.119
 Vibration     7          0.808              1.362              0.797
 Vibration     8          0.825              1.322              0.745
 Vibration     9          0.874              1.209              0.613
 Vibration    10          0.946              1.056              0.470
 Vibration    11          0.949              1.049              0.464

                           ! Non-Optimized Parameters !
 Normal termination of Gaussian 16 at Sat Feb 10 10:14:16 2024.
