 Q-Chem 5.4, Q-Chem, Inc., Pleasanton, CA (2021)
 Q-Chem 5.4.0 for Intel X86 EM64T Linux

User input:
--------------------------------------------------------------
$molecule
0 1
C                  3.7175190000      2.2367760000     -0.4604120000
O                  2.3669060000      1.7955150000     -0.3748080000
C                  2.1007260000      0.4824010000     -0.2392550000
C                  3.1145800000     -0.4843000000     -0.1775200000
C                  2.8032890000     -1.8318380000     -0.0373440000
C                  1.4812920000     -2.2436990000      0.0439590000
C                  0.4584540000     -1.2971860000     -0.0155080000
C                 -0.9451190000     -1.8152850000      0.0785690000
O                 -1.1638520000     -3.0101420000      0.2006390000
C                 -2.0531190000     -0.8303900000      0.0184610000
C                 -3.3766140000     -1.2779600000      0.1036170000
C                 -4.4232170000     -0.3673510000      0.0487120000
C                 -4.1541230000      0.9977750000     -0.0918200000
C                 -2.8421310000      1.4473130000     -0.1767930000
C                 -1.7808500000      0.5376900000     -0.1224020000
C                 -0.3791160000      1.0686060000     -0.2179240000
O                 -0.2049630000      2.2688300000     -0.3394810000
C                  0.7381390000      0.0809040000     -0.1575950000
H                  4.2222090000      1.8146540000     -1.3355170000
H                  4.2785740000      1.9879610000      0.4462440000
H                  3.6587770000      3.3184230000     -0.5637550000
H                  4.1513880000     -0.1854550000     -0.2390250000
H                  3.6049820000     -2.5604050000      0.0080020000
H                  1.2154270000     -3.2865170000      0.1531930000
H                 -3.5566630000     -2.3402960000      0.2120460000
H                 -5.4480630000     -0.7146560000      0.1147380000
H                 -4.9715510000      1.7088300000     -0.1347080000
H                 -2.6128840000      2.4998000000     -0.2858310000
$end

$rem
BASIS  =  6-311++G(d,p)
GUI  =  2
JOB_TYPE  =  SP
METHOD  =  B3LYP
SCF_CONVERGENCE  = 8
SOLVENT_METHOD = sm12
$end

$smx
solvent dimethylformamide
charges CM5
$end

--------------------------------------------------------------

             Standard Nuclear Orientation (Angstroms)
    I     Atom           X                Y                Z
 ----------------------------------------------------------------
    1      C       3.7175190000     2.2367760000    -0.4604120000
    2      O       2.3669060000     1.7955150000    -0.3748080000
    3      C       2.1007260000     0.4824010000    -0.2392550000
    4      C       3.1145800000    -0.4843000000    -0.1775200000
    5      C       2.8032890000    -1.8318380000    -0.0373440000
    6      C       1.4812920000    -2.2436990000     0.0439590000
    7      C       0.4584540000    -1.2971860000    -0.0155080000
    8      C      -0.9451190000    -1.8152850000     0.0785690000
    9      O      -1.1638520000    -3.0101420000     0.2006390000
   10      C      -2.0531190000    -0.8303900000     0.0184610000
   11      C      -3.3766140000    -1.2779600000     0.1036170000
   12      C      -4.4232170000    -0.3673510000     0.0487120000
   13      C      -4.1541230000     0.9977750000    -0.0918200000
   14      C      -2.8421310000     1.4473130000    -0.1767930000
   15      C      -1.7808500000     0.5376900000    -0.1224020000
   16      C      -0.3791160000     1.0686060000    -0.2179240000
   17      O      -0.2049630000     2.2688300000    -0.3394810000
   18      C       0.7381390000     0.0809040000    -0.1575950000
   19      H       4.2222090000     1.8146540000    -1.3355170000
   20      H       4.2785740000     1.9879610000     0.4462440000
   21      H       3.6587770000     3.3184230000    -0.5637550000
   22      H       4.1513880000    -0.1854550000    -0.2390250000
   23      H       3.6049820000    -2.5604050000     0.0080020000
   24      H       1.2154270000    -3.2865170000     0.1531930000
   25      H      -3.5566630000    -2.3402960000     0.2120460000
   26      H      -5.4480630000    -0.7146560000     0.1147380000
   27      H      -4.9715510000     1.7088300000    -0.1347080000
   28      H      -2.6128840000     2.4998000000    -0.2858310000
 ----------------------------------------------------------------

   15    -803.4983063563      2.91e-09  Convergence criterion met
 Total energy in the final basis set =     -803.5218266543

                    Orbital Energies (a.u.)
 --------------------------------------------------------------

 Alpha MOs
 -- Occupied --
-19.1643 -19.1264 -19.1187 -10.2789 -10.2766 -10.2641 -10.2195 -10.2090
-10.2080 -10.2059 -10.2050 -10.1983 -10.1967 -10.1960 -10.1954 -10.1940
-10.1936 -10.1882  -1.0860  -1.0616  -1.0543  -0.8901  -0.8784  -0.8106
 -0.7801  -0.7752  -0.7697  -0.7126  -0.6870  -0.6603  -0.6441  -0.6077
 -0.5815  -0.5608  -0.5585  -0.5146  -0.5040  -0.4940  -0.4859  -0.4780
 -0.4772  -0.4503  -0.4494  -0.4494  -0.4487  -0.4397  -0.4190  -0.4140
 -0.3999  -0.3944  -0.3886  -0.3751  -0.3692  -0.3656  -0.3450  -0.3377
 -0.2873  -0.2809  -0.2761  -0.2758  -0.2619  -0.2452

          Ground-State Mulliken Net Atomic Charges

     Atom                 Charge (a.u.)
  ----------------------------------------
      1 C                    -0.120426
      2 O                    -0.163650
      3 C                    -0.207828
      4 C                     1.491409
      5 C                     0.524578
      6 C                    -0.038035
      7 C                    -0.305925
      8 C                    -1.884699
      9 O                    -0.251066
     10 C                    -0.897581
     11 C                     0.123126
     12 C                     0.511367
     13 C                     0.368832
     14 C                     0.084070
     15 C                    -0.173240
     16 C                    -1.299424
     17 O                    -0.264076
     18 C                    -0.082440
     19 H                     0.229917
     20 H                     0.229847
     21 H                     0.218817
     22 H                     0.383236
     23 H                     0.344368
     24 H                     0.156082
     25 H                     0.190242
     26 H                     0.330547
     27 H                     0.323175
     28 H                     0.178778
  ----------------------------------------
  Sum of atomic charges =     0.000000

                    Cartesian Multipole Moments
 -----------------------------------------------------------------
    Charge (ESU x 10^10)
                 0.0000
    Dipole Moment (Debye)
         X       2.7803      Y       0.8211      Z      -0.1666
       Tot       2.9038
    Quadrupole Moments (Debye-Ang)
        XX     -63.8892     XY      -1.8031     YY    -112.1988
        XZ      -1.5164     YZ       0.5219     ZZ    -106.2395

 Total job time:  587.75s(wall), 4606.96s(cpu)
        *  Thank you very much for using Q-Chem.  Have a nice day.  *
