 Gaussian 16, Revision A.03,
 Gaussian 16:  ES64L-G16RevA.03 25-Dec-2016

 --------------------------------------
 #P UB3LYP/6-311++G(d,p) nosym opt freq
 --------------------------------------

 --------
 Oxidized
 --------
 Symbolic Z-matrix:
 Charge =  0 Multiplicity = 1

 SCF Done:  E(UB3LYP) =  -803.500832309     A.U. after   16 cycles
 Optimization completed.
    -- Stationary point found.
 Normal termination of Gaussian 16 at Wed Dec 27 19:48:54 2023.

 ----------------------------------------------------------------------
 #P Geom=AllCheck Guess=TCheck SCRF=Check GenChk UB3LYP/6-311++G(d,p) F
 req
 ----------------------------------------------------------------------

 Structure from the checkpoint file:  "137.chk"
 --------
 Oxidized
 --------
 Charge =  0 Multiplicity = 1

                          Input orientation:
 ---------------------------------------------------------------------
 Center     Atomic      Atomic             Coordinates (Angstroms)
 Number     Number       Type             X           Y           Z
 ---------------------------------------------------------------------
      1          6           0        3.717519    2.236776   -0.460412
      2          8           0        2.366906    1.795515   -0.374808
      3          6           0        2.100726    0.482401   -0.239255
      4          6           0        3.114580   -0.484300   -0.177520
      5          6           0        2.803289   -1.831838   -0.037344
      6          6           0        1.481292   -2.243699    0.043959
      7          6           0        0.458454   -1.297186   -0.015508
      8          6           0       -0.945119   -1.815285    0.078569
      9          8           0       -1.163852   -3.010142    0.200639
     10          6           0       -2.053119   -0.830390    0.018461
     11          6           0       -3.376614   -1.277960    0.103617
     12          6           0       -4.423217   -0.367351    0.048712
     13          6           0       -4.154123    0.997775   -0.091820
     14          6           0       -2.842131    1.447313   -0.176793
     15          6           0       -1.780850    0.537690   -0.122402
     16          6           0       -0.379116    1.068606   -0.217924
     17          8           0       -0.204963    2.268830   -0.339481
     18          6           0        0.738139    0.080904   -0.157595
     19          1           0        4.222209    1.814654   -1.335517
     20          1           0        4.278574    1.987961    0.446244
     21          1           0        3.658777    3.318423   -0.563755
     22          1           0        4.151388   -0.185455   -0.239025
     23          1           0        3.604982   -2.560405    0.008002
     24          1           0        1.215427   -3.286517    0.153193
     25          1           0       -3.556663   -2.340296    0.212046
     26          1           0       -5.448063   -0.714656    0.114738
     27          1           0       -4.971551    1.708830   -0.134708
     28          1           0       -2.612884    2.499800   -0.285831
 ---------------------------------------------------------------------

 SCF Done:  E(UB3LYP) =  -803.500832309     A.U. after    1 cycles

 Alpha  occ. eigenvalues --  -19.17151 -19.12153 -19.11399 -10.27401 -10.27183
 Alpha  occ. eigenvalues --  -10.26627 -10.23893 -10.20813 -10.20765 -10.20256
 Alpha  occ. eigenvalues --  -10.20213 -10.20166 -10.19829 -10.19702 -10.19622
 Alpha  occ. eigenvalues --  -10.19381 -10.19184 -10.18863  -1.09299  -1.05613
 Alpha  occ. eigenvalues --   -1.04907  -0.88934  -0.87838  -0.81018  -0.78429
 Alpha  occ. eigenvalues --   -0.77324  -0.77009  -0.72253  -0.68569  -0.66150
 Alpha  occ. eigenvalues --   -0.64424  -0.60928  -0.58301  -0.56319  -0.55993
 Alpha  occ. eigenvalues --   -0.51756  -0.50691  -0.49412  -0.49014  -0.48736
 Alpha  occ. eigenvalues --   -0.47956  -0.45340  -0.44692  -0.44678  -0.44399
 Alpha  occ. eigenvalues --   -0.43983  -0.42657  -0.40904  -0.40477  -0.39766
 Alpha  occ. eigenvalues --   -0.39033  -0.37614  -0.36872  -0.36433  -0.35368
 Alpha  occ. eigenvalues --   -0.34356  -0.28549  -0.27539  -0.27501  -0.27325
 Alpha  occ. eigenvalues --   -0.25705  -0.24763
 Alpha virt. eigenvalues --   -0.10996  -0.06484  -0.03610  -0.01829  -0.01552
 Alpha virt. eigenvalues --   -0.00452   0.00369   0.01433   0.01691   0.02400
 Alpha virt. eigenvalues --    0.02761   0.03324   0.03733   0.03900   0.04427

  Beta  occ. eigenvalues --  -19.17151 -19.12153 -19.11399 -10.27401 -10.27183
  Beta  occ. eigenvalues --  -10.26627 -10.23893 -10.20813 -10.20765 -10.20256
  Beta  occ. eigenvalues --  -10.20213 -10.20166 -10.19829 -10.19702 -10.19622
  Beta  occ. eigenvalues --  -10.19381 -10.19184 -10.18863  -1.09299  -1.05613
  Beta  occ. eigenvalues --   -1.04907  -0.88934  -0.87838  -0.81018  -0.78429
  Beta  occ. eigenvalues --   -0.77324  -0.77009  -0.72253  -0.68569  -0.66150
  Beta  occ. eigenvalues --   -0.64424  -0.60928  -0.58301  -0.56319  -0.55993
  Beta  occ. eigenvalues --   -0.51756  -0.50691  -0.49412  -0.49014  -0.48736
  Beta  occ. eigenvalues --   -0.47956  -0.45340  -0.44692  -0.44678  -0.44399
  Beta  occ. eigenvalues --   -0.43983  -0.42657  -0.40904  -0.40477  -0.39766
  Beta  occ. eigenvalues --   -0.39033  -0.37614  -0.36872  -0.36433  -0.35368
  Beta  occ. eigenvalues --   -0.34356  -0.28549  -0.27539  -0.27501  -0.27325
  Beta  occ. eigenvalues --   -0.25705  -0.24763
  Beta virt. eigenvalues --   -0.10996  -0.06484  -0.03610  -0.01829  -0.01552
  Beta virt. eigenvalues --   -0.00452   0.00369   0.01433   0.01691   0.02400
  Beta virt. eigenvalues --    0.02761   0.03324   0.03733   0.03900   0.04427

 Mulliken charges and spin densities:
               1          2
     1  C   -0.277284   0.000000
     2  O   -0.086830   0.000000
     3  C   -0.029860  -0.000000
     4  C   -0.018860  -0.000000
     5  C   -0.355853   0.000000
     6  C    0.045092  -0.000000
     7  C    0.547788  -0.000000
     8  C   -0.664885  -0.000000
     9  O   -0.210666   0.000000
    10  C   -0.103222  -0.000000
    11  C    0.149616   0.000000
    12  C   -0.411939   0.000000
    13  C   -0.392043   0.000000
    14  C    0.163078   0.000000
    15  C    0.363342   0.000000
    16  C   -0.514079  -0.000000
    17  O   -0.212606  -0.000000
    18  C    0.266332   0.000000
    19  H    0.149772  -0.000000
    20  H    0.149808  -0.000000
    21  H    0.199300   0.000000
    22  H    0.172731  -0.000000
    23  H    0.187036   0.000000
    24  H    0.173822   0.000000
    25  H    0.183271   0.000000
    26  H    0.172906  -0.000000
    27  H    0.175853   0.000000
    28  H    0.178379  -0.000000
 Sum of Mulliken charges =  -0.00000  -0.00000

 Dipole moment (field-independent basis, Debye):
    X=              2.1256    Y=              0.6510    Z=             -0.1292  Tot=              2.2268
 Quadrupole moment (field-independent basis, Debye-Ang):
   XX=            -72.0121   YY=           -111.8163   ZZ=           -106.1318
   XY=             -1.4885   XZ=             -1.2038   YZ=              0.5090

  Exact polarizability: 269.707  -0.601 208.411  -5.546 -11.243  93.208
 Approx polarizability: 382.880   0.202 393.796  -7.430 -23.801 150.219

                      1                      2                      3
                      A                      A                      A
 Frequencies --     23.8454                51.0441                97.9568
 Red. masses --      7.2353                 5.2558                 3.7764
 Frc consts  --      0.0024                 0.0081                 0.0213
 IR Inten    --      7.2930                 0.5720                 2.3789

                      4                      5                      6
                      A                      A                      A
 Frequencies --    110.8108               153.7161               168.0873
 Red. masses --      4.7685                 5.3494                 4.3786
 Frc consts  --      0.0345                 0.0745                 0.0729
 IR Inten    --      0.0388                 1.2517                 2.7253

                      7                      8                      9
                      A                      A                      A
 Frequencies --    191.2265               246.2255               271.2338
 Red. masses --      2.9313                 1.6842                 4.9634
 Frc consts  --      0.0632                 0.0602                 0.2151
 IR Inten    --      0.1184                 0.0085                 0.0245

                     10                     11                     12
                      A                      A                      A
 Frequencies --    282.7793               320.5396               340.7010
 Red. masses --      2.5818                 4.1385                 7.6401
 Frc consts  --      0.1216                 0.2505                 0.5225
 IR Inten    --      0.4759                 1.6592                 0.2601

                     13                     14                     15
                      A                      A                      A
 Frequencies --    373.1965               402.3703               425.2306
 Red. masses --      8.4399                12.3187                 3.3622
 Frc consts  --      0.6926                 1.1751                 0.3582
 IR Inten    --      2.5498                23.2253                 0.1498

                     16                     17                     18
                      A                      A                      A
 Frequencies --    432.0229               473.6177               479.8586
 Red. masses --      5.2008                11.0846                 7.2174
 Frc consts  --      0.5719                 1.4650                 0.9792
 IR Inten    --      0.0312                 0.0955                 0.3424

                     19                     20                     21
                      A                      A                      A
 Frequencies --    492.9572               560.8509               593.1144
 Red. masses --      3.9604                 4.6000                 6.3777
 Frc consts  --      0.5670                 0.8525                 1.3219
 IR Inten    --      0.5164                 3.5415                 6.7742

                     22                     23                     24
                      A                      A                      A
 Frequencies --    632.1259               670.8570               671.8514
 Red. masses --      5.7449                 6.3786                 4.3003
 Frc consts  --      1.3525                 1.6914                 1.1437
 IR Inten    --      0.1068                 8.9989                 4.7190

                     25                     26                     27
                      A                      A                      A
 Frequencies --    702.2548               724.5094               748.5436
 Red. masses --      6.9364                 2.6479                 2.1686
 Frc consts  --      2.0155                 0.8189                 0.7159
 IR Inten    --      1.0765                51.4144                31.2315

                     28                     29                     30
                      A                      A                      A
 Frequencies --    787.1289               787.5055               817.3568
 Red. masses --      6.4246                 1.9218                 2.2879
 Frc consts  --      2.3452                 0.7022                 0.9006
 IR Inten    --      4.2299                12.4493                14.9352

                     31                     32                     33
                      A                      A                      A
 Frequencies --    833.2886               864.4639               913.0269
 Red. masses --      3.4011                 6.9033                 1.3771
 Frc consts  --      1.3914                 3.0395                 0.6764
 IR Inten    --     20.5260                22.6597                 0.0756

                     34                     35                     36
                      A                      A                      A
 Frequencies --    917.6291               923.7982               985.3886
 Red. masses --      1.4302                 6.5983                 6.8593
 Frc consts  --      0.7095                 3.3177                 3.9242
 IR Inten    --      0.1645                12.3572               134.9543

                     37                     38                     39
                      A                      A                      A
 Frequencies --    998.8598              1003.3626              1017.3389
 Red. masses --      1.3176                 1.3793                 1.3204
 Frc consts  --      0.7745                 0.8181                 0.8052
 IR Inten    --      0.0984                 2.1451                 0.0264

                     40                     41                     42
                      A                      A                      A
 Frequencies --   1055.2892              1092.7851              1109.8965
 Red. masses --      2.1625                 3.6258                 2.6309
 Frc consts  --      1.4189                 2.5511                 1.9095
 IR Inten    --      1.1097                44.3092                 3.7901

                     43                     44                     45
                      A                      A                      A
 Frequencies --   1114.3300              1164.0672              1171.5838
 Red. masses --      2.5053                 1.2734                 1.9407
 Frc consts  --      1.8329                 1.0166                 1.5695
 IR Inten    --      7.2846                 0.8031                 2.8286

                     46                     47                     48
                      A                      A                      A
 Frequencies --   1183.3245              1191.8326              1207.1390
 Red. masses --      1.2577                 1.3011                 1.5292
 Frc consts  --      1.0376                 1.0889                 1.3129
 IR Inten    --     14.9761                 2.7705                18.3815

                     49                     50                     51
                      A                      A                      A
 Frequencies --   1212.5124              1257.2667              1283.5389
 Red. masses --      1.5992                 2.4591                 2.7154
 Frc consts  --      1.3852                 2.2903                 2.6358
 IR Inten    --      5.7631               134.3359               445.4326

                     52                     53                     54
                      A                      A                      A
 Frequencies --   1303.2949              1327.1478              1350.2937
 Red. masses --      3.0802                 3.8371                 8.1720
 Frc consts  --      3.0826                 3.9819                 8.7788
 IR Inten    --    141.7878               282.4388                13.6080

                     55                     56                     57
                      A                      A                      A
 Frequencies --   1361.2034              1462.6313              1469.2008
 Red. masses --      7.7540                 2.4381                 1.7127
 Frc consts  --      8.4649                 3.0730                 2.1782
 IR Inten    --      0.6787                61.0819                13.4649

                     58                     59                     60
                      A                      A                      A
 Frequencies --   1480.5066              1496.3555              1496.9903
 Red. masses --      2.2739                 1.0464                 1.7728
 Frc consts  --      2.9366                 1.3804                 2.3407
 IR Inten    --      5.5314                 9.7032                43.5965

                     61                     62                     63
                      A                      A                      A
 Frequencies --   1502.1670              1507.8221              1606.1077
 Red. masses --      1.1337                 2.5257                 6.1812
 Frc consts  --      1.5072                 3.3833                 9.3944
 IR Inten    --     10.0813                 0.5659                22.4698

                     64                     65                     66
                      A                      A                      A
 Frequencies --   1616.7566              1622.2467              1630.3958
 Red. masses --      6.2329                 6.5941                 5.7791
 Frc consts  --      9.5991                10.2244                 9.0510
 IR Inten    --     72.7471                98.7372                39.2147

                     67                     68                     69
                      A                      A                      A
 Frequencies --   1716.2704              1725.5162              3008.7021
 Red. masses --     12.3157                12.2668                 1.0346
 Frc consts  --     21.3738                21.5188                 5.5179
 IR Inten    --      4.1648               363.4294                65.2748

                     70                     71                     72
                      A                      A                      A
 Frequencies --   3071.3794              3141.5176              3168.5711
 Red. masses --      1.1065                 1.0992                 1.0870
 Frc consts  --      6.1499                 6.3918                 6.4298
 IR Inten    --     32.3030                14.3383                 3.7101

                     73                     74                     75
                      A                      A                      A
 Frequencies --   3174.6985              3183.4150              3200.7731
 Red. masses --      1.0892                 1.0921                 1.0928
 Frc consts  --      6.4678                 6.5206                 6.5965
 IR Inten    --      9.5858                12.7353                 2.1746

                     76                     77                     78
                      A                      A                      A
 Frequencies --   3203.9218              3211.0656              3215.5185
 Red. masses --      1.0940                 1.0915                 1.0924
 Frc consts  --      6.6163                 6.6311                 6.6545
 IR Inten    --     10.8925                 1.1269                 8.4054

 - Thermochemistry -
 -------------------
 Temperature   298.150 Kelvin.  Pressure   1.00000 Atm.
 Atom     1 has atomic number  6 and mass  12.00000

 Molecular mass:   238.06299 amu.
 Principal axes and moments of inertia in atomic units:
                           1         2         3
     Eigenvalues --  2256.850505422.637047667.94222
           X            0.99135  -0.12745   0.03137
           Y            0.12393   0.98762   0.09620
           Z           -0.04324  -0.09148   0.99487
 This molecule is an asymmetric top.
 Rotational symmetry number  1.
 Warning -- assumption of classical behavior for rotation
           may cause significant error
 Rotational temperatures (Kelvin)      0.03838     0.01597     0.01130
 Rotational constants (GHZ):           0.79967     0.33282     0.23536
 Zero-point vibrational energy     554999.7 (Joules/Mol)
                                  132.64812 (Kcal/Mol)
 Warning -- explicit consideration of  21 degrees of freedom as
           vibrations may cause significant error
 Vibrational temperatures:     34.31    73.44   140.94   159.43   221.16
          (Kelvin)            241.84   275.13   354.26   390.25   406.86
                              461.18   490.19   536.95   578.92   611.81
                              621.58   681.43   690.41   709.26   806.94
                              853.36   909.49   965.21   966.64  1010.39
                             1042.41  1076.99  1132.50  1133.04  1175.99
                             1198.92  1243.77  1313.64  1320.26  1329.14
                             1417.75  1437.14  1443.61  1463.72  1518.33
                             1572.27  1596.89  1603.27  1674.83  1685.65
                             1702.54  1714.78  1736.80  1744.53  1808.93
                             1846.73  1875.15  1909.47  1942.77  1958.47
                             2104.40  2113.85  2130.12  2152.92  2153.84
                             2161.28  2169.42  2310.83  2326.15  2334.05
                             2345.78  2469.33  2482.63  4328.85  4419.03
                             4519.94  4558.87  4567.68  4580.22  4605.20
                             4609.73  4620.01  4626.41

 Zero-point correction=                           0.211388 (Hartree/Particle)
 Thermal correction to Energy=                    0.225341
 Thermal correction to Enthalpy=                  0.226285
 Thermal correction to Gibbs Free Energy=         0.169748
 Sum of electronic and zero-point Energies=           -803.289444
 Sum of electronic and thermal Energies=              -803.275491
 Sum of electronic and thermal Enthalpies=            -803.274547
 Sum of electronic and thermal Free Energies=         -803.331084

                     E (Thermal)             CV                S
                      KCal/Mol        Cal/Mol-Kelvin    Cal/Mol-Kelvin
 Total                  141.404             54.934            118.993
 Electronic               0.000              0.000              0.000
 Translational            0.889              2.981             42.303
 Rotational               0.889              2.981             32.906
 Vibrational            139.626             48.972             43.783
 Vibration     1          0.593              1.985              6.285
 Vibration     2          0.595              1.977              4.777
 Vibration     3          0.603              1.951              3.495
 Vibration     4          0.607              1.941              3.255
 Vibration     5          0.619              1.899              2.626
 Vibration     6          0.625              1.882              2.457
 Vibration     7          0.634              1.852              2.216
 Vibration     8          0.661              1.769              1.757
 Vibration     9          0.675              1.726              1.588
 Vibration    10          0.682              1.706              1.517
 Vibration    11          0.706              1.634              1.307
 Vibration    12          0.720              1.594              1.209
 Vibration    13          0.745              1.527              1.067
 Vibration    14          0.768              1.465              0.954
 Vibration    15          0.787              1.415              0.874
 Vibration    16          0.793              1.400              0.852
 Vibration    17          0.830              1.309              0.727
 Vibration    18          0.836              1.295              0.710
 Vibration    19          0.849              1.266              0.676
 Vibration    20          0.917              1.116              0.522
 Vibration    21          0.951              1.046              0.462

 Optimization completed.
    -- Stationary point found.
 Normal termination of Gaussian 16 at Wed Dec 27 20:19:42 2023.
