 Q-Chem 5.4, Q-Chem, Inc., Pleasanton, CA (2021)
 Q-Chem 5.4.0 for Intel X86 EM64T Linux

User input:
--------------------------------------------------------------
$molecule
-2 1
C                  0.05491200    4.23812700    0.72928500
C                 -1.05357800    4.23057200   -0.09553100
C                 -1.03706700    3.48202300   -1.29564700
C                  1.22154300    3.50684000    0.39992000
C                  1.23917200    2.74499700   -0.81859000
C                  0.09518900    2.75796300   -1.63625900
C                  2.37077000    3.52177800    1.26406300
C                  3.49795400    2.74334200    0.83137300
C                  3.55500100    2.00177700   -0.33866700
C                  2.41604400    1.96032300   -1.22435700
O                  2.47152800    4.16602900    2.37536000
O                  2.42572800    1.28636100   -2.29968400
O                  4.55660900    2.80177200    1.70207500
C                  4.78929500    1.22316500   -0.71507400
C                  4.73530200   -0.25984300   -0.29722000
C                  5.97700600   -1.05085500   -0.72567200
C                  5.95131200   -2.52792600   -0.31323800
C                  7.19445800   -3.31317900   -0.75017700
C                  7.18047800   -4.79007500   -0.33675200
C                  8.42602300   -5.56490300   -0.78385900
C                  8.42315500   -7.04197900   -0.37023200
C                  9.67550100   -7.79862800   -0.82985000
C                  9.67079500   -9.26102700   -0.41043300
H                  0.06492900    4.80473400    1.65448800
H                 -1.93920700    4.79934000    0.17757900
H                 -1.90805100    3.47452700   -1.94564400
H                  0.13712300    2.17323800   -2.54926800
H                  4.18895200    3.40105200    2.39409000
H                  5.67134800    1.68861100   -0.26133300
H                  4.89753300    1.26517700   -1.80475200
H                  3.84053300   -0.70896900   -0.74117100
H                  4.61978800   -0.32037300    0.79191800
H                  6.87335600   -0.57611600   -0.30201200
H                  6.08442100   -0.98435300   -1.81686700
H                  5.05612700   -3.00369700   -0.73467700
H                  5.84570500   -2.59645400    0.77773700
H                  8.08940100   -2.83181100   -0.33332200
H                  7.29654500   -3.24620300   -1.84157500
H                  6.28575900   -5.27307000   -0.75109100
H                  7.08363100   -4.85922800    0.75481400
H                  9.32040800   -5.07870400   -0.37282100
H                  8.52001400   -5.49757600   -1.87554500
H                  7.52900200   -7.52937200   -0.78001200
H                  8.33339300   -7.11008300    0.72175400
H                 10.57224500   -7.32081300   -0.42033400
H                  9.76306600   -7.74824400   -1.92070100
H                  8.80134000   -9.78268000   -0.83231200
H                  9.62087900   -9.35025000    0.68296600
O                 10.87479600   -9.86099500   -0.89027400
C                 11.10626400  -11.18554200   -0.63095600
C                 10.23889200  -12.02342800    0.07488400
C                 12.30724900  -11.70704300   -1.12176700
C                 10.58270600  -13.36183300    0.28140300
H                  9.30160900  -11.65248900    0.46901000
C                 12.62585700  -13.04321000   -0.91142800
H                 12.97585600  -11.05045800   -1.66703300
C                 11.77443300  -13.90495400   -0.20591200
H                  9.89124200  -13.98860700    0.83572800
H                 13.56197000  -13.42945600   -1.30490000
C                 12.14816900  -15.36005800    0.01143800
C                 12.42621300  -15.68817800    1.50669000
H                 11.73657300  -15.12012600    2.13983600
H                 13.43244300  -15.33303900    1.75814000
C                 12.30004800  -17.19463500    1.83068300
H                 11.27744300  -17.42215400    2.15464500
H                 12.94764200  -17.45063800    2.67811700
C                 12.63735100  -18.06251100    0.61505300
H                 12.63071200  -19.12581900    0.88383800
H                 13.66359900  -17.84282900    0.29521900
C                 11.65594100  -17.80059400   -0.54839100
H                 10.81304600  -18.49823200   -0.48721300
H                 12.15711800  -18.01410300   -1.50029000
C                 11.11382700  -16.35197100   -0.56057000
H                 10.84086800  -16.06075700   -1.58079600
H                 10.19355300  -16.29140500    0.03191400
H                 13.07975900  -15.52741400   -0.54161700
$end
$rem
MAX_SCF_CYCLES=200
BASIS  =  6-311++G(d,p)
GUI  =  2
JOB_TYPE  =  SP
THRESH = 14
SCF_CONVERGENCE  = 8
METHOD  =  B3LYP
SOLVENT_METHOD = COSMO
$end
$solvent
dielectric 37.219
opticaldielectric 1.43
$end

--------------------------------------------------------------

             Standard Nuclear Orientation (Angstroms)
    I     Atom           X                Y                Z
 ----------------------------------------------------------------
    1      C      11.7601012967     1.1399235247     1.2095109183
    2      C      12.2982098350     2.2503771371     0.5878513911
    3      C      11.6438013548     2.8229115133    -0.5278683592
    4      C      10.5555132149     0.5529433414     0.7526611758
    5      C       9.8890629376     1.1343837425    -0.3801465070
    6      C      10.4623283814     2.2640689458    -0.9905774100
    7      C      10.0037795190    -0.6034364302     1.4053975074
    8      C       8.7778522831    -1.1143827249     0.8578910613
    9      C       8.1096257742    -0.5856521341    -0.2357651489
   10      C       8.6333329878     0.5787218926    -0.9090794429
   11      O      10.5105565355    -1.2096349882     2.4231857523
   12      O       8.0466208193     1.0976586002    -1.9076385243
   13      O       8.3081542671    -2.2152162329     1.5285890620
   14      C       6.8310577072    -1.1990117564    -0.7461123114
   15      C       5.5592868465    -0.5219604442    -0.1974499964
   16      C       4.2666056643    -1.1258360261    -0.7590633571
   17      C       2.9862803837    -0.4748503223    -0.2210247764
   18      C       1.6979809791    -1.0811060308    -0.7917161124
   19      C       0.4121006383    -0.4404317354    -0.2547005986
   20      C      -0.8681964436    -1.0518027131    -0.8366888768
   21      C      -2.1596439923    -0.4206038604    -0.3013382742
   22      C      -3.4272934697    -1.0441306991    -0.8983441391
   23      C      -4.7050618964    -0.4194865698    -0.3582782533
   24      H      12.2443856083     0.6840614799     2.0667173844
   25      H      13.2244093569     2.6850611044     0.9561299945
   26      H      12.0652637569     3.6965479411    -1.0180665374
   27      H       9.9368544854     2.6817661079    -1.8430171354
   28      H       9.0062677768    -2.3187111303     2.2178780305
   29      H       6.8054635887    -2.2641354455    -0.4903881692
   30      H       6.8218833990    -1.1046980333    -1.8378537506
   31      H       5.6052650919     0.5443837852    -0.4428358211
   32      H       5.5558302126    -0.6010672942     0.8966062663
   33      H       4.2423582259    -2.2019433671    -0.5360985871
   34      H       4.2792339765    -1.0422570850    -1.8542903256
   35      H       3.0090454061     0.6003305137    -0.4419161141
   36      H       2.9710036567    -0.5589666527     0.8738571535
   37      H       1.6802515046    -2.1578883170    -0.5757721621
   38      H       1.7136179873    -0.9931492771    -1.8862827975
   39      H       0.4282841344     0.6364593645    -0.4680705109
   40      H       0.3920103790    -0.5318686411     0.8393348144
   41      H      -0.8813979687    -2.1293143354    -0.6267825716
   42      H      -0.8483103409    -0.9570208391    -1.9301999626
   43      H      -2.1476062407     0.6570415520    -0.5099446735
   44      H      -2.1822691415    -0.5186950125     0.7918200053
   45      H      -3.4489573183    -2.1193594380    -0.6895998778
   46      H      -3.4190848409    -0.9358861567    -1.9884715712
   47      H      -4.7348969968     0.6557001839    -0.5799515524
   48      H      -4.7655386273    -0.5418811803     0.7313711620
   49      O      -5.8121890153    -1.0727717983    -0.9806248989
   50      C      -7.0834964753    -0.6861112562    -0.6496883752
   51      C      -7.3976312600     0.3243086686     0.2629825149
   52      C      -8.1205443700    -1.3723046266    -1.2891365932
   53      C      -8.7353977974     0.6313623255     0.5242962178
   54      H      -6.6198538073     0.8749935043     0.7760506521
   55      C      -9.4441109485    -1.0454470094    -1.0200057421
   56      H      -7.8690358120    -2.1560833918    -1.9947487287
   57      C      -9.7868467990    -0.0372073896    -0.1082692772
   58      H      -8.9497968960     1.4187306901     1.2400674109
   59      H     -10.2346939943    -1.5879227732    -1.5308993020
   60      C     -11.2411845361     0.2980315559     0.1687936521
   61      C     -11.6724878897    -0.0674316825     1.6183328142
   62      H     -10.8445610854     0.1311692901     2.3069946485
   63      H     -11.8536155818    -1.1476860125     1.6640817639
   64      C     -12.9290258675     0.7005498435     2.0890965027
   65      H     -12.6320458039     1.6243077438     2.5998914149
   66      H     -13.4731605673     0.1070150969     2.8338742159
   67      C     -13.8437160180     1.0582552121     0.9143083686
   68      H     -14.7709873125     1.5220682367     1.2720216338
   69      H     -14.1493408878     0.1343434967     0.4076334163
   70      C     -13.1299566297     1.9951331549    -0.0847788648
   71      H     -13.3294660000     3.0399881472     0.1786363285
   72      H     -13.5544564587     1.8488634056    -1.0854192799
   73      C     -11.6006055554     1.7682897046    -0.1313820159
   74      H     -11.2069848947     2.0567461603    -1.1122127603
   75      H     -11.1034646422     2.4153221978     0.6006081691
   76      H     -11.8373633107    -0.3150531742    -0.5170895554
 ----------------------------------------------------------------

   70   -1544.8570182547      3.16e-09  Convergence criterion met
 Total energy in the final basis set =    -1544.8570182547
   12   -1545.0996968069      3.41e-09  Convergence criterion met
 Total energy in the final basis set =    -1545.0996968069

                    Orbital Energies (a.u.)
 --------------------------------------------------------------

 Alpha MOs
 -- Occupied --
-19.1536 -19.1142 -19.0299 -19.0210 -10.2345 -10.2198 -10.1765 -10.1740
-10.1740 -10.1735 -10.1730 -10.1729 -10.1706 -10.1703 -10.1636 -10.1632
-10.1609 -10.1581 -10.1579 -10.1569 -10.1566 -10.1565 -10.1561 -10.1543
-10.1529 -10.1512 -10.1484 -10.1473 -10.1445 -10.1440 -10.1434 -10.1427
-10.1393 -10.1355 -10.1315 -10.1232  -1.0676  -1.0297  -0.9472  -0.9405
 -0.8617  -0.8254  -0.8251  -0.8084  -0.7943  -0.7791  -0.7672  -0.7551
 -0.7502  -0.7345  -0.7318  -0.7216  -0.7156  -0.7003  -0.6776  -0.6492
 -0.6289  -0.6253  -0.6132  -0.6062  -0.5961  -0.5847  -0.5787  -0.5768
 -0.5694  -0.5641  -0.5523  -0.5362  -0.5356  -0.5219  -0.5036  -0.4926
 -0.4924  -0.4798  -0.4741  -0.4712  -0.4671  -0.4563  -0.4478  -0.4468
 -0.4325  -0.4312  -0.4280  -0.4250  -0.4239  -0.4206  -0.4180  -0.4105
 -0.4028  -0.4011  -0.3991  -0.3928  -0.3878  -0.3860  -0.3824  -0.3742
 -0.3715  -0.3704  -0.3674  -0.3628  -0.3587  -0.3559  -0.3537  -0.3521
 -0.3503  -0.3467  -0.3444  -0.3428  -0.3381  -0.3320  -0.3272  -0.3248
 -0.3216  -0.3182  -0.3170  -0.3158  -0.3129  -0.3109  -0.3075  -0.3043
 -0.3012  -0.3007  -0.2951  -0.2922  -0.2907  -0.2590  -0.2309  -0.2274
 -0.2219  -0.2184  -0.1990  -0.1933  -0.1072

          Ground-State Mulliken Net Atomic Charges

     Atom                 Charge (a.u.)
  ----------------------------------------
      1 C                    -0.069618
      2 C                    -0.412453
      3 C                    -0.514769
      4 C                     0.400698
      5 C                    -0.101587
      6 C                     0.018367
      7 C                    -0.860851
      8 C                    -0.651818
      9 C                     1.910723
     10 C                    -0.711064
     11 O                    -0.765502
     12 O                    -0.670679
     13 O                    -0.356068
     14 C                    -0.316524
     15 C                    -0.830740
     16 C                    -0.308681
     17 C                    -0.074167
     18 C                    -0.032738
     19 C                    -0.169073
     20 C                    -0.197610
     21 C                    -0.311619
     22 C                    -0.501124
     23 C                    -0.700466
     24 H                     0.155098
     25 H                     0.175885
     26 H                     0.169702
     27 H                     0.152760
     28 H                     0.293768
     29 H                     0.205440
     30 H                     0.173780
     31 H                     0.180237
     32 H                     0.160006
     33 H                     0.109948
     34 H                     0.116999
     35 H                     0.128136
     36 H                     0.129192
     37 H                     0.137335
     38 H                     0.137617
     39 H                     0.137217
     40 H                     0.136922
     41 H                     0.133227
     42 H                     0.132690
     43 H                     0.130598
     44 H                     0.130364
     45 H                     0.170779
     46 H                     0.172531
     47 H                     0.201711
     48 H                     0.201769
     49 O                    -0.124014
     50 C                     0.098509
     51 C                    -0.078370
     52 C                    -0.285552
     53 C                    -0.507536
     54 H                     0.200215
     55 C                    -0.300873
     56 H                     0.212540
     57 C                     0.697309
     58 H                     0.226900
     59 H                     0.200073
     60 C                     0.411737
     61 C                    -0.544695
     62 H                     0.160067
     63 H                     0.169001
     64 C                    -0.482635
     65 H                     0.137558
     66 H                     0.175034
     67 C                    -0.273382
     68 H                     0.185969
     69 H                     0.141344
     70 C                    -0.516230
     71 H                     0.161993
     72 H                     0.150901
     73 C                    -0.479026
     74 H                     0.180898
     75 H                     0.145097
     76 H                     0.190819
  ----------------------------------------
  Sum of atomic charges =    -2.000000

                    Cartesian Multipole Moments
 -----------------------------------------------------------------
    Charge (ESU x 10^10)
                -9.6064
    Dipole Moment (Debye)
         X     -89.2881      Y       0.8405      Z      -1.1129
       Tot      89.2990
    Quadrupole Moments (Debye-Ang)
        XX   -1092.3687     XY     -10.9691     YY    -249.1915
        XZ     -45.6027     YZ      18.6276     ZZ    -264.4210

 Total job time:  3144.44s(wall), 24202.40s(cpu)
        *  Thank you very much for using Q-Chem.  Have a nice day.  *
