 Q-Chem 5.4, Q-Chem, Inc., Pleasanton, CA (2021)
 Q-Chem 5.4.0 for Intel X86 EM64T Linux

User input:
--------------------------------------------------------------
$molecule
0 1
C                 -1.8432880000      3.1500440000      0.2574010000
C                 -2.9766550000      2.4344540000     -0.1160300000
C                 -2.8633900000      1.0947690000     -0.4922290000
C                 -0.5953930000      2.5221150000      0.2529290000
C                 -0.4782910000      1.1743230000     -0.1246210000
C                 -1.6195810000      0.4660240000     -0.4963800000
C                  0.6148840000      3.2663980000      0.6453280000
C                  1.9231650000      2.5501130000      0.6183980000
C                  2.0595420000      1.2475420000      0.2683890000
C                  0.8577540000      0.4857760000     -0.1310090000
O                  0.6155730000      4.4418750000      0.9931210000
O                  0.9396670000     -0.6894670000     -0.4598220000
H                 -1.9058590000      4.1900330000      0.5535170000
H                 -3.9466890000      2.9179030000     -0.1144550000
H                 -3.7476250000      0.5389780000     -0.7829820000
H                 -1.5141130000     -0.5724400000     -0.7847630000
C                  3.3939310000      0.5539530000      0.2404850000
O                  2.9678070000      3.3115090000      0.9817140000
C                  4.0595390000      0.6043370000     -1.1485700000
H                  3.2451370000     -0.4893280000      0.5270720000
H                  4.0516660000      1.0192940000      0.9778050000
H                  2.6002810000      4.1900210000      1.1963020000
H                  3.4324690000      0.1179830000     -1.8989010000
H                  5.0217820000      0.0861080000     -1.1255750000
H                  4.2385250000      1.6359320000     -1.4616840000
$end
$rem
MAX_SCF_CYCLES=200
BASIS  =  6-311++G(d,p)
GUI  =  2
JOB_TYPE  =  SP
METHOD  =  B3LYP
SOLVENT_METHOD = PCM
$end
$pcm
theory = CPCM
$end
$solvent
dielectric 37.219
opticaldielectric 1.43
$end

--------------------------------------------------------------

             Standard Nuclear Orientation (Angstroms)
    I     Atom           X                Y                Z
 ----------------------------------------------------------------
    1      C      -1.8432880000     3.1500440000     0.2574010000
    2      C      -2.9766550000     2.4344540000    -0.1160300000
    3      C      -2.8633900000     1.0947690000    -0.4922290000
    4      C      -0.5953930000     2.5221150000     0.2529290000
    5      C      -0.4782910000     1.1743230000    -0.1246210000
    6      C      -1.6195810000     0.4660240000    -0.4963800000
    7      C       0.6148840000     3.2663980000     0.6453280000
    8      C       1.9231650000     2.5501130000     0.6183980000
    9      C       2.0595420000     1.2475420000     0.2683890000
   10      C       0.8577540000     0.4857760000    -0.1310090000
   11      O       0.6155730000     4.4418750000     0.9931210000
   12      O       0.9396670000    -0.6894670000    -0.4598220000
   13      H      -1.9058590000     4.1900330000     0.5535170000
   14      H      -3.9466890000     2.9179030000    -0.1144550000
   15      H      -3.7476250000     0.5389780000    -0.7829820000
   16      H      -1.5141130000    -0.5724400000    -0.7847630000
   17      C       3.3939310000     0.5539530000     0.2404850000
   18      O       2.9678070000     3.3115090000     0.9817140000
   19      C       4.0595390000     0.6043370000    -1.1485700000
   20      H       3.2451370000    -0.4893280000     0.5270720000
   21      H       4.0516660000     1.0192940000     0.9778050000
   22      H       2.6002810000     4.1900210000     1.1963020000
   23      H       3.4324690000     0.1179830000    -1.8989010000
   24      H       5.0217820000     0.0861080000    -1.1255750000
   25      H       4.2385250000     1.6359320000    -1.4616840000
 ----------------------------------------------------------------

    9    -689.1857420903      4.05e-06  Convergence criterion met
 Total energy in the final basis set =     -689.1857420903

                    Orbital Energies (a.u.)
 --------------------------------------------------------------

 Alpha MOs
 -- Occupied --
-19.1783 -19.1497 -19.1301 -10.2939 -10.2814 -10.2674 -10.2106 -10.2094
-10.2033 -10.2006 -10.1986 -10.1969 -10.1968 -10.1776 -10.1615  -1.1086
 -1.0675  -1.0639  -0.8925  -0.8430  -0.7926  -0.7798  -0.7487  -0.6968
 -0.6612  -0.6466  -0.6086  -0.6022  -0.5736  -0.5425  -0.5185  -0.4970
 -0.4793  -0.4724  -0.4681  -0.4557  -0.4522  -0.4406  -0.4277  -0.4242
 -0.4121  -0.4069  -0.3858  -0.3790  -0.3767  -0.3709  -0.3593  -0.3480
 -0.3037  -0.2901  -0.2802  -0.2800  -0.2577

          Ground-State Mulliken Net Atomic Charges

     Atom                 Charge (a.u.)
  ----------------------------------------
      1 C                    -0.031067
      2 C                    -0.304265
      3 C                    -0.452586
      4 C                     1.062289
      5 C                    -0.088002
      6 C                     0.180407
      7 C                    -0.978864
      8 C                    -0.533702
      9 C                     1.513974
     10 C                    -0.872533
     11 O                    -0.317134
     12 O                    -0.297772
     13 H                     0.196074
     14 H                     0.230378
     15 H                     0.222119
     16 H                     0.201779
     17 C                    -0.070977
     18 O                    -0.235157
     19 C                    -0.629318
     20 H                     0.192658
     21 H                     0.202892
     22 H                     0.322576
     23 H                     0.168704
     24 H                     0.152606
     25 H                     0.164919
  ----------------------------------------
  Sum of atomic charges =     0.000000

                    Cartesian Multipole Moments
 -----------------------------------------------------------------
    Charge (ESU x 10^10)
                 0.0000
    Dipole Moment (Debye)
         X      -2.9035      Y       1.3628      Z      -0.1167
       Tot       3.2096
    Quadrupole Moments (Debye-Ang)
        XX     -74.1330     XY      -3.4912     YY     -92.4803
        XZ       2.0303     YZ      -2.2209     ZZ     -89.0371

 Total job time:  66.20s(wall), 294.29s(cpu)
        *  Thank you very much for using Q-Chem.  Have a nice day.  *
