 Gaussian 16, Revision A.03,
 Gaussian 16:  ES64L-G16RevA.03 25-Dec-2016

 ----------------------------------------------------------------
 #P UB3LYP/6-311++G(d,p) SCRF=(PCM,Solvent=n,n-DiMethylFormamide)
 ----------------------------------------------------------------

 ------------------
 Quinone PCM in DMF
 ------------------
 Symbolic Z-matrix:
 Charge =  0 Multiplicity = 1

                         Standard orientation:
 ---------------------------------------------------------------------
 Center     Atomic      Atomic             Coordinates (Angstroms)
 Number     Number       Type             X           Y           Z
 ---------------------------------------------------------------------
      1          6           0       -0.751837   -1.088368   -0.204178
      2          6           0        0.723705   -1.083486   -0.029815
      3          6           0        1.439606    0.048066    0.057210
      4          6           0        0.761864    1.374486   -0.081954
      5          6           0       -0.721531    1.368095   -0.145207
      6          6           0       -1.443834    0.236752   -0.162165
      7          8           0       -1.341868   -2.129792   -0.418652
      8          8           0        1.382647    2.414126   -0.180971
      9          1           0        1.188480   -2.062367    0.003949
     10          6           0       -2.944701    0.324050   -0.208401
     11          8           0       -3.545172    1.120128   -0.888075
     12          8           0       -3.509940   -0.547551    0.630742
     13          6           0       -4.952894   -0.551805    0.666791
     14          1           0       -5.218171   -1.316441    1.392279
     15          1           0       -5.350146   -0.798648   -0.318051
     16          1           0       -5.326687    0.424743    0.976249
     17          6           0        2.913836    0.033314    0.338530
     18          8           0        3.566369   -0.800757   -0.487723
     19          8           0        3.425381    0.666661    1.224294
     20          6           0        4.990088   -0.914880   -0.268117
     21          1           0       -1.194646    2.342844   -0.191052
     22          1           0        5.343378   -1.604276   -1.030749
     23          1           0        5.187470   -1.306041    0.730481
     24          1           0        5.465166    0.060325   -0.376202
 ---------------------------------------------------------------------

 SCF Done:  E(UB3LYP) =  -837.449753211     A.U. after   16 cycles

 The electronic state is 1-A.
 Alpha  occ. eigenvalues --  -19.19401 -19.19316 -19.16061 -19.15973 -19.14314
 Alpha  occ. eigenvalues --  -19.14127 -10.33550 -10.33499 -10.30900 -10.30870
 Alpha  occ. eigenvalues --  -10.24321 -10.24310 -10.23486 -10.23451 -10.23317
 Alpha  occ. eigenvalues --  -10.23317  -1.13768  -1.13710  -1.09315  -1.09088
 Alpha  occ. eigenvalues --   -1.05290  -1.05168  -0.89096  -0.83665  -0.76330
 Alpha  occ. eigenvalues --   -0.75345  -0.72547  -0.67934  -0.64456  -0.60355
 Alpha  occ. eigenvalues --   -0.58347  -0.55713  -0.55194  -0.54508  -0.50790
 Alpha  occ. eigenvalues --   -0.50625  -0.50275  -0.50088  -0.49072  -0.48158
 Alpha  occ. eigenvalues --   -0.46931  -0.46744  -0.44615  -0.44117  -0.43939
 Alpha  occ. eigenvalues --   -0.43159  -0.41818  -0.41424  -0.38365  -0.38255
 Alpha  occ. eigenvalues --   -0.33815  -0.33442  -0.33387  -0.33126  -0.31575
 Alpha  occ. eigenvalues --   -0.31135  -0.30857  -0.28974
 Alpha virt. eigenvalues --   -0.15494  -0.07714  -0.02963  -0.02374  -0.00671
 Alpha virt. eigenvalues --   -0.00105   0.01032   0.01198   0.01443   0.02813
 Alpha virt. eigenvalues --    0.03089   0.03172   0.03416   0.04447   0.04793

  Beta  occ. eigenvalues --  -19.19401 -19.19316 -19.16061 -19.15973 -19.14314
  Beta  occ. eigenvalues --  -19.14127 -10.33550 -10.33499 -10.30900 -10.30870
  Beta  occ. eigenvalues --  -10.24321 -10.24310 -10.23486 -10.23451 -10.23317
  Beta  occ. eigenvalues --  -10.23317  -1.13768  -1.13710  -1.09315  -1.09088
  Beta  occ. eigenvalues --   -1.05290  -1.05168  -0.89096  -0.83665  -0.76330
  Beta  occ. eigenvalues --   -0.75345  -0.72547  -0.67934  -0.64456  -0.60355
  Beta  occ. eigenvalues --   -0.58347  -0.55713  -0.55194  -0.54508  -0.50790
  Beta  occ. eigenvalues --   -0.50625  -0.50275  -0.50088  -0.49072  -0.48158
  Beta  occ. eigenvalues --   -0.46931  -0.46744  -0.44615  -0.44117  -0.43939
  Beta  occ. eigenvalues --   -0.43159  -0.41818  -0.41424  -0.38365  -0.38255
  Beta  occ. eigenvalues --   -0.33815  -0.33442  -0.33387  -0.33126  -0.31575
  Beta  occ. eigenvalues --   -0.31135  -0.30857  -0.28974
  Beta virt. eigenvalues --   -0.15494  -0.07714  -0.02963  -0.02374  -0.00671
  Beta virt. eigenvalues --   -0.00105   0.01032   0.01198   0.01443   0.02813
  Beta virt. eigenvalues --    0.03089   0.03172   0.03416   0.04447   0.04793

 Mulliken charges and spin densities:
               1          2
     1  C   -0.960245  -0.000000
     2  C   -0.009957   0.000000
     3  C    1.086636  -0.000000
     4  C   -1.002267  -0.000000
     5  C   -0.030620   0.000000
     6  C    1.164912  -0.000000
     7  O   -0.220391   0.000000
     8  O   -0.229208  -0.000000
     9  H    0.255160  -0.000000
    10  C   -0.153257   0.000000
    11  O   -0.270806  -0.000000
    12  O   -0.052191   0.000000
    13  C   -0.263217   0.000000
    14  H    0.179584  -0.000000
    15  H    0.199051   0.000000
    16  H    0.185915  -0.000000
    17  C   -0.115609  -0.000000
    18  O   -0.049041   0.000000
    19  O   -0.261226   0.000000
    20  C   -0.268416   0.000000
    21  H    0.251776  -0.000000
    22  H    0.181654   0.000000
    23  H    0.194372  -0.000000
    24  H    0.187390  -0.000000
 Sum of Mulliken charges =  -0.00000   0.00000

 Dipole moment (field-independent basis, Debye):
    X=              0.1222    Y=             -3.3464    Z=              0.6957  Tot=              3.4201
 Quadrupole moment (field-independent basis, Debye-Ang):
   XX=            -70.3682   YY=           -102.6856   ZZ=            -94.6131
   XY=            -11.4664   XZ=            -14.6148   YZ=             -0.9897

 Normal termination of Gaussian 16 at Wed Jan 24 22:51:13 2024.
