 Q-Chem 5.4, Q-Chem, Inc., Pleasanton, CA (2021)
 Q-Chem 5.4.0 for Intel X86 EM64T Linux

User input:
--------------------------------------------------------------
$molecule
0 1
C                 -1.2338700000      1.8892290000     -2.9138620000
C                 -2.1816830000      1.9616310000     -1.7816900000
C                  0.1892740000      1.8630570000     -2.5146540000
C                  0.5688860000      1.5069810000     -1.2712930000
C                 -0.4953670000      0.9120160000     -0.3936110000
C                 -1.8204110000      1.6061260000     -0.5327210000
C                 -0.3139470000     -0.2289470000      0.3460960000
C                 -1.3781070000     -0.8239760000      1.2238590000
C                  1.0111630000     -0.9229540000      0.4851040000
C                  1.3725340000     -1.2785570000      1.7340290000
C                  0.4247870000     -1.2062850000      2.8662720000
C                 -0.9983820000     -1.1800520000      2.4671770000
O                 -1.5890580000      2.0117230000     -4.0791980000
O                  0.7800220000     -1.3287570000      4.0315960000
C                  1.9524840000      1.8346960000     -0.7183870000
C                  1.8619550000      3.1306910000      0.1192640000
C                  3.0411000000      1.9754360000     -1.7901510000
C                  1.8129350000     -1.3412090000     -0.7435820000
C                  1.1697030000     -2.6081440000     -1.3522680000
C                  3.3022880000     -1.5868460000     -0.4695620000
C                 -2.7618170000     -1.1516020000      0.6711950000
C                 -3.8502650000     -1.2921570000      1.7431540000
C                 -2.6715750000     -2.4476880000     -0.1663410000
C                 -2.6221930000      2.0246660000      0.6958500000
C                 -1.9789000000      3.2916940000      1.3042790000
C                 -4.1115160000      2.2703590000      0.4217180000
H                 -3.1432710000      2.4077130000     -2.0048150000
H                  0.8884510000      2.2401130000     -3.2511040000
H                  2.3341540000     -1.7245900000      1.9570870000
H                 -1.6975330000     -1.5570550000      3.2036840000
H                  2.2530420000      1.0495590000     -0.0245030000
H                  2.8422260000      3.3666050000      0.5426930000
H                  1.1591370000      3.0272740000      0.9475980000
H                  1.5429150000      3.9746770000     -0.4982640000
H                  3.1110070000      1.0893380000     -2.4257930000
H                  4.0124560000      2.1243440000     -1.3117690000
H                  2.8628320000      2.8397670000     -2.4356110000
H                  1.7269450000     -0.5657360000     -1.5048380000
H                  1.1937880000     -3.4390930000     -0.6420810000
H                  1.7189030000     -2.9073930000     -2.2493330000
H                  0.1318720000     -2.4345410000     -1.6412470000
H                  3.4554990000     -2.4496850000      0.1842440000
H                  3.7842960000     -0.7229480000     -0.0054050000
H                  3.8201990000     -1.7972210000     -1.4087500000
H                 -3.0623940000     -0.3665310000     -0.0227320000
H                 -4.8217180000     -1.4410740000      1.2649680000
H                 -3.9200080000     -0.4060120000      2.3787460000
H                 -3.6718890000     -2.1564410000      2.3886490000
H                 -3.6519450000     -2.6835850000     -0.5895610000
H                 -2.3524890000     -3.2916200000      0.4512370000
H                 -1.9689000000     -2.3444500000     -0.9948190000
H                 -2.5362390000      1.2493840000      1.4572820000
H                 -2.5280260000      3.5911450000      2.2013240000
H                 -2.0030250000      4.1224960000      0.5939260000
H                 -0.9410390000      3.1181470000      1.5932110000
H                 -4.6294730000      2.4809790000      1.3608270000
H                 -4.5935850000      1.4064340000     -0.0423260000
H                 -4.2645670000      3.1330860000     -0.2322760000
$end
$rem
MAX_SCF_CYCLES=200
BASIS  =  6-311++G(d,p)
GUI  =  2
JOB_TYPE  =  SP
METHOD  =  B3LYP
SOLVENT_METHOD = COSMO
$end
$solvent
dielectric 37.219
opticaldielectric 1.43
$end

--------------------------------------------------------------

             Standard Nuclear Orientation (Angstroms)
    I     Atom           X                Y                Z
 ----------------------------------------------------------------
    1      C       0.0026481184    -3.1352746989     1.2671203668
    2      C      -1.2395744021    -2.6307833378     0.6444032189
    3      C       1.2440489152    -2.6284784457     0.6446475039
    4      C       1.2526700106    -1.5104000543    -0.1081262682
    5      C       0.0005165191    -0.6806439317    -0.0844639941
    6      C      -1.2501391240    -1.5126167612    -0.1082033978
    7      C      -0.0005904836     0.6807176761     0.0845613790
    8      C      -1.2526766613     1.5105887890     0.1081842568
    9      C       1.2501543028     1.5125589292     0.1082902882
   10      C       1.2397008995     2.6307882227    -0.6442455065
   11      C      -0.0024745537     3.1354337754    -1.2669451442
   12      C      -1.2439349942     2.6286586343    -0.6445867886
   13      O       0.0033646620    -4.0231465864     2.1102421173
   14      O      -0.0031435441     4.0232891700    -2.1100843212
   15      C       2.3971110833    -1.1809344401    -1.0616212246
   16      C       2.0126178334    -1.6477195267    -2.4842014021
   17      C       3.7475763625    -1.7854145445    -0.6561363944
   18      C       2.3949740281     1.1848575570     1.0619382730
   19      C       2.0102655842     1.6533697495     2.4838616483
   20      C       3.7451239598     1.7896192894     0.6557914229
   21      C      -2.3972996466     1.1811902758     1.0614756592
   22      C      -3.7476694180     1.7856812540     0.6556887793
   23      C      -2.0131107965     1.6480696294     2.4841041019
   24      C      -2.3949454894    -1.1852055200    -1.0619523554
   25      C      -2.0101064621    -1.6539405101    -2.4837674337
   26      C      -3.7450358544    -1.7900754979    -0.6557692463
   27      H      -2.1088167786    -3.2681276218     0.7522705105
   28      H       2.1144630520    -3.2641685537     0.7526087192
   29      H       2.1089917206     3.2680583337    -0.7521047057
   30      H      -2.1143432279     3.2643489261    -0.7526298521
   31      H       2.5094193682    -0.0983148968    -1.1213874304
   32      H       2.8139312429    -1.3970841520    -3.1848849939
   33      H       1.1009134251    -1.1617475735    -2.8355015092
   34      H       1.8578042690    -2.7296845268    -2.5129106203
   35      H       4.0367105084    -1.5047141343     0.3595929652
   36      H       4.5275208232    -1.4356367750    -1.3372366508
   37      H       3.7345965512    -2.8772274071    -0.7130781777
   38      H       2.5077662239     0.1023520832     1.1229560666
   39      H       1.8556416480     2.7353947087     2.5109785979
   40      H       2.8113325860     1.4035163858     3.1851185010
   41      H       1.0983230560     1.1681458393     2.8355129400
   42      H       3.7316612290     2.8814459953     0.7120073928
   43      H       4.0343579890     1.5083439813    -0.3597483668
   44      H       4.5253191777     1.4406892640     1.3370452693
   45      H      -2.5096107859     0.0985903952     1.1213204223
   46      H      -4.5277640601     1.4360181877     1.3366786060
   47      H      -4.0366340723     1.5049406951    -0.3600761565
   48      H      -3.7345986965     2.8774984589     0.7125480128
   49      H      -2.8145811516     1.3975371583     3.1846514956
   50      H      -1.8582702083     2.7300329295     2.5127308651
   51      H      -1.1014933442     1.1621186164     2.8356596031
   52      H      -2.5078315135    -0.1027393616    -1.1232118174
   53      H      -2.8111047801    -1.4042405359    -3.1851600590
   54      H      -1.8554659092    -2.7359656806    -2.5106596861
   55      H      -1.0981235836    -1.1687837618    -2.8354290268
   56      H      -4.5252611606    -1.4413884983    -1.3371148268
   57      H      -4.0343604645    -1.5087183819     0.3597223606
   58      H      -3.7313604637    -2.8819098442    -0.7118172716
 ----------------------------------------------------------------

    9   -1084.4952104474      3.56e-06  Convergence criterion met
 Total energy in the final basis set =    -1084.4952104474
    5   -1084.5178446064      8.66e-06  Convergence criterion met
 Total energy in the final basis set =    -1084.5178446064

                    Orbital Energies (a.u.)
 --------------------------------------------------------------

 Alpha MOs
 -- Occupied --
-19.1221 -19.1221 -10.2693 -10.2693 -10.2250 -10.2244 -10.2157 -10.2157
-10.2157 -10.2157 -10.1930 -10.1930 -10.1927 -10.1927 -10.1819 -10.1819
-10.1818 -10.1818 -10.1651 -10.1651 -10.1649 -10.1649 -10.1623 -10.1623
-10.1620 -10.1620  -1.0531  -1.0531  -0.8984  -0.8659  -0.8374  -0.8244
 -0.7965  -0.7898  -0.7746  -0.7484  -0.7473  -0.6987  -0.6928  -0.6915
 -0.6888  -0.6854  -0.6502  -0.6423  -0.6276  -0.6048  -0.5889  -0.5746
 -0.5605  -0.5554  -0.5374  -0.5177  -0.4905  -0.4840  -0.4770  -0.4694
 -0.4659  -0.4639  -0.4630  -0.4499  -0.4496  -0.4470  -0.4446  -0.4349
 -0.4341  -0.4135  -0.4118  -0.4107  -0.4102  -0.4085  -0.4079  -0.3960
 -0.3902  -0.3889  -0.3873  -0.3840  -0.3804  -0.3742  -0.3731  -0.3597
 -0.3555  -0.3555  -0.3516  -0.3482  -0.3481  -0.3454  -0.3447  -0.3421
 -0.3380  -0.3279  -0.2931  -0.2738  -0.2736  -0.2619  -0.2543  -0.2503

          Ground-State Mulliken Net Atomic Charges

     Atom                 Charge (a.u.)
  ----------------------------------------
      1 C                    -0.669587
      2 C                    -0.286194
      3 C                    -0.285885
      4 C                     0.791473
      5 C                     0.072505
      6 C                     0.784031
      7 C                     0.073463
      8 C                     0.781473
      9 C                     0.790762
     10 C                    -0.287065
     11 C                    -0.670097
     12 C                    -0.284900
     13 O                    -0.370056
     14 O                    -0.369805
     15 C                    -0.207631
     16 C                    -0.706837
     17 C                    -0.657851
     18 C                    -0.206482
     19 C                    -0.706209
     20 C                    -0.659121
     21 C                    -0.190891
     22 C                    -0.664815
     23 C                    -0.707030
     24 C                    -0.195340
     25 C                    -0.707126
     26 C                    -0.664422
     27 H                     0.246493
     28 H                     0.246456
     29 H                     0.246553
     30 H                     0.246594
     31 H                     0.288932
     32 H                     0.179855
     33 H                     0.142670
     34 H                     0.193458
     35 H                     0.145094
     36 H                     0.192708
     37 H                     0.161745
     38 H                     0.289518
     39 H                     0.193421
     40 H                     0.179790
     41 H                     0.142373
     42 H                     0.161691
     43 H                     0.144783
     44 H                     0.192662
     45 H                     0.290018
     46 H                     0.193108
     47 H                     0.145007
     48 H                     0.161121
     49 H                     0.179936
     50 H                     0.193309
     51 H                     0.142093
     52 H                     0.289935
     53 H                     0.179987
     54 H                     0.193272
     55 H                     0.141868
     56 H                     0.193069
     57 H                     0.144864
     58 H                     0.161257
  ----------------------------------------
  Sum of atomic charges =     0.000000

                    Cartesian Multipole Moments
 -----------------------------------------------------------------
    Charge (ESU x 10^10)
                 0.0000
    Dipole Moment (Debye)
         X      -0.0218      Y      -0.0027      Z       0.0007
       Tot       0.0220
    Quadrupole Moments (Debye-Ang)
        XX    -137.0858     XY       0.0527     YY    -203.9973
        XZ      -0.0243     YZ      36.2109     ZZ    -174.7247

 Total job time:  353.48s(wall), 2481.00s(cpu)
        *  Thank you very much for using Q-Chem.  Have a nice day.  *
