 Gaussian 16, Revision A.03,
 Gaussian 16:  ES64L-G16RevA.03 25-Dec-2016

 --------------------------------------
 #P UB3LYP/6-311++G(d,p) nosym opt freq
 --------------------------------------

 -------
 Radical
 -------
 Symbolic Z-matrix:
 Charge = -1 Multiplicity = 2

 SCF Done:  E(UB3LYP) =  -5757.81306381     A.U. after   21 cycles
 SCF Done:  E(UB3LYP) =  -5757.83330557     A.U. after   18 cycles
 SCF Done:  E(UB3LYP) =  -5757.83668370     A.U. after   18 cycles
 SCF Done:  E(UB3LYP) =  -5757.83832027     A.U. after   17 cycles
 SCF Done:  E(UB3LYP) =  -5757.83891406     A.U. after   16 cycles
 SCF Done:  E(UB3LYP) =  -5757.83925077     A.U. after   17 cycles
 SCF Done:  E(UB3LYP) =  -5757.83941992     A.U. after   16 cycles
 SCF Done:  E(UB3LYP) =  -5757.83950302     A.U. after   16 cycles
 SCF Done:  E(UB3LYP) =  -5757.83953633     A.U. after   15 cycles
 SCF Done:  E(UB3LYP) =  -5757.83954475     A.U. after   14 cycles
 SCF Done:  E(UB3LYP) =  -5757.83954734     A.U. after   14 cycles
 SCF Done:  E(UB3LYP) =  -5757.83954869     A.U. after   12 cycles
 SCF Done:  E(UB3LYP) =  -5757.83954978     A.U. after   12 cycles
 SCF Done:  E(UB3LYP) =  -5757.83955016     A.U. after   12 cycles
 SCF Done:  E(UB3LYP) =  -5757.83955027     A.U. after   10 cycles
 Optimization completed.
    -- Stationary point found.
 Normal termination of Gaussian 16 at Sun Dec 17 21:20:39 2023.

 ----------------------------------------------------------------------
 #P Geom=AllCheck Guess=TCheck SCRF=Check GenChk UB3LYP/6-311++G(d,p) F
 req
 ----------------------------------------------------------------------

 Structure from the checkpoint file:  "023-rad.chk"
 -------
 Radical
 -------
 Charge = -1 Multiplicity = 2

                          Input orientation:
 ---------------------------------------------------------------------
 Center     Atomic      Atomic             Coordinates (Angstroms)
 Number     Number       Type             X           Y           Z
 ---------------------------------------------------------------------
      1          6           0       -2.748182   -1.629109    0.044646
      2          8           0       -2.247919   -0.650566   -0.870543
      3          6           0       -1.205772    0.116479   -0.421451
      4          6           0       -1.343227    1.479480   -0.332209
      5         35           0       -3.034191    2.291493   -0.743792
      6          6           0       -0.271622    2.388141    0.061544
      7          8           0       -0.412057    3.622696    0.136303
      8          6           0        0.981447    1.702109    0.358732
      9          6           0        1.153593    0.342244    0.283435
     10          8           0        2.346908   -0.220221    0.651880
     11          6           0        3.040940   -0.945108   -0.367095
     12          6           0        0.061130   -0.537644   -0.115321
     13          8           0        0.203469   -1.788511   -0.190965
     14         35           0        2.453280    2.816974    0.886666
     15          1           0       -3.143064   -1.140749    0.944146
     16          1           0       -3.564348   -2.133740   -0.475390
     17          1           0       -1.969627   -2.344783    0.311816
     18          1           0        3.956575   -1.312534    0.099638
     19          1           0        2.438888   -1.779879   -0.728238
     20          1           0        3.303781   -0.276771   -1.196383
 ---------------------------------------------------------------------

 SCF Done:  E(UB3LYP) =  -5757.83955027     A.U. after    2 cycles

 Alpha  occ. eigenvalues -- -482.70290-482.70289 -62.35561 -62.35560 -56.17591
 Alpha  occ. eigenvalues --  -56.17590 -56.17229 -56.17228 -56.17188 -56.17187
 Alpha  occ. eigenvalues --  -19.02835 -19.02833 -18.96374 -18.95830 -10.11828
 Alpha  occ. eigenvalues --  -10.11407 -10.11405 -10.11161 -10.10619 -10.10619
 Alpha  occ. eigenvalues --  -10.09838 -10.09837  -8.56522  -8.56521  -6.39646
 Alpha  occ. eigenvalues --   -6.39645  -6.38430  -6.38429  -6.38305  -6.38304
 Alpha  occ. eigenvalues --   -2.50744  -2.50743  -2.50418  -2.50417  -2.50323
 Alpha  occ. eigenvalues --   -2.50322  -2.49354  -2.49353  -2.49351  -2.49350
 Alpha  occ. eigenvalues --   -0.94891  -0.94339  -0.88972  -0.88131  -0.72919
 Alpha  occ. eigenvalues --   -0.69537  -0.65287  -0.62322  -0.59920  -0.55567
 Alpha  occ. eigenvalues --   -0.55225  -0.46675  -0.46077  -0.40594  -0.39918
 Alpha  occ. eigenvalues --   -0.37010  -0.35871  -0.34914  -0.33852  -0.32038
 Alpha  occ. eigenvalues --   -0.32017  -0.29478  -0.29248  -0.26911  -0.26298
 Alpha  occ. eigenvalues --   -0.26217  -0.25183  -0.23835  -0.20677  -0.19101
 Alpha  occ. eigenvalues --   -0.18468  -0.18149  -0.16237  -0.15786  -0.14571
 Alpha  occ. eigenvalues --   -0.12549  -0.12006  -0.11223  -0.04505
 Alpha virt. eigenvalues --    0.08062   0.08806   0.08944   0.10519   0.11040
 Alpha virt. eigenvalues --    0.11679   0.12016   0.12277   0.12947   0.13635
 Alpha virt. eigenvalues --    0.14348   0.14485   0.15307   0.15474   0.15982

  Beta  occ. eigenvalues -- -482.70290-482.70289 -62.35560 -62.35559 -56.17593
  Beta  occ. eigenvalues --  -56.17592 -56.17224 -56.17223 -56.17188 -56.17187
  Beta  occ. eigenvalues --  -19.02817 -19.02816 -18.95642 -18.95154 -10.11755
  Beta  occ. eigenvalues --  -10.11308 -10.11306 -10.10991 -10.10613 -10.10612
  Beta  occ. eigenvalues --  -10.09710 -10.09709  -8.56521  -8.56520  -6.39649
  Beta  occ. eigenvalues --   -6.39648  -6.38422  -6.38421  -6.38305  -6.38304
  Beta  occ. eigenvalues --   -2.50746  -2.50745  -2.50414  -2.50413  -2.50325
  Beta  occ. eigenvalues --   -2.50324  -2.49349  -2.49348  -2.49347  -2.49346
  Beta  occ. eigenvalues --   -0.94744  -0.94277  -0.87833  -0.86903  -0.72441
  Beta  occ. eigenvalues --   -0.69408  -0.65054  -0.62226  -0.59705  -0.55445
  Beta  occ. eigenvalues --   -0.54362  -0.46357  -0.45743  -0.40408  -0.39745
  Beta  occ. eigenvalues --   -0.36902  -0.35496  -0.34801  -0.33673  -0.31848
  Beta  occ. eigenvalues --   -0.31731  -0.28496  -0.28255  -0.26487  -0.26089
  Beta  occ. eigenvalues --   -0.25023  -0.24233  -0.22812  -0.20411  -0.18357
  Beta  occ. eigenvalues --   -0.17933  -0.17608  -0.16214  -0.15705  -0.12323
  Beta  occ. eigenvalues --   -0.11904  -0.11403  -0.10657
  Beta virt. eigenvalues --    0.02589   0.08152   0.08830   0.09054   0.10557
  Beta virt. eigenvalues --    0.11685   0.11933   0.12171   0.12458   0.13112
  Beta virt. eigenvalues --    0.13721   0.14521   0.15056   0.15524   0.16026

 Mulliken charges and spin densities:
               1          2
     1  C   -0.270152   0.002380
     2  O   -0.127807  -0.000852
     3  C   -0.428084   0.078730
     4  C    1.069620   0.092675
     5  Br  -0.140633   0.005085
     6  C   -0.828802   0.036578
     7  O   -0.273696   0.248281
     8  C    1.070010   0.092666
     9  C   -0.428340   0.078767
    10  O   -0.127758  -0.000866
    11  C   -0.270199   0.002389
    12  C   -0.533458   0.089541
    13  O   -0.386573   0.269046
    14  Br  -0.140571   0.005086
    15  H    0.105480   0.000329
    16  H    0.124612   0.001001
    17  H    0.178148  -0.001082
    18  H    0.124623   0.001004
    19  H    0.178107  -0.001082
    20  H    0.105473   0.000323
 Sum of Mulliken charges =  -1.00000   1.00000

 Dipole moment (field-independent basis, Debye):
    X=              0.8445    Y=             -7.4252    Z=             -0.0517  Tot=              7.4733
 Quadrupole moment (field-independent basis, Debye-Ang):
   XX=           -122.2506   YY=           -149.9246   ZZ=           -113.3129
   XY=              3.7843   XZ=             -9.3495   YZ=             -2.6877

  Exact polarizability: 206.817  -1.816 211.209  20.464   8.785 105.184
 Approx polarizability: 270.811 -13.056 368.343  27.979  15.684 164.018

                      1                      2                      3
                      A                      A                      A
 Frequencies --     54.8814                66.0298                70.5578
 Red. masses --      5.2801                 7.7722                 3.1541
 Frc consts  --      0.0094                 0.0200                 0.0093
 IR Inten    --      0.5770                 4.0589                 1.7190

                      4                      5                      6
                      A                      A                      A
 Frequencies --     86.4680                99.7704               128.5853
 Red. masses --      2.3903                 5.8707                10.4120
 Frc consts  --      0.0105                 0.0344                 0.1014
 IR Inten    --      5.1301                 1.3913                 3.0690

                      7                      8                      9
                      A                      A                      A
 Frequencies --    142.9697               151.9065               169.2666
 Red. masses --      1.2399                 1.2503                10.8166
 Frc consts  --      0.0149                 0.0170                 0.1826
 IR Inten    --      0.4661                 1.7935                 3.1898

                     10                     11                     12
                      A                      A                      A
 Frequencies --    204.5192               221.1874               239.1708
 Red. masses --      4.2454                 5.6764                12.8111
 Frc consts  --      0.1046                 0.1636                 0.4318
 IR Inten    --      2.1540                 3.9605                 0.2518

                     13                     14                     15
                      A                      A                      A
 Frequencies --    239.6631               317.0978               340.1160
 Red. masses --     14.2099                 5.6886                10.1242
 Frc consts  --      0.4809                 0.3370                 0.6900
 IR Inten    --      0.9786                 9.3465                 3.0279

                     16                     17                     18
                      A                      A                      A
 Frequencies --    356.0553               378.8351               399.1765
 Red. masses --     12.3751                11.4662                 6.8223
 Frc consts  --      0.9243                 0.9696                 0.6405
 IR Inten    --      1.0091                 4.7046                 0.7298

                     19                     20                     21
                      A                      A                      A
 Frequencies --    462.7248               473.9356               555.2300
 Red. masses --      7.2188                11.9492                 9.7233
 Frc consts  --      0.9107                 1.5813                 1.7661
 IR Inten    --      2.0446                 0.1303                 2.4280

                     22                     23                     24
                      A                      A                      A
 Frequencies --    664.3602               664.4296               717.0624
 Red. masses --      7.4501                11.8431                12.0206
 Frc consts  --      1.9374                 3.0804                 3.6416
 IR Inten    --      3.8228                90.2692                 5.6916

                     25                     26                     27
                      A                      A                      A
 Frequencies --    747.9216               777.4920               897.0987
 Red. masses --     11.9779                 9.7373                12.3543
 Frc consts  --      3.9477                 3.4680                 5.8580
 IR Inten    --      2.5497                31.6090               107.5604

                     28                     29                     30
                      A                      A                      A
 Frequencies --    943.4228               990.7886              1088.4740
 Red. masses --      6.4041                 8.7244                10.2207
 Frc consts  --      3.3583                 5.0460                 7.1346
 IR Inten    --     25.4959                39.6445                98.3527

                     31                     32                     33
                      A                      A                      A
 Frequencies --   1112.2336              1162.6915              1163.2493
 Red. masses --     10.6986                 1.3717                 1.2786
 Frc consts  --      7.7978                 1.0926                 1.0193
 IR Inten    --      3.6451                33.9090                22.6564

                     34                     35                     36
                      A                      A                      A
 Frequencies --   1166.9663              1195.5297              1222.7946
 Red. masses --      4.0025                 1.5695                 1.6783
 Frc consts  --      3.2114                 1.3217                 1.4785
 IR Inten    --    129.3203                52.3240                65.2394

                     37                     38                     39
                      A                      A                      A
 Frequencies --   1266.8099              1340.6558              1444.9240
 Red. masses --      4.7791                 9.0166                 1.3528
 Frc consts  --      4.5188                 9.5484                 1.6641
 IR Inten    --    231.1214                 3.3122                 2.4643

                     40                     41                     42
                      A                      A                      A
 Frequencies --   1450.4649              1478.0013              1479.2512
 Red. masses --      1.2197                 1.1030                 1.1016
 Frc consts  --      1.5119                 1.4196                 1.4202
 IR Inten    --     63.1037                 0.2086                33.9975

                     43                     44                     45
                      A                      A                      A
 Frequencies --   1510.4840              1515.2706              1515.3306
 Red. masses --      3.8610                 1.0529                 1.0618
 Frc consts  --      5.1902                 1.4243                 1.4365
 IR Inten    --     22.2013                 8.7170                10.7935

                     46                     47                     48
                      A                      A                      A
 Frequencies --   1523.8208              1556.2322              1608.1843
 Red. masses --      7.5406                11.2277                10.2561
 Frc consts  --     10.3163                16.0210                15.6280
 IR Inten    --    370.6036                72.3989                18.5795

                     49                     50                     51
                      A                      A                      A
 Frequencies --   2996.6719              2997.1951              3079.8028
 Red. masses --      1.0413                 1.0416                 1.0900
 Frc consts  --      5.5095                 5.5131                 6.0913
 IR Inten    --    180.5172                27.1936                44.5132

                     52                     53                     54
                      A                      A                      A
 Frequencies --   3080.0734              3116.0213              3116.1859
 Red. masses --      1.0897                 1.1064                 1.1064
 Frc consts  --      6.0910                 6.3292                 6.3298
 IR Inten    --     79.1589                27.5942                 0.9759

 - Thermochemistry -
 -------------------
 Temperature   298.150 Kelvin.  Pressure   1.00000 Atm.
 Atom     1 has atomic number  6 and mass  12.00000

 Molecular mass:   323.86328 amu.
 Principal axes and moments of inertia in atomic units:
                           1         2         3
     Eigenvalues --  3298.462686546.417359608.61067
           X            0.96648  -0.11283  -0.23063
           Y            0.09554   0.99180  -0.08486
           Z            0.23832   0.05998   0.96933
 This molecule is an asymmetric top.
 Rotational symmetry number  1.
 Warning -- assumption of classical behavior for rotation
           may cause significant error
 Rotational temperatures (Kelvin)      0.02626     0.01323     0.00901
 Rotational constants (GHZ):           0.54715     0.27568     0.18783
 Zero-point vibrational energy     333447.3 (Joules/Mol)
                                   79.69583 (Kcal/Mol)
 Warning -- explicit consideration of  21 degrees of freedom as
           vibrations may cause significant error
 Vibrational temperatures:     78.96    95.00   101.52   124.41   143.55
          (Kelvin)            185.01   205.70   218.56   243.54   294.26
                              318.24   344.11   344.82   456.23   489.35
                              512.28   545.06   574.33   665.76   681.89
                              798.85   955.87   955.97  1031.69  1076.09
                             1118.64  1290.72  1357.38  1425.52  1566.07
                             1600.26  1672.85  1673.66  1679.00  1720.10
                             1759.33  1822.66  1928.90  2078.92  2086.90
                             2126.51  2128.31  2173.25  2180.14  2180.22
                             2192.44  2239.07  2313.82  4311.54  4312.30
                             4431.15  4431.54  4483.26  4483.50

 Zero-point correction=                           0.127003 (Hartree/Particle)
 Thermal correction to Energy=                    0.141765
 Thermal correction to Enthalpy=                  0.142709
 Thermal correction to Gibbs Free Energy=         0.082341
 Sum of electronic and zero-point Energies=          -5757.712547
 Sum of electronic and thermal Energies=             -5757.697785
 Sum of electronic and thermal Enthalpies=           -5757.696841
 Sum of electronic and thermal Free Energies=        -5757.757209

                     E (Thermal)             CV                S
                      KCal/Mol        Cal/Mol-Kelvin    Cal/Mol-Kelvin
 Total                   88.959             50.194            127.055
 Electronic               0.000              0.000              1.377
 Translational            0.889              2.981             43.221
 Rotational               0.889              2.981             33.694
 Vibrational             87.181             44.232             48.762
 Vibration     1          0.596              1.976              4.633
 Vibration     2          0.597              1.970              4.268
 Vibration     3          0.598              1.968              4.138
 Vibration     4          0.601              1.959              3.738
 Vibration     5          0.604              1.949              3.459
 Vibration     6          0.611              1.925              2.967
 Vibration     7          0.616              1.910              2.764
 Vibration     8          0.619              1.901              2.648
 Vibration     9          0.625              1.880              2.444
 Vibration    10          0.640              1.833              2.092
 Vibration    11          0.648              1.809              1.949
 Vibration    12          0.657              1.781              1.809
 Vibration    13          0.657              1.780              1.805
 Vibration    14          0.704              1.641              1.325
 Vibration    15          0.720              1.595              1.212
 Vibration    16          0.732              1.563              1.139
 Vibration    17          0.749              1.515              1.044
 Vibration    18          0.765              1.472              0.966
 Vibration    19          0.820              1.333              0.758
 Vibration    20          0.831              1.308              0.727
 Vibration    21          0.911              1.128              0.533

                           ! Non-Optimized Parameters !
 Normal termination of Gaussian 16 at Sun Dec 17 21:34:44 2023.
