 Gaussian 16, Revision A.03,
 Gaussian 16:  ES64L-G16RevA.03 25-Dec-2016

 --------------------------------------
 #P UB3LYP/6-311++G(d,p) nosym opt freq
 --------------------------------------

 -------
 Reduced
 -------
 Symbolic Z-matrix:
 Charge = -2 Multiplicity = 1

 SCF Done:  E(UB3LYP) =  -1012.07743309     A.U. after   77 cycles
 SCF Done:  E(UB3LYP) =  -1012.10228911     A.U. after   26 cycles
 SCF Done:  E(UB3LYP) =  -1012.10758055     A.U. after   24 cycles
 SCF Done:  E(UB3LYP) =  -1012.10649957     A.U. after   26 cycles
 SCF Done:  E(UB3LYP) =  -1012.10660313     A.U. after   24 cycles
 SCF Done:  E(UB3LYP) =  -1012.10810527     A.U. after   20 cycles
 SCF Done:  E(UB3LYP) =  -1012.10823452     A.U. after   23 cycles
 SCF Done:  E(UB3LYP) =  -1012.10842442     A.U. after   23 cycles
 SCF Done:  E(UB3LYP) =  -1012.10846343     A.U. after   23 cycles
 SCF Done:  E(UB3LYP) =  -1012.10851888     A.U. after   23 cycles
 SCF Done:  E(UB3LYP) =  -1012.10852405     A.U. after   20 cycles
 SCF Done:  E(UB3LYP) =  -1012.10852783     A.U. after   19 cycles
 SCF Done:  E(UB3LYP) =  -1012.10853134     A.U. after   20 cycles
 SCF Done:  E(UB3LYP) =  -1012.10853371     A.U. after   19 cycles
 SCF Done:  E(UB3LYP) =  -1012.10853608     A.U. after   20 cycles
 SCF Done:  E(UB3LYP) =  -1012.10853654     A.U. after   20 cycles
 Optimization completed.
    -- Stationary point found.
 Normal termination of Gaussian 16 at Tue Dec 26 22:19:31 2023.

 ----------------------------------------------------------------------
 #P Geom=AllCheck Guess=TCheck SCRF=Check GenChk UB3LYP/6-311++G(d,p) F
 req
 ----------------------------------------------------------------------

 Structure from the checkpoint file:  "277-an.chk"
 -------
 Reduced
 -------
 Charge = -2 Multiplicity = 1

                          Input orientation:
 ---------------------------------------------------------------------
 Center     Atomic      Atomic             Coordinates (Angstroms)
 Number     Number       Type             X           Y           Z
 ---------------------------------------------------------------------
      1          6           0       -0.229921    3.932008    0.226009
      2          6           0       -1.439181    3.456066    0.703174
      3          6           0       -1.659939    2.056980    0.769429
      4          6           0        0.802098    3.066450   -0.202172
      5          6           0        0.576925    1.646280   -0.141598
      6          6           0       -0.667792    1.187674    0.352477
      7          6           0        2.050473    3.637241   -0.704542
      8          6           0        3.011513    2.657072   -1.104130
      9          6           0        2.801875    1.242299   -1.034416
     10          6           0        1.580546    0.678541   -0.567402
     11          8           0        2.232243    4.910430   -0.755871
     12          8           0        1.350100   -0.596862   -0.502889
     13          1           0       -0.024304    4.996326    0.161116
     14          1           0       -2.214337    4.149574    1.026655
     15          1           0       -2.607071    1.670167    1.144022
     16          1           0       -0.802297    0.110676    0.386255
     17         16           0        4.556934    3.272113   -1.795329
     18          6           0        5.199306    4.337849   -0.442185
     19          6           0        3.870345    0.265375   -1.459486
     20          1           0        6.098266    4.839008   -0.820115
     21          1           0        5.459763    3.735389    0.433818
     22          1           0        4.419908    5.061055   -0.197116
     23          1           0        4.065212    0.293741   -2.543578
     24          1           0        3.525049   -0.738574   -1.200300
     25          1           0        4.834448    0.470323   -0.974597
 ---------------------------------------------------------------------

 SCF Done:  E(UB3LYP) =  -1012.10853654     A.U. after    2 cycles

 Alpha  occ. eigenvalues --  -88.58340 -18.77072 -18.76117  -9.94622  -9.93327
 Alpha  occ. eigenvalues --   -9.92524  -9.92437  -9.92233  -9.91467  -9.91294
 Alpha  occ. eigenvalues --   -9.90969  -9.90143  -9.89994  -9.89863  -9.88906
 Alpha  occ. eigenvalues --   -7.66878  -5.63287  -5.62902  -5.62273  -0.68886
 Alpha  occ. eigenvalues --   -0.67497  -0.59110  -0.54875  -0.51284  -0.48834
 Alpha  occ. eigenvalues --   -0.48533  -0.43745  -0.39619  -0.38071  -0.33365
 Alpha  occ. eigenvalues --   -0.32055  -0.28292  -0.24121  -0.22825  -0.19671
 Alpha  occ. eigenvalues --   -0.19349  -0.18401  -0.17253  -0.16496  -0.15810
 Alpha  occ. eigenvalues --   -0.13985  -0.13547  -0.12536  -0.12170  -0.10493
 Alpha  occ. eigenvalues --   -0.09944  -0.09070  -0.07571  -0.06386  -0.06256
 Alpha  occ. eigenvalues --   -0.05185   0.00628   0.01449   0.02324   0.04540
 Alpha  occ. eigenvalues --    0.05093   0.06095   0.13547
 Alpha virt. eigenvalues --    0.16312   0.16376   0.18113   0.18770   0.19877
 Alpha virt. eigenvalues --    0.20781   0.21657   0.22015   0.22348   0.22688
 Alpha virt. eigenvalues --    0.23839   0.24361   0.24548   0.25723   0.26112

  Beta  occ. eigenvalues --  -88.58340 -18.77072 -18.76117  -9.94622  -9.93327
  Beta  occ. eigenvalues --   -9.92524  -9.92437  -9.92233  -9.91467  -9.91294
  Beta  occ. eigenvalues --   -9.90969  -9.90143  -9.89994  -9.89863  -9.88906
  Beta  occ. eigenvalues --   -7.66878  -5.63287  -5.62902  -5.62273  -0.68886
  Beta  occ. eigenvalues --   -0.67497  -0.59110  -0.54875  -0.51284  -0.48834
  Beta  occ. eigenvalues --   -0.48533  -0.43745  -0.39619  -0.38071  -0.33365
  Beta  occ. eigenvalues --   -0.32055  -0.28292  -0.24121  -0.22825  -0.19671
  Beta  occ. eigenvalues --   -0.19349  -0.18401  -0.17253  -0.16496  -0.15810
  Beta  occ. eigenvalues --   -0.13985  -0.13547  -0.12536  -0.12170  -0.10493
  Beta  occ. eigenvalues --   -0.09944  -0.09070  -0.07571  -0.06386  -0.06256
  Beta  occ. eigenvalues --   -0.05185   0.00628   0.01449   0.02324   0.04540
  Beta  occ. eigenvalues --    0.05093   0.06095   0.13547
  Beta virt. eigenvalues --    0.16312   0.16376   0.18113   0.18770   0.19877
  Beta virt. eigenvalues --    0.20781   0.21657   0.22015   0.22348   0.22688
  Beta virt. eigenvalues --    0.23839   0.24361   0.24548   0.25723   0.26112

 Mulliken charges and spin densities:
               1          2
     1  C    0.004327   0.000000
     2  C   -0.307140  -0.000000
     3  C   -0.361058   0.000000
     4  C    0.443391   0.000000
     5  C    0.750277   0.000000
     6  C    0.085497  -0.000000
     7  C   -1.208641   0.000000
     8  C    0.613288   0.000000
     9  C    0.657271  -0.000000
    10  C   -1.224947  -0.000000
    11  O   -0.508843   0.000000
    12  O   -0.530013   0.000000
    13  H    0.134176  -0.000000
    14  H    0.068250   0.000000
    15  H    0.067097   0.000000
    16  H    0.128330  -0.000000
    17  S   -0.736777   0.000000
    18  C   -0.283036  -0.000000
    19  C   -0.234767  -0.000000
    20  H   -0.187583  -0.000000
    21  H    0.054143  -0.000000
    22  H    0.232263   0.000000
    23  H    0.083298  -0.000000
    24  H    0.181564   0.000000
    25  H    0.079633  -0.000000
 Sum of Mulliken charges =  -2.00000  -0.00000

 Dipole moment (field-independent basis, Debye):
    X=            -18.9432    Y=            -22.3575    Z=              6.5235  Tot=             30.0210
 Quadrupole moment (field-independent basis, Debye-Ang):
   XX=           -188.8006   YY=           -214.0957   ZZ=           -120.6257
   XY=            -55.8822   XZ=             26.8232   YZ=             18.4892

  Exact polarizability:1041.978 390.353 470.499 -80.008 -16.796 200.673
 Approx polarizability:1107.047 319.012 587.737-121.327  -5.660 277.910

                      1                      2                      3
                      A                      A                      A
 Frequencies --     59.0200                71.6072                87.2599
 Red. masses --      5.7521                 3.3782                 2.0833
 Frc consts  --      0.0118                 0.0102                 0.0093
 IR Inten    --      6.7408                11.3266                 5.6668

                      4                      5                      6
                      A                      A                      A
 Frequencies --    110.7751               137.8422               170.4123
 Red. masses --      1.3901                 3.9612                 1.6425
 Frc consts  --      0.0101                 0.0443                 0.0281
 IR Inten    --      9.1419                 3.4630                48.6026

                      7                      8                      9
                      A                      A                      A
 Frequencies --    184.5771               194.4220               232.7857
 Red. masses --      1.9288                 4.5744                 5.5259
 Frc consts  --      0.0387                 0.1019                 0.1764
 IR Inten    --      3.2091                 1.4414                27.4248

                     10                     11                     12
                      A                      A                      A
 Frequencies --    271.4998               298.9872               327.2589
 Red. masses --      4.5266                 5.8279                 5.0349
 Frc consts  --      0.1966                 0.3069                 0.3177
 IR Inten    --      1.3739                 3.6533                 3.1122

                     13                     14                     15
                      A                      A                      A
 Frequencies --    357.3900               372.4987               386.1427
 Red. masses --      5.2222                 9.6072                 8.0143
 Frc consts  --      0.3930                 0.7854                 0.7041
 IR Inten    --      2.6561                 0.7450                 4.7829

                     16                     17                     18
                      A                      A                      A
 Frequencies --    423.7865               457.4492               490.4235
 Red. masses --      6.5782                 3.3100                10.2638
 Frc consts  --      0.6961                 0.4081                 1.4545
 IR Inten    --    156.6498                 2.0515               306.0648

                     19                     20                     21
                      A                      A                      A
 Frequencies --    517.1872               567.3420               653.8218
 Red. masses --      4.9056                 6.4396                 6.2367
 Frc consts  --      0.7731                 1.2212                 1.5708
 IR Inten    --      4.6527                 6.7626                 9.0352

                     22                     23                     24
                      A                      A                      A
 Frequencies --    662.4233               672.0700               684.8325
 Red. masses --      6.1526                 5.6320                 1.9283
 Frc consts  --      1.5907                 1.4988                 0.5328
 IR Inten    --     17.9931                25.9132                58.3801

                     25                     26                     27
                      A                      A                      A
 Frequencies --    688.5303               751.7845               771.4060
 Red. masses --      5.1421                 2.5049                 1.8852
 Frc consts  --      1.4363                 0.8341                 0.6609
 IR Inten    --      5.9870                17.8096                 1.6732

                     28                     29                     30
                      A                      A                      A
 Frequencies --    798.2323               818.8196               849.0251
 Red. masses --      6.8371                 2.6420                 4.3380
 Frc consts  --      2.5667                 1.0437                 1.8424
 IR Inten    --     56.5389                 2.5820                28.5999

                     31                     32                     33
                      A                      A                      A
 Frequencies --    953.5274               955.6790               958.8469
 Red. masses --      1.2347                 1.1844                 1.3655
 Frc consts  --      0.6614                 0.6373                 0.7397
 IR Inten    --      0.9034                33.0919                 4.5767

                     34                     35                     36
                      A                      A                      A
 Frequencies --    965.4511               975.9993              1016.1050
 Red. masses --      4.2203                 1.4747                 2.1459
 Frc consts  --      2.3177                 0.8276                 1.3054
 IR Inten    --     33.0561                 9.8285               305.5401

                     37                     38                     39
                      A                      A                      A
 Frequencies --   1020.2850              1041.5014              1091.5875
 Red. masses --      1.8920                 1.4402                 2.0048
 Frc consts  --      1.1604                 0.9204                 1.4074
 IR Inten    --      8.5588                 1.2068                26.6943

                     40                     41                     42
                      A                      A                      A
 Frequencies --   1116.2001              1139.4530              1191.8808
 Red. masses --      1.6730                 2.8022                 2.1157
 Frc consts  --      1.2281                 2.1436                 1.7708
 IR Inten    --    221.9896               113.2431                37.9854

                     43                     44                     45
                      A                      A                      A
 Frequencies --   1208.9961              1250.9669              1288.5622
 Red. masses --      2.8477                 2.2948                 1.2255
 Frc consts  --      2.4524                 2.1159                 1.1989
 IR Inten    --    147.3976                61.5036               199.0295

                     46                     47                     48
                      A                      A                      A
 Frequencies --   1321.3982              1348.4929              1363.8798
 Red. masses --      5.2362                 3.2549                 1.9299
 Frc consts  --      5.3868                 3.4872                 2.1152
 IR Inten    --    548.1875                20.4635               102.4038

                     49                     50                     51
                      A                      A                      A
 Frequencies --   1402.4806              1413.9997              1433.5796
 Red. masses --      2.8166                 3.4390                 2.7356
 Frc consts  --      3.2642                 4.0512                 3.3124
 IR Inten    --     43.9161               325.0940               660.1201

                     52                     53                     54
                      A                      A                      A
 Frequencies --   1439.8244              1464.1720              1476.7186
 Red. masses --      1.4545                 1.2237                 2.5057
 Frc consts  --      1.7765                 1.5456                 3.2195
 IR Inten    --    441.0204                25.3302               915.0165

                     55                     56                     57
                      A                      A                      A
 Frequencies --   1488.6046              1497.4353              1498.3862
 Red. masses --      1.7113                 1.5835                 1.1122
 Frc consts  --      2.2342                 2.0921                 1.4712
 IR Inten    --    127.2012               120.2736                23.8657

                     58                     59                     60
                      A                      A                      A
 Frequencies --   1563.4284              1585.6755              2936.0732
 Red. masses --      6.8631                 5.4159                 1.0602
 Frc consts  --      9.8839                 8.0233                 5.3851
 IR Inten    --   1536.1933                54.3146               275.7975

                     61                     62                     63
                      A                      A                      A
 Frequencies --   2979.9184              2980.0516              3052.5479
 Red. masses --      1.0748                 1.0305                 1.1036
 Frc consts  --      5.6234                 5.3917                 6.0586
 IR Inten    --    134.9351                64.7009                49.1541

                     64                     65                     66
                      A                      A                      A
 Frequencies --   3073.8052              3083.3497              3098.0779
 Red. masses --      1.0939                 1.0824                 1.1054
 Frc consts  --      6.0894                 6.0628                 6.2513
 IR Inten    --     16.6719                37.4503               197.8935

                     67                     68                     69
                      A                      A                      A
 Frequencies --   3108.2622              3154.5311              3157.0144
 Red. masses --      1.0908                 1.0900                 1.0910
 Frc consts  --      6.2093                 6.3905                 6.4064
 IR Inten    --    226.5879                23.8680               130.1324

 - Thermochemistry -
 -------------------
 Temperature   298.150 Kelvin.  Pressure   1.00000 Atm.
 Atom     1 has atomic number  6 and mass  12.00000

 Molecular mass:   218.04015 amu.
 Principal axes and moments of inertia in atomic units:
                           1         2         3
     Eigenvalues --  2032.925174106.742565945.06336
           X            0.93237  -0.15597   0.32614
           Y            0.19148   0.97827  -0.07956
           Z           -0.30664   0.13662   0.94197
 This molecule is an asymmetric top.
 Rotational symmetry number  1.
 Warning -- assumption of classical behavior for rotation
           may cause significant error
 Rotational temperatures (Kelvin)      0.04261     0.02109     0.01457
 Rotational constants (GHZ):           0.88776     0.43946     0.30357
 Zero-point vibrational energy     479501.3 (Joules/Mol)
                                  114.60357 (Kcal/Mol)
 Warning -- explicit consideration of  20 degrees of freedom as
           vibrations may cause significant error
 Vibrational temperatures:     84.92   103.03   125.55   159.38   198.32
          (Kelvin)            245.19   265.57   279.73   334.93   390.63
                              430.18   470.85   514.20   535.94   555.57
                              609.73   658.17   705.61   744.12   816.28
                              940.70   953.08   966.96   985.32   990.64
                             1081.65  1109.88  1148.48  1178.10  1221.56
                             1371.91  1375.01  1379.57  1389.07  1404.25
                             1461.95  1467.96  1498.49  1570.55  1605.96
                             1639.42  1714.85  1739.48  1799.86  1853.95
                             1901.20  1940.18  1962.32  2017.86  2034.43
                             2062.60  2071.59  2106.62  2124.67  2141.77
                             2154.48  2155.84  2249.42  2281.43  4224.35
                             4287.44  4287.63  4391.94  4422.52  4436.25
                             4457.44  4472.10  4538.67  4542.24

 Zero-point correction=                           0.182632 (Hartree/Particle)
 Thermal correction to Energy=                    0.196481
 Thermal correction to Enthalpy=                  0.197425
 Thermal correction to Gibbs Free Energy=         0.142057
 Sum of electronic and zero-point Energies=          -1011.925904
 Sum of electronic and thermal Energies=             -1011.912056
 Sum of electronic and thermal Enthalpies=           -1011.911111
 Sum of electronic and thermal Free Energies=        -1011.966479

                     E (Thermal)             CV                S
                      KCal/Mol        Cal/Mol-Kelvin    Cal/Mol-Kelvin
 Total                  123.294             52.731            116.532
 Electronic               0.000              0.000              0.000
 Translational            0.889              2.981             42.042
 Rotational               0.889              2.981             32.273
 Vibrational            121.516             46.769             42.217
 Vibration     1          0.596              1.974              4.490
 Vibration     2          0.598              1.968              4.109
 Vibration     3          0.601              1.958              3.721
 Vibration     4          0.607              1.941              3.255
 Vibration     5          0.614              1.916              2.834
 Vibration     6          0.626              1.879              2.431
 Vibration     7          0.631              1.861              2.282
 Vibration     8          0.635              1.848              2.185
 Vibration     9          0.654              1.791              1.857
 Vibration    10          0.675              1.726              1.587
 Vibration    11          0.692              1.676              1.423
 Vibration    12          0.711              1.621              1.274
 Vibration    13          0.733              1.560              1.133
 Vibration    14          0.744              1.529              1.069
 Vibration    15          0.755              1.500              1.015
 Vibration    16          0.786              1.419              0.879
 Vibration    17          0.816              1.344              0.774
 Vibration    18          0.846              1.271              0.683
 Vibration    19          0.872              1.212              0.617
 Vibration    20          0.923              1.102              0.509

 Optimization completed.
    -- Stationary point found.
 Normal termination of Gaussian 16 at Tue Dec 26 22:53:49 2023.
