 Q-Chem 5.4, Q-Chem, Inc., Pleasanton, CA (2021)
 Q-Chem 5.4.0 for Intel X86 EM64T Linux

User input:
--------------------------------------------------------------
$molecule
-2 1
C                  5.0250980000     -2.3738040000      0.5781190000
C                  5.8309990000     -1.6927090000     -0.3152220000
C                  5.2310070000     -0.8948120000     -1.3212740000
C                  3.6159970000     -2.3000770000      0.5196290000
C                  3.0042320000     -1.4918630000     -0.4994010000
C                  3.8560430000     -0.8046190000     -1.4009210000
C                  2.8261880000     -3.0454260000      1.5009340000
C                  1.3818830000     -2.9025070000      1.3477910000
C                  0.7829230000     -2.0734610000      0.3014520000
C                  1.5562730000     -1.3457430000     -0.6505020000
C                  0.5506860000     -3.5874660000      2.2336250000
C                 -0.6439500000     -2.0078080000      0.2538730000
C                 -1.4551540000     -2.6726660000      1.1303880000
O                  3.3681390000     -3.7521680000      2.4006610000
O                  1.0543320000     -0.6125170000     -1.5780500000
H                  5.4475500000     -2.9939230000      1.3624000000
H                  6.9141960000     -1.7675830000     -0.2480290000
H                  5.8558390000     -0.3538130000     -2.0298200000
H                 -2.5339940000     -2.5906230000      1.0861120000
H                  3.3651260000     -0.2028260000     -2.1588460000
H                  1.0205960000     -4.2001650000      2.9940260000
H                 -1.0680430000     -1.3822130000     -0.5249360000
C                 -0.8419340000     -3.4760140000      2.1611850000
S                 -1.8271970000     -4.4053500000      3.2129110000
O                 -1.1330550000     -4.8588300000      4.4296960000
O                 -3.1784550000     -3.8306650000      3.3682610000
O                 -2.1030460000     -5.8542400000      2.3125480000
C                 -2.9882330000     -6.7861730000      2.9250530000
H                 -2.5983350000     -7.1287350000      3.8908640000
H                 -3.0588660000     -7.6392160000      2.2420010000
H                 -3.9845970000     -6.3520260000      3.0678310000
$end

$rem
BASIS  =  6-311++G(d,p)
GUI  =  2
JOB_TYPE  =  SP
METHOD  =  B3LYP
SCF_CONVERGENCE  = 8
SOLVENT_METHOD = sm12
$end

$smx
solvent dimethylformamide
charges CM5
$end

--------------------------------------------------------------

             Standard Nuclear Orientation (Angstroms)
    I     Atom           X                Y                Z
 ----------------------------------------------------------------
    1      C       5.0250980000    -2.3738040000     0.5781190000
    2      C       5.8309990000    -1.6927090000    -0.3152220000
    3      C       5.2310070000    -0.8948120000    -1.3212740000
    4      C       3.6159970000    -2.3000770000     0.5196290000
    5      C       3.0042320000    -1.4918630000    -0.4994010000
    6      C       3.8560430000    -0.8046190000    -1.4009210000
    7      C       2.8261880000    -3.0454260000     1.5009340000
    8      C       1.3818830000    -2.9025070000     1.3477910000
    9      C       0.7829230000    -2.0734610000     0.3014520000
   10      C       1.5562730000    -1.3457430000    -0.6505020000
   11      C       0.5506860000    -3.5874660000     2.2336250000
   12      C      -0.6439500000    -2.0078080000     0.2538730000
   13      C      -1.4551540000    -2.6726660000     1.1303880000
   14      O       3.3681390000    -3.7521680000     2.4006610000
   15      O       1.0543320000    -0.6125170000    -1.5780500000
   16      H       5.4475500000    -2.9939230000     1.3624000000
   17      H       6.9141960000    -1.7675830000    -0.2480290000
   18      H       5.8558390000    -0.3538130000    -2.0298200000
   19      H      -2.5339940000    -2.5906230000     1.0861120000
   20      H       3.3651260000    -0.2028260000    -2.1588460000
   21      H       1.0205960000    -4.2001650000     2.9940260000
   22      H      -1.0680430000    -1.3822130000    -0.5249360000
   23      C      -0.8419340000    -3.4760140000     2.1611850000
   24      S      -1.8271970000    -4.4053500000     3.2129110000
   25      O      -1.1330550000    -4.8588300000     4.4296960000
   26      O      -3.1784550000    -3.8306650000     3.3682610000
   27      O      -2.1030460000    -5.8542400000     2.3125480000
   28      C      -2.9882330000    -6.7861730000     2.9250530000
   29      H      -2.5983350000    -7.1287350000     3.8908640000
   30      H      -3.0588660000    -7.6392160000     2.2420010000
   31      H      -3.9845970000    -6.3520260000     3.0678310000
 ----------------------------------------------------------------

   18   -1352.1598213801      7.80e-09  Convergence criterion met
 Total energy in the final basis set =    -1352.4207236836

                    Orbital Energies (a.u.)
 --------------------------------------------------------------

 Alpha MOs
 -- Occupied --
-89.0673 -19.1471 -19.1192 -19.1182 -19.0497 -19.0274 -10.2194 -10.2089
-10.1987 -10.1895 -10.1884 -10.1794 -10.1776 -10.1770 -10.1743 -10.1708
-10.1692 -10.1654 -10.1650 -10.1626 -10.1519  -8.1283  -6.0919  -6.0906
 -6.0886  -1.1251  -1.0155  -1.0040  -0.9732  -0.9464  -0.8577  -0.8509
 -0.7878  -0.7609  -0.7483  -0.7450  -0.7102  -0.6687  -0.6503  -0.6240
 -0.5984  -0.5843  -0.5534  -0.5440  -0.5292  -0.5095  -0.4871  -0.4754
 -0.4616  -0.4586  -0.4528  -0.4425  -0.4407  -0.4301  -0.4245  -0.4086
 -0.4039  -0.3957  -0.3930  -0.3890  -0.3721  -0.3663  -0.3535  -0.3454
 -0.3423  -0.3345  -0.3328  -0.3266  -0.3221  -0.3129  -0.3083  -0.2813
 -0.2624  -0.2509  -0.2453  -0.2416  -0.2221  -0.2052  -0.1255

          Ground-State Mulliken Net Atomic Charges

     Atom                 Charge (a.u.)
  ----------------------------------------
      1 C                     0.089169
      2 C                     1.846708
      3 C                     1.821373
      4 C                    -0.233377
      5 C                    -1.368242
      6 C                    -0.058619
      7 C                    -1.909283
      8 C                    -1.219019
      9 C                    -2.269245
     10 C                    -3.050619
     11 C                     0.028635
     12 C                    -0.481044
     13 C                     0.961091
     14 O                    -0.287711
     15 O                    -0.364469
     16 H                     0.143244
     17 H                     0.423074
     18 H                     0.413115
     19 H                     0.289625
     20 H                     0.124815
     21 H                     0.097986
     22 H                     0.131917
     23 C                     0.971080
     24 S                     1.442944
     25 O                    -0.141216
     26 O                    -0.096258
     27 O                    -0.094606
     28 C                     0.170759
     29 H                     0.168773
     30 H                     0.275557
     31 H                     0.173843
  ----------------------------------------
  Sum of atomic charges =    -2.000000

                    Cartesian Multipole Moments
 -----------------------------------------------------------------
    Charge (ESU x 10^10)
                -9.6064
    Dipole Moment (Debye)
         X     -12.5282      Y      23.5095      Z      -9.5959
       Tot      28.3149
    Quadrupole Moments (Debye-Ang)
        XX    -207.9927     XY      28.2625     YY    -215.7454
        XZ       3.4455     YZ      52.8124     ZZ    -198.2871

 Total job time:  984.93s(wall), 7663.23s(cpu)
        *  Thank you very much for using Q-Chem.  Have a nice day.  *
