 Gaussian 16, Revision A.03,
 Gaussian 16:  ES64L-G16RevA.03 25-Dec-2016

 --------------------------------------
 #P UB3LYP/6-311++G(d,p) nosym opt freq
 --------------------------------------

 -------
 Radical
 -------
 Symbolic Z-matrix:
 Charge = -1 Multiplicity = 2

 SCF Done:  E(UB3LYP) =  -885.832045717     A.U. after   23 cycles
 SCF Done:  E(UB3LYP) =  -885.855807426     A.U. after   18 cycles
 SCF Done:  E(UB3LYP) =  -885.860751572     A.U. after   19 cycles
 SCF Done:  E(UB3LYP) =  -885.862528752     A.U. after   15 cycles
 SCF Done:  E(UB3LYP) =  -885.862667949     A.U. after   14 cycles
 SCF Done:  E(UB3LYP) =  -885.862684225     A.U. after   14 cycles
 SCF Done:  E(UB3LYP) =  -885.862685598     A.U. after   12 cycles
 SCF Done:  E(UB3LYP) =  -885.862685854     A.U. after   11 cycles
 SCF Done:  E(UB3LYP) =  -885.862686135     A.U. after   11 cycles
 SCF Done:  E(UB3LYP) =  -885.862687533     A.U. after   13 cycles
 SCF Done:  E(UB3LYP) =  -885.869233997     A.U. after   18 cycles
 SCF Done:  E(UB3LYP) =  -885.869206792     A.U. after   20 cycles
 SCF Done:  E(UB3LYP) =  -885.869448874     A.U. after   20 cycles
 SCF Done:  E(UB3LYP) =  -885.869514512     A.U. after   16 cycles
 SCF Done:  E(UB3LYP) =  -885.869540505     A.U. after   16 cycles
 SCF Done:  E(UB3LYP) =  -885.869547015     A.U. after   14 cycles
 SCF Done:  E(UB3LYP) =  -885.869550532     A.U. after   13 cycles
 SCF Done:  E(UB3LYP) =  -885.869550772     A.U. after   11 cycles
 SCF Done:  E(UB3LYP) =  -885.869550797     A.U. after   11 cycles
 Optimization completed.
    -- Stationary point found.
 Normal termination of Gaussian 16 at Wed Dec 27 01:48:55 2023.

 ----------------------------------------------------------------------
 #P Geom=AllCheck Guess=TCheck SCRF=Check GenChk UB3LYP/6-311++G(d,p) F
 req
 ----------------------------------------------------------------------

 Structure from the checkpoint file:  "285-rad.chk"
 -------
 Radical
 -------
 Charge = -1 Multiplicity = 2

                          Input orientation:
 ---------------------------------------------------------------------
 Center     Atomic      Atomic             Coordinates (Angstroms)
 Number     Number       Type             X           Y           Z
 ---------------------------------------------------------------------
      1          6           0       -0.225062    3.827289   -0.147305
      2          6           0       -1.441417    3.185332   -0.287736
      3          6           0       -1.482218    1.806706   -0.579038
      4          6           0        0.987703    3.119081   -0.291777
      5          6           0        0.948527    1.725885   -0.586553
      6          6           0       -0.301157    1.097013   -0.724478
      7          6           0        2.260817    3.791932   -0.144334
      8          6           0        3.446299    2.983064   -0.310709
      9          6           0        3.444597    1.632419   -0.588541
     10          6           0        2.187002    0.934809   -0.749798
     11          8           0        2.410869    5.030566    0.118432
     12          8           0        2.138885   -0.294819   -1.015178
     13          1           0       -0.167945    4.886561    0.076781
     14          1           0       -2.366719    3.742849   -0.173879
     15          1           0       -2.438081    1.303171   -0.689167
     16          1           0       -0.302636    0.036402   -0.949311
     17          8           0        4.607722    3.684500   -0.160797
     18          6           0        4.727282    0.858084   -0.749046
     19          6           0        5.191393    0.746873   -2.214279
     20          6           0        6.476820   -0.071489   -2.377756
     21          6           0        6.950422   -0.192427   -3.830898
     22          6           0        8.234481   -1.012974   -3.998498
     23          1           0        4.273726    4.588193    0.034120
     24          1           0        4.566418   -0.152811   -0.360726
     25          1           0        5.517879    1.332042   -0.158167
     26          1           0        5.344906    1.754768   -2.618344
     27          1           0        4.386813    0.287482   -2.798321
     28          1           0        6.317360   -1.076923   -1.965739
     29          1           0        7.275755    0.382133   -1.775021
     30          1           0        7.108143    0.812811   -4.243815
     31          1           0        6.151436   -0.644939   -4.432647
     32          1           0        8.077406   -2.018601   -3.585837
     33          1           0        9.034440   -0.560975   -3.396590
     34          6           0        8.707617   -1.134979   -5.451600
     35          6           0        9.990965   -1.957025   -5.608295
     36          1           0        8.865374   -0.130854   -5.864497
     37          1           0        7.909443   -1.587216   -6.053141
     38          1           0       10.817193   -1.510097   -5.045404
     39          1           0       10.301205   -2.025245   -6.655744
     40          1           0        9.853956   -2.977388   -5.235144
 ---------------------------------------------------------------------

 SCF Done:  E(UB3LYP) =  -885.869550797     A.U. after    1 cycles

 Alpha  occ. eigenvalues --  -19.01743 -18.95520 -18.94221 -10.09989 -10.09966
 Alpha  occ. eigenvalues --  -10.09505 -10.09376 -10.09127 -10.09008 -10.07970
 Alpha  occ. eigenvalues --  -10.06788 -10.05754 -10.05577 -10.05200 -10.05148
 Alpha  occ. eigenvalues --  -10.05035 -10.04963 -10.04805 -10.04407 -10.03699
 Alpha  occ. eigenvalues --   -0.93663  -0.86736  -0.86486  -0.73645  -0.73249
 Alpha  occ. eigenvalues --   -0.69845  -0.68042  -0.65011  -0.62971  -0.61961
 Alpha  occ. eigenvalues --   -0.58305  -0.54894  -0.52801  -0.50622  -0.49530
 Alpha  occ. eigenvalues --   -0.48346  -0.46304  -0.44581  -0.41437  -0.40699
 Alpha  occ. eigenvalues --   -0.38219  -0.37175  -0.36486  -0.35880  -0.34240
 Alpha  occ. eigenvalues --   -0.33894  -0.33118  -0.32543  -0.31348  -0.30577
 Alpha  occ. eigenvalues --   -0.30254  -0.29205  -0.28720  -0.28508  -0.27477
 Alpha  occ. eigenvalues --   -0.27011  -0.26140  -0.26017  -0.25831  -0.25418
 Alpha  occ. eigenvalues --   -0.24276  -0.24032  -0.23437  -0.22347  -0.22210
 Alpha  occ. eigenvalues --   -0.21802  -0.21095  -0.20777  -0.14180  -0.13520
 Alpha  occ. eigenvalues --   -0.12870  -0.10761  -0.10322  -0.02191
 Alpha virt. eigenvalues --    0.04909   0.07127   0.07527   0.07717   0.08305
 Alpha virt. eigenvalues --    0.08919   0.09767   0.10174   0.10244   0.10670
 Alpha virt. eigenvalues --    0.10833   0.11233   0.11483   0.12308   0.12500

  Beta  occ. eigenvalues --  -19.01702 -18.94849 -18.93660 -10.09989 -10.09966
  Beta  occ. eigenvalues --  -10.09412 -10.09280 -10.09007 -10.08863 -10.07970
  Beta  occ. eigenvalues --  -10.06787 -10.05749 -10.05477 -10.05191 -10.05108
  Beta  occ. eigenvalues --  -10.05006 -10.05001 -10.04674 -10.04415 -10.03616
  Beta  occ. eigenvalues --   -0.93468  -0.85773  -0.85357  -0.73418  -0.73246
  Beta  occ. eigenvalues --   -0.69770  -0.67770  -0.64840  -0.62772  -0.61847
  Beta  occ. eigenvalues --   -0.58170  -0.54303  -0.52520  -0.50578  -0.49398
  Beta  occ. eigenvalues --   -0.48218  -0.46131  -0.44339  -0.41285  -0.40696
  Beta  occ. eigenvalues --   -0.38008  -0.37150  -0.36482  -0.35633  -0.34137
  Beta  occ. eigenvalues --   -0.33821  -0.33043  -0.32493  -0.31075  -0.30485
  Beta  occ. eigenvalues --   -0.29662  -0.29075  -0.28345  -0.28122  -0.27253
  Beta  occ. eigenvalues --   -0.26811  -0.25957  -0.25759  -0.25355  -0.25130
  Beta  occ. eigenvalues --   -0.24110  -0.23482  -0.23226  -0.22099  -0.21645
  Beta  occ. eigenvalues --   -0.20949  -0.20574  -0.19934  -0.12847  -0.12272
  Beta  occ. eigenvalues --   -0.12096  -0.10215  -0.09279
  Beta virt. eigenvalues --    0.04369   0.04909   0.07126   0.07528   0.07717
  Beta virt. eigenvalues --    0.08297   0.09549   0.09777   0.10175   0.10250
  Beta virt. eigenvalues --    0.10669   0.10839   0.11489   0.12215   0.12435

 Mulliken charges and spin densities:
               1          2
     1  C    0.052245   0.066595
     2  C   -0.306471   0.001511
     3  C   -0.374394   0.080034
     4  C    0.567905   0.011534
     5  C    0.015328   0.079094
     6  C    0.085526  -0.008505
     7  C   -1.155020   0.140110
     8  C   -0.628540   0.059769
     9  C    2.194755   0.060059
    10  C   -0.920620   0.045768
    11  O   -0.450993   0.246450
    12  O   -0.361945   0.209869
    13  H    0.155883  -0.003794
    14  H    0.123474  -0.000773
    15  H    0.120006  -0.005982
    16  H    0.159799   0.000129
    17  O   -0.257598   0.014799
    18  C   -0.462718   0.010760
    19  C   -0.637058  -0.003006
    20  C   -0.072157   0.002416
    21  C   -0.068643  -0.004863
    22  C   -0.235912  -0.000692
    23  H    0.266169  -0.004315
    24  H    0.210008   0.002765
    25  H    0.210340  -0.000922
    26  H    0.152210   0.002723
    27  H    0.179479  -0.002168
    28  H    0.104424   0.000981
    29  H    0.095171  -0.000487
    30  H    0.113349   0.000046
    31  H    0.117276  -0.000038
    32  H    0.116849  -0.000015
    33  H    0.114622  -0.000003
    34  C   -0.201137  -0.000040
    35  C   -0.665652   0.000179
    36  H    0.124189   0.000002
    37  H    0.125739  -0.000018
    38  H    0.131530  -0.000026
    39  H    0.130198   0.000042
    40  H    0.132385   0.000012
 Sum of Mulliken charges =  -1.00000   1.00000

 Dipole moment (field-independent basis, Debye):
    X=            -11.6207    Y=            -10.4369    Z=              2.9055  Tot=             15.8874
 Quadrupole moment (field-independent basis, Debye-Ang):
   XX=           -175.5898   YY=           -178.5682   ZZ=           -135.3102
   XY=            -20.6450   XZ=             12.7378   YZ=             -1.9181

  Exact polarizability: 313.178 -24.033 251.752 -24.088  33.021 165.395
 Approx polarizability: 424.221   7.855 441.363   2.504  45.420 237.239

                      1                      2                      3
                      A                      A                      A
 Frequencies --     14.8982                28.0626                34.3763
 Red. masses --      5.2748                 5.1840                 1.7274
 Frc consts  --      0.0007                 0.0024                 0.0012
 IR Inten    --      0.3978                 0.5734                 0.0985

                      4                      5                      6
                      A                      A                      A
 Frequencies --     57.1408                73.2712                97.4304
 Red. masses --      2.7364                 4.8547                 2.4018
 Frc consts  --      0.0053                 0.0154                 0.0134
 IR Inten    --      0.5326                 3.6086                 0.6330

                      7                      8                      9
                      A                      A                      A
 Frequencies --    102.3638               125.2442               131.8869
 Red. masses --      3.4912                 4.5531                 2.1108
 Frc consts  --      0.0216                 0.0421                 0.0216
 IR Inten    --      1.6456                 1.0807                 0.1755

                     10                     11                     12
                      A                      A                      A
 Frequencies --    153.2281               156.5640               184.5678
 Red. masses --      1.9413                 6.1717                 7.1182
 Frc consts  --      0.0269                 0.0891                 0.1429
 IR Inten    --      0.0011                 0.4054                 1.0075

                     13                     14                     15
                      A                      A                      A
 Frequencies --    204.6540               243.5913               252.4160
 Red. masses --      3.7327                 1.1200                 4.4054
 Frc consts  --      0.0921                 0.0392                 0.1654
 IR Inten    --      0.2303                 0.0052                 2.4845

                     16                     17                     18
                      A                      A                      A
 Frequencies --    274.5013               298.7765               340.3928
 Red. masses --      4.2391                 2.8772                 5.3621
 Frc consts  --      0.1882                 0.1513                 0.3661
 IR Inten    --      0.0941                 2.0031                 6.6467

                     19                     20                     21
                      A                      A                      A
 Frequencies --    359.0394               377.2142               397.7528
 Red. masses --      4.3197                10.1437                 4.1147
 Frc consts  --      0.3281                 0.8504                 0.3835
 IR Inten    --      2.7424                13.4385                 5.3805

                     22                     23                     24
                      A                      A                      A
 Frequencies --    419.0505               430.5416               448.9099
 Red. masses --      5.2860                 9.1509                 3.6180
 Frc consts  --      0.5469                 0.9994                 0.4296
 IR Inten    --      1.0404                 1.6133                 1.6959

                     25                     26                     27
                      A                      A                      A
 Frequencies --    477.4920               489.2299               532.3105
 Red. masses --      3.4901                 5.7342                 6.7676
 Frc consts  --      0.4688                 0.8086                 1.1298
 IR Inten    --      1.3264                 2.6547                 1.0197

                     28                     29                     30
                      A                      A                      A
 Frequencies --    571.3793               645.4067               676.4466
 Red. masses --      5.4895                 6.2239                 5.7447
 Frc consts  --      1.0559                 1.5275                 1.5488
 IR Inten    --      1.7785                17.5979                 3.1998

                     31                     32                     33
                      A                      A                      A
 Frequencies --    699.5513               704.8207               712.0865
 Red. masses --      3.1258                 3.2463                 4.9781
 Frc consts  --      0.9012                 0.9502                 1.4872
 IR Inten    --      2.1079                16.9694                 1.6710

                     34                     35                     36
                      A                      A                      A
 Frequencies --    730.7284               734.2677               737.3317
 Red. masses --      1.0730                 1.1247                 1.1805
 Frc consts  --      0.3376                 0.3573                 0.3781
 IR Inten    --      4.3890               126.8125                 0.4436

                     37                     38                     39
                      A                      A                      A
 Frequencies --    760.7171               764.6224               781.6578
 Red. masses --      2.4860                 1.2719                 2.8903
 Frc consts  --      0.8476                 0.4381                 1.0405
 IR Inten    --      8.2851                 0.3574                 5.6640

                     40                     41                     42
                      A                      A                      A
 Frequencies --    820.7161               861.7530               876.8580
 Red. masses --      1.4484                 1.3888                 2.1240
 Frc consts  --      0.5748                 0.6077                 0.9622
 IR Inten    --      3.9256                 0.0552                11.5833

                     43                     44                     45
                      A                      A                      A
 Frequencies --    893.5077               932.9612               946.1610
 Red. masses --      1.9573                 1.5846                 5.0487
 Frc consts  --      0.9207                 0.8126                 2.6629
 IR Inten    --      2.2967                 5.3097                23.0021

                     46                     47                     48
                      A                      A                      A
 Frequencies --    969.2167               977.8196               988.5076
 Red. masses --      1.3137                 1.2953                 4.6937
 Frc consts  --      0.7271                 0.7297                 2.7022
 IR Inten    --      1.4349                 1.0678                 6.4962

                     49                     50                     51
                      A                      A                      A
 Frequencies --   1012.0404              1025.5827              1038.1751
 Red. masses --      1.4138                 3.1274                 2.2339
 Frc consts  --      0.8532                 1.9381                 1.4186
 IR Inten    --      1.1188                11.9626                12.6953

                     52                     53                     54
                      A                      A                      A
 Frequencies --   1039.0719              1057.4543              1058.4454
 Red. masses --      2.7793                 2.5466                 2.3554
 Frc consts  --      1.7680                 1.6778                 1.5547
 IR Inten    --      3.5702                 6.6188                26.7619

                     55                     56                     57
                      A                      A                      A
 Frequencies --   1065.1802              1107.0023              1130.7902
 Red. masses --      2.2925                 2.0679                 2.0380
 Frc consts  --      1.5325                 1.4931                 1.5354
 IR Inten    --      0.5767                 4.7304                33.4637

                     58                     59                     60
                      A                      A                      A
 Frequencies --   1134.0194              1150.5768              1196.0572
 Red. masses --      2.3005                 1.3088                 2.6068
 Frc consts  --      1.7431                 1.0209                 2.1972
 IR Inten    --     13.8484                 0.6262                 9.7015

                     61                     62                     63
                      A                      A                      A
 Frequencies --   1204.9492              1218.0148              1239.8001
 Red. masses --      2.2816                 1.7569                 1.2764
 Frc consts  --      1.9518                 1.5357                 1.1560
 IR Inten    --     18.4040                 8.3142                 0.2720

                     64                     65                     66
                      A                      A                      A
 Frequencies --   1249.0679              1270.2609              1286.1542
 Red. masses --      2.4548                 1.5266                 1.8372
 Frc consts  --      2.2565                 1.4513                 1.7905
 IR Inten    --     16.6419                33.8716                 7.0161

                     67                     68                     69
                      A                      A                      A
 Frequencies --   1296.2396              1311.6734              1323.9623
 Red. masses --      1.4841                 1.2725                 1.0335
 Frc consts  --      1.4692                 1.2899                 1.0674
 IR Inten    --     10.1906                18.1171                 2.1683

                     70                     71                     72
                      A                      A                      A
 Frequencies --   1332.7517              1336.5766              1337.9435
 Red. masses --      1.1148                 1.1327                 1.5143
 Frc consts  --      1.1667                 1.1922                 1.5971
 IR Inten    --      2.6927                19.7666                19.5702

                     73                     74                     75
                      A                      A                      A
 Frequencies --   1349.0454              1355.4000              1374.5904
 Red. masses --      2.6772                 2.9895                 1.4995
 Frc consts  --      2.8706                 3.2358                 1.6694
 IR Inten    --      6.9551                67.1987                 2.0663

                     76                     77                     78
                      A                      A                      A
 Frequencies --   1387.9412              1393.7604              1407.7807
 Red. masses --      1.5412                 1.6004                 1.2499
 Frc consts  --      1.7492                 1.8317                 1.4595
 IR Inten    --      0.9625                 1.1331                 2.1923

                     79                     80                     81
                      A                      A                      A
 Frequencies --   1436.3743              1461.0868              1465.3804
 Red. masses --      2.4164                 1.5183                 2.2067
 Frc consts  --      2.9373                 1.9097                 2.7919
 IR Inten    --    353.2293                52.0501                23.9270

                     82                     83                     84
                      A                      A                      A
 Frequencies --   1482.2374              1483.7410              1486.4402
 Red. masses --      1.1918                 1.1606                 1.7860
 Frc consts  --      1.5428                 1.5054                 2.3250
 IR Inten    --     13.6357                10.1616                52.0221

                     85                     86                     87
                      A                      A                      A
 Frequencies --   1488.8338              1496.7371              1497.8840
 Red. masses --      1.0783                 1.0783                 1.0402
 Frc consts  --      1.4083                 1.4233                 1.3751
 IR Inten    --      1.3215                 1.7460                 6.8877

                     88                     89                     90
                      A                      A                      A
 Frequencies --   1505.5429              1512.7749              1524.7817
 Red. masses --      1.0871                 1.0957                 5.6319
 Frc consts  --      1.4517                 1.4774                 7.7148
 IR Inten    --      0.2205                 9.4557               411.5104

                     91                     92                     93
                      A                      A                      A
 Frequencies --   1540.3133              1578.2366              1621.6020
 Red. masses --      5.8474                 5.3954                 5.8306
 Frc consts  --      8.1739                 7.9181                 9.0334
 IR Inten    --     71.1563                19.9788                13.7473

                     94                     95                     96
                      A                      A                      A
 Frequencies --   1639.8517              2982.9259              2986.6900
 Red. masses --      6.1992                 1.0581                 1.0571
 Frc consts  --      9.8219                 5.5468                 5.5557
 IR Inten    --      8.5721                 5.1740                 7.2800

                     97                     98                     99
                      A                      A                      A
 Frequencies --   2993.3524              3001.1173              3003.7956
 Red. masses --      1.0603                 1.0943                 1.0626
 Frc consts  --      5.5976                 5.8072                 5.6488
 IR Inten    --     25.3579                 4.3542                54.2789

                    100                    101                    102
                      A                      A                      A
 Frequencies --   3006.4724              3010.4332              3010.9381
 Red. masses --      1.0906                 1.0355                 1.0682
 Frc consts  --      5.8083                 5.5289                 5.7057
 IR Inten    --     16.3301                61.1946                16.8626

                    103                    104                    105
                      A                      A                      A
 Frequencies --   3021.9394              3025.7960              3040.4624
 Red. masses --      1.0668                 1.0957                 1.1034
 Frc consts  --      5.7396                 5.9106                 6.0097
 IR Inten    --     82.9677                19.8511                48.5332

                    106                    107                    108
                      A                      A                      A
 Frequencies --   3048.9188              3070.4771              3070.5884
 Red. masses --      1.1023                 1.1048                 1.1017
 Frc consts  --      6.0373                 6.1367                 6.1203
 IR Inten    --     30.6241                17.7230                58.3210

                    109                    110                    111
                      A                      A                      A
 Frequencies --   3071.7388              3132.8875              3152.1711
 Red. masses --      1.1026                 1.0845                 1.0909
 Frc consts  --      6.1299                 6.2717                 6.3863
 IR Inten    --    112.2436                15.6699                49.0582

                    112                    113                    114
                      A                      A                      A
 Frequencies --   3179.0796              3182.0250              3481.5482
 Red. masses --      1.0915                 1.0929                 1.0635
 Frc consts  --      6.4996                 6.5199                 7.5952
 IR Inten    --     14.3904                26.1479               105.1255

 - Thermochemistry -
 -------------------
 Temperature   298.150 Kelvin.  Pressure   1.00000 Atm.
 Atom     1 has atomic number  6 and mass  12.00000

 Molecular mass:   272.14124 amu.
 Principal axes and moments of inertia in atomic units:
                           1         2         3
     Eigenvalues --  2380.62027********************
           X            0.81288   0.53889   0.22096
           Y           -0.39913   0.79170  -0.46251
           Z           -0.42417   0.28777   0.85864
 This molecule is an asymmetric top.
 Rotational symmetry number  1.
 Warning -- assumption of classical behavior for rotation
           may cause significant error
 Rotational temperatures (Kelvin)      0.03638     0.00554     0.00504
 Rotational constants (GHZ):           0.75810     0.11536     0.10494
 Zero-point vibrational energy     872537.7 (Joules/Mol)
                                  208.54151 (Kcal/Mol)
 Warning -- explicit consideration of  28 degrees of freedom as
           vibrations may cause significant error
 Vibrational temperatures:     21.44    40.38    49.46    82.21   105.42
          (Kelvin)            140.18   147.28   180.20   189.76   220.46
                              225.26   265.55   294.45   350.47   363.17
                              394.95   429.87   489.75   516.58   542.73
                              572.28   602.92   619.45   645.88   687.00
                              703.89   765.88   822.09   928.60   973.26
                             1006.50  1014.08  1024.53  1051.36  1056.45
                             1060.86  1094.50  1100.12  1124.63  1180.83
                             1239.87  1261.60  1285.56  1342.32  1361.31
                             1394.49  1406.86  1422.24  1456.10  1475.58
                             1493.70  1494.99  1521.44  1522.87  1532.56
                             1592.73  1626.95  1631.60  1655.42  1720.86
                             1733.65  1752.45  1783.80  1797.13  1827.62
                             1850.49  1865.00  1887.21  1904.89  1917.53
                             1923.04  1925.00  1940.98  1950.12  1977.73
                             1996.94  2005.31  2025.48  2066.62  2102.18
                             2108.36  2132.61  2134.77  2138.66  2142.10
                             2153.47  2155.12  2166.14  2176.55  2193.82
                             2216.17  2270.73  2333.12  2359.38  4291.77
                             4297.18  4306.77  4317.94  4321.79  4325.64
                             4331.34  4332.07  4347.90  4353.45  4374.55
                             4386.71  4417.73  4417.89  4419.55  4507.53
                             4535.27  4573.99  4578.22  5009.17

 Zero-point correction=                           0.332332 (Hartree/Particle)
 Thermal correction to Energy=                    0.351793
 Thermal correction to Enthalpy=                  0.352737
 Thermal correction to Gibbs Free Energy=         0.281296
 Sum of electronic and zero-point Energies=           -885.537219
 Sum of electronic and thermal Energies=              -885.517758
 Sum of electronic and thermal Enthalpies=            -885.516814
 Sum of electronic and thermal Free Energies=         -885.588255

                     E (Thermal)             CV                S
                      KCal/Mol        Cal/Mol-Kelvin    Cal/Mol-Kelvin
 Total                  220.753             73.499            150.361
 Electronic               0.000              0.000              1.377
 Translational            0.889              2.981             42.702
 Rotational               0.889              2.981             34.815
 Vibrational            218.976             67.537             71.466
 Vibration     1          0.593              1.986              7.219
 Vibration     2          0.593              1.984              5.962
 Vibration     3          0.594              1.983              5.559
 Vibration     4          0.596              1.975              4.554
 Vibration     5          0.599              1.967              4.063
 Vibration     6          0.603              1.951              3.505
 Vibration     7          0.604              1.947              3.409
 Vibration     8          0.610              1.928              3.018
 Vibration     9          0.612              1.921              2.918
 Vibration    10          0.619              1.899              2.632
 Vibration    11          0.620              1.895              2.591
 Vibration    12          0.631              1.861              2.282
 Vibration    13          0.640              1.833              2.091
 Vibration    14          0.659              1.773              1.776
 Vibration    15          0.664              1.759              1.714
 Vibration    16          0.677              1.720              1.568
 Vibration    17          0.692              1.676              1.424
 Vibration    18          0.720              1.595              1.210
 Vibration    19          0.734              1.557              1.126
 Vibration    20          0.748              1.519              1.050
 Vibration    21          0.764              1.475              0.971
 Vibration    22          0.782              1.429              0.895
 Vibration    23          0.792              1.404              0.857
 Vibration    24          0.808              1.363              0.799
 Vibration    25          0.834              1.300              0.717
 Vibration    26          0.845              1.274              0.686
 Vibration    27          0.887              1.179              0.582
 Vibration    28          0.928              1.093              0.502

 Optimization completed.
    -- Stationary point found.
 Normal termination of Gaussian 16 at Wed Dec 27 04:55:18 2023.
