 Q-Chem 5.4, Q-Chem, Inc., Pleasanton, CA (2021)
 Q-Chem 5.4.0 for Intel X86 EM64T Linux

User input:
--------------------------------------------------------------
$molecule
0 1
C                 -3.5666410000      2.9972520000      1.4997700000
C                 -4.5460440000      2.1145940000      1.9386660000
C                 -4.4378980000      0.7484460000      1.6605880000
C                 -2.4597230000      2.5225890000      0.7885490000
C                 -2.3522630000      1.1518620000      0.5115990000
C                 -3.3474320000      0.2695090000      0.9462970000
C                 -1.4317090000      3.5077330000      0.3197850000
C                 -0.1888960000      2.9621870000     -0.2976820000
C                 -0.1032150000      1.5864110000     -0.6169580000
C                 -1.1919020000      0.6250510000     -0.2519500000
C                  0.9142250000      3.7875470000     -0.6236480000
C                  2.0265640000      3.2532840000     -1.2805860000
C                  2.0669810000      1.9041960000     -1.6075230000
C                  1.0116890000      1.0656410000     -1.2706950000
O                 -1.6487460000      4.7029030000      0.4370130000
O                 -1.1166030000     -0.5544770000     -0.5566200000
H                 -3.2432330000     -0.7826430000      0.7120390000
H                  1.0296920000      0.0086840000     -1.5009000000
H                 -3.6369090000      4.0596240000      1.6964530000
O                  0.8679740000      5.0943160000     -0.2415460000
H                  2.9353840000      1.5075830000     -2.1211440000
H                 -5.2058100000      0.0631330000      2.0010370000
C                  1.8607890000      5.9798730000     -0.6358680000
C                  1.7592110000      6.6223180000     -1.8786890000
C                  2.8931100000      6.2867040000      0.2431840000
C                  3.8605780000      7.2209550000     -0.1222080000
C                  2.7387120000      7.5491860000     -2.2364580000
C                  3.7863120000      7.8445800000     -1.3665130000
O                  0.7655640000      6.3103380000     -2.7660720000
C                 -0.5573260000      6.7594100000     -2.4084580000
H                 -5.3978080000      2.4876610000      2.4961800000
H                  2.8559890000      3.9013430000     -1.5301830000
H                  2.9261410000      5.7858830000      1.2036320000
H                  4.6663510000      7.4575410000      0.5624520000
H                  2.6590560000      8.0281610000     -3.2053020000
H                  4.5383770000      8.5684200000     -1.6583790000
H                 -1.2125230000      6.4117290000     -3.2059690000
H                 -0.5820440000      7.8532930000     -2.3665570000
H                 -0.8759870000      6.3377500000     -1.4536880000
$end
$rem
MAX_SCF_CYCLES=200
BASIS  =  6-311++G(d,p)
GUI  =  2
JOB_TYPE  =  SP
METHOD  =  B3LYP
SOLVENT_METHOD = PCM
$end
$pcm
theory = CPCM
$end
$solvent
dielectric 37.219
opticaldielectric 1.43
$end

--------------------------------------------------------------

             Standard Nuclear Orientation (Angstroms)
    I     Atom           X                Y                Z
 ----------------------------------------------------------------
    1      C      -3.5666410000     2.9972520000     1.4997700000
    2      C      -4.5460440000     2.1145940000     1.9386660000
    3      C      -4.4378980000     0.7484460000     1.6605880000
    4      C      -2.4597230000     2.5225890000     0.7885490000
    5      C      -2.3522630000     1.1518620000     0.5115990000
    6      C      -3.3474320000     0.2695090000     0.9462970000
    7      C      -1.4317090000     3.5077330000     0.3197850000
    8      C      -0.1888960000     2.9621870000    -0.2976820000
    9      C      -0.1032150000     1.5864110000    -0.6169580000
   10      C      -1.1919020000     0.6250510000    -0.2519500000
   11      C       0.9142250000     3.7875470000    -0.6236480000
   12      C       2.0265640000     3.2532840000    -1.2805860000
   13      C       2.0669810000     1.9041960000    -1.6075230000
   14      C       1.0116890000     1.0656410000    -1.2706950000
   15      O      -1.6487460000     4.7029030000     0.4370130000
   16      O      -1.1166030000    -0.5544770000    -0.5566200000
   17      H      -3.2432330000    -0.7826430000     0.7120390000
   18      H       1.0296920000     0.0086840000    -1.5009000000
   19      H      -3.6369090000     4.0596240000     1.6964530000
   20      O       0.8679740000     5.0943160000    -0.2415460000
   21      H       2.9353840000     1.5075830000    -2.1211440000
   22      H      -5.2058100000     0.0631330000     2.0010370000
   23      C       1.8607890000     5.9798730000    -0.6358680000
   24      C       1.7592110000     6.6223180000    -1.8786890000
   25      C       2.8931100000     6.2867040000     0.2431840000
   26      C       3.8605780000     7.2209550000    -0.1222080000
   27      C       2.7387120000     7.5491860000    -2.2364580000
   28      C       3.7863120000     7.8445800000    -1.3665130000
   29      O       0.7655640000     6.3103380000    -2.7660720000
   30      C      -0.5573260000     6.7594100000    -2.4084580000
   31      H      -5.3978080000     2.4876610000     2.4961800000
   32      H       2.8559890000     3.9013430000    -1.5301830000
   33      H       2.9261410000     5.7858830000     1.2036320000
   34      H       4.6663510000     7.4575410000     0.5624520000
   35      H       2.6590560000     8.0281610000    -3.2053020000
   36      H       4.5383770000     8.5684200000    -1.6583790000
   37      H      -1.2125230000     6.4117290000    -3.2059690000
   38      H      -0.5820440000     7.8532930000    -2.3665570000
   39      H      -0.8759870000     6.3377500000    -1.4536880000
 ----------------------------------------------------------------

    8   -1109.8557324534      9.92e-06  Convergence criterion met
 Total energy in the final basis set =    -1109.8557324534

                    Orbital Energies (a.u.)
 --------------------------------------------------------------

 Alpha MOs
 -- Occupied --
-19.1828 -19.1519 -19.1313 -19.1269 -10.2837 -10.2834 -10.2716 -10.2470
-10.2435 -10.2149 -10.2125 -10.2115 -10.2070 -10.2059 -10.2000 -10.1965
-10.1961 -10.1958 -10.1951 -10.1945 -10.1916 -10.1882 -10.1850 -10.1844
-10.1840  -1.1091  -1.0669  -1.0647  -1.0616  -0.8946  -0.8828  -0.8675
 -0.8125  -0.7908  -0.7764  -0.7715  -0.7659  -0.7496  -0.6975  -0.6901
 -0.6718  -0.6491  -0.6415  -0.6233  -0.6035  -0.5844  -0.5694  -0.5620
 -0.5339  -0.5189  -0.5110  -0.5076  -0.4969  -0.4875  -0.4839  -0.4749
 -0.4679  -0.4597  -0.4572  -0.4512  -0.4491  -0.4457  -0.4433  -0.4368
 -0.4251  -0.4184  -0.4136  -0.3993  -0.3902  -0.3875  -0.3789  -0.3787
 -0.3757  -0.3673  -0.3666  -0.3582  -0.3445  -0.2974  -0.2905  -0.2877
 -0.2776  -0.2764  -0.2738  -0.2640  -0.2538  -0.2496

          Ground-State Mulliken Net Atomic Charges

     Atom                 Charge (a.u.)
  ----------------------------------------
      1 C                     0.095867
      2 C                    -0.419301
      3 C                    -0.426235
      4 C                     0.153425
      5 C                    -0.134818
      6 C                    -0.002085
      7 C                    -0.210856
      8 C                     0.560877
      9 C                     0.343149
     10 C                    -0.656874
     11 C                    -0.142229
     12 C                    -0.257285
     13 C                    -0.252634
     14 C                     0.002213
     15 O                    -0.240710
     16 O                    -0.283379
     17 H                     0.195867
     18 H                     0.187847
     19 H                     0.184697
     20 O                     0.059219
     21 H                     0.251010
     22 H                     0.223091
     23 C                    -0.055359
     24 C                    -0.277722
     25 C                     0.136358
     26 C                    -0.276495
     27 C                     0.194378
     28 C                    -0.389525
     29 O                    -0.160703
     30 C                    -0.266487
     31 H                     0.225611
     32 H                     0.238088
     33 H                     0.213596
     34 H                     0.224719
     35 H                     0.237196
     36 H                     0.208319
     37 H                     0.178499
     38 H                     0.152845
     39 H                     0.185810
  ----------------------------------------
  Sum of atomic charges =    -0.000015

                    Cartesian Multipole Moments
 -----------------------------------------------------------------
    Charge (ESU x 10^10)
                -0.0001
    Dipole Moment (Debye)
         X       1.2197      Y       1.5480      Z       1.0738
       Tot       2.2443
    Quadrupole Moments (Debye-Ang)
        XX    -111.0919     XY      15.0091     YY    -135.1986
        XZ     -10.0577     YZ      -4.2042     ZZ    -140.4453

 Total job time:  107.85s(wall), 762.82s(cpu)
        *  Thank you very much for using Q-Chem.  Have a nice day.  *
