 Gaussian 16, Revision A.03,
 Gaussian 16:  ES64L-G16RevA.03 25-Dec-2016

 --------------------------------------
 #P UB3LYP/6-311++G(d,p) nosym opt freq
 --------------------------------------

 -------
 Reduced
 -------
 Symbolic Z-matrix:
 Charge = -2 Multiplicity = 1

 SCF Done:  E(UB3LYP) =  -718.707337867     A.U. after   21 cycles
 SCF Done:  E(UB3LYP) =  -718.707337851     A.U. after   13 cycles
 SCF Done:  E(UB3LYP) =  -718.707338711     A.U. after   12 cycles
 Optimization completed.
    -- Stationary point found.
 Normal termination of Gaussian 16 at Wed Jan 10 04:54:08 2024.

 ----------------------------------------------------------------------
 #P Geom=AllCheck Guess=TCheck SCRF=Check GenChk UB3LYP/6-311++G(d,p) F
 req
 ----------------------------------------------------------------------

 Structure from the checkpoint file:  "075-an.chk"
 -------
 Reduced
 -------
 Charge = -2 Multiplicity = 1

                          Input orientation:
 ---------------------------------------------------------------------
 Center     Atomic      Atomic             Coordinates (Angstroms)
 Number     Number       Type             X           Y           Z
 ---------------------------------------------------------------------
      1          6           0        1.572939    1.114716   -1.601239
      2          6           0        0.194746    0.895413   -1.343188
      3          6           0       -0.299415    0.154880   -0.230940
      4          6           0        0.561692   -0.452779    0.754780
      5          6           0        1.953314   -0.219370    0.475790
      6          6           0        2.422877    0.505141   -0.613120
      7          8           0        2.037357    1.791156   -2.616663
      8          8           0        0.157785   -1.131318    1.776629
      9          6           0       -1.756539   -0.003126   -0.071579
     10          9           0       -2.502090    0.613407   -1.063756
     11          9           0       -2.226400   -1.306708   -0.087838
     12          9           0       -2.294527    0.515094    1.095506
     13          1           0       -0.510141    1.326515   -2.047934
     14          1           0        2.657739   -0.654392    1.186644
     15          1           0        3.498804    0.634689   -0.750492
 ---------------------------------------------------------------------

 SCF Done:  E(UB3LYP) =  -718.707338711     A.U. after    1 cycles

 Alpha  occ. eigenvalues --  -24.43926 -24.42855 -24.42852 -18.74317 -18.73382
 Alpha  occ. eigenvalues --  -10.14286  -9.91151  -9.89832  -9.87575  -9.86707
 Alpha  occ. eigenvalues --   -9.86412  -9.86080  -1.02743  -0.94453  -0.93743
 Alpha  occ. eigenvalues --   -0.65851  -0.64119  -0.52490  -0.47580  -0.41429
 Alpha  occ. eigenvalues --   -0.38020  -0.32633  -0.31673  -0.30929  -0.27849
 Alpha  occ. eigenvalues --   -0.22444  -0.19927  -0.19630  -0.16605  -0.15852
 Alpha  occ. eigenvalues --   -0.15379  -0.15267  -0.13853  -0.13710  -0.10606
 Alpha  occ. eigenvalues --   -0.08181  -0.07890  -0.05852  -0.05118  -0.03347
 Alpha  occ. eigenvalues --    0.04152   0.04984   0.07907   0.08662   0.15173
 Alpha virt. eigenvalues --    0.20003   0.21646   0.21773   0.24818   0.26580
 Alpha virt. eigenvalues --    0.27049   0.27423   0.28962   0.29437   0.30851
 Alpha virt. eigenvalues --    0.31062   0.32833   0.33247   0.33365   0.33999

  Beta  occ. eigenvalues --  -24.43926 -24.42855 -24.42852 -18.74317 -18.73382
  Beta  occ. eigenvalues --  -10.14286  -9.91151  -9.89832  -9.87575  -9.86707
  Beta  occ. eigenvalues --   -9.86412  -9.86080  -1.02743  -0.94453  -0.93743
  Beta  occ. eigenvalues --   -0.65851  -0.64119  -0.52490  -0.47580  -0.41429
  Beta  occ. eigenvalues --   -0.38020  -0.32633  -0.31673  -0.30929  -0.27849
  Beta  occ. eigenvalues --   -0.22444  -0.19927  -0.19630  -0.16605  -0.15852
  Beta  occ. eigenvalues --   -0.15379  -0.15267  -0.13853  -0.13710  -0.10606
  Beta  occ. eigenvalues --   -0.08181  -0.07890  -0.05852  -0.05118  -0.03347
  Beta  occ. eigenvalues --    0.04152   0.04984   0.07907   0.08662   0.15173
  Beta virt. eigenvalues --    0.20003   0.21646   0.21773   0.24818   0.26580
  Beta virt. eigenvalues --    0.27049   0.27423   0.28962   0.29437   0.30851
  Beta virt. eigenvalues --    0.31062   0.32833   0.33247   0.33365   0.33999

 Mulliken charges and spin densities:
               1          2
     1  C   -0.995597  -0.000000
     2  C   -0.172921   0.000000
     3  C    0.574151  -0.000000
     4  C   -0.870367   0.000000
     5  C    0.192310  -0.000000
     6  C    0.368808   0.000000
     7  O   -0.610217   0.000000
     8  O   -0.560538   0.000000
     9  C    0.484704  -0.000000
    10  F   -0.240027   0.000000
    11  F   -0.159743   0.000000
    12  F   -0.159661   0.000000
    13  H    0.060492   0.000000
    14  H    0.047585   0.000000
    15  H    0.041022   0.000000
 Sum of Mulliken charges =  -2.00000   0.00000

 Dipole moment (field-independent basis, Debye):
    X=             -5.1774    Y=             -3.0239    Z=              4.1209  Tot=              7.2754
 Quadrupole moment (field-independent basis, Debye-Ang):
   XX=           -107.4137   YY=            -94.6249   ZZ=           -115.0761
   XY=            -13.4685   XZ=             18.9117   YZ=             24.9100

  Exact polarizability: 150.716   4.407  98.602  -2.444 -35.298 129.747
 Approx polarizability: 225.530   3.166 148.205   1.868 -60.276 201.912

                      1                      2                      3
                      A                      A                      A
 Frequencies --     38.7442               103.6172               145.5703
 Red. masses --     15.5594                 5.7687                12.3095
 Frc consts  --      0.0138                 0.0365                 0.1537
 IR Inten    --      0.8218                 4.4222                 5.4496

                      4                      5                      6
                      A                      A                      A
 Frequencies --    174.0314               278.2260               293.7035
 Red. masses --     13.7470                15.3650                 9.0267
 Frc consts  --      0.2453                 0.7008                 0.4588
 IR Inten    --      1.5284                 0.8311                 0.0056

                      7                      8                      9
                      A                      A                      A
 Frequencies --    337.9632               358.1950               405.9964
 Red. masses --     17.0699                 6.1912                 9.3603
 Frc consts  --      1.1487                 0.4680                 0.9090
 IR Inten    --      6.3345                 0.2811                 0.6467

                     10                     11                     12
                      A                      A                      A
 Frequencies --    450.4221               481.0579               501.7001
 Red. masses --      4.5889                11.9897                10.9251
 Frc consts  --      0.5485                 1.6348                 1.6202
 IR Inten    --      0.3280                 1.3133                 0.0970

                     13                     14                     15
                      A                      A                      A
 Frequencies --    528.7967               574.2570               601.0656
 Red. masses --      3.3933                 6.3486                 3.8222
 Frc consts  --      0.5591                 1.2335                 0.8136
 IR Inten    --      5.2996                 1.1724                21.8394

                     16                     17                     18
                      A                      A                      A
 Frequencies --    664.0924               713.1331               717.5334
 Red. masses --      8.7024                11.8659                 2.4347
 Frc consts  --      2.2612                 3.5554                 0.7386
 IR Inten    --     16.2538                10.5393                 2.3663

                     19                     20                     21
                      A                      A                      A
 Frequencies --    796.4622               812.1616               814.8004
 Red. masses --      1.8595                 6.3378                 2.2394
 Frc consts  --      0.6950                 2.4631                 0.8760
 IR Inten    --      2.5621               130.2831                43.3634

                     22                     23                     24
                      A                      A                      A
 Frequencies --    882.0597               886.1962               972.8168
 Red. masses --      1.2806                 6.6901                 7.3504
 Frc consts  --      0.5870                 3.0956                 4.0985
 IR Inten    --      1.2155               107.9053                37.9345

                     25                     26                     27
                      A                      A                      A
 Frequencies --    975.0437              1018.5748              1099.7307
 Red. masses --     12.4235                 3.4961                 1.6916
 Frc consts  --      6.9589                 2.1371                 1.2054
 IR Inten    --    296.9171               258.3208                34.1502

                     28                     29                     30
                      A                      A                      A
 Frequencies --   1154.8593              1228.8284              1246.5494
 Red. masses --      2.7538                 1.8895                 3.1946
 Frc consts  --      2.1639                 1.6810                 2.9248
 IR Inten    --    485.5567               203.6665                46.7638

                     31                     32                     33
                      A                      A                      A
 Frequencies --   1312.8634              1341.0392              1408.4444
 Red. masses --      2.9983                 8.4895                 4.7263
 Frc consts  --      3.0448                 8.9953                 5.5240
 IR Inten    --    248.9337                86.8464               129.6579

                     34                     35                     36
                      A                      A                      A
 Frequencies --   1460.5243              1478.2064              1616.4263
 Red. masses --      5.4527                 3.8987                 6.9276
 Frc consts  --      6.8529                 5.0193                10.6646
 IR Inten    --    309.9753               865.1938                 3.7456

                     37                     38                     39
                      A                      A                      A
 Frequencies --   3057.0234              3090.2336              3143.8932
 Red. masses --      1.0831                 1.0915                 1.0867
 Frc consts  --      5.9634                 6.1415                 6.3282
 IR Inten    --     80.8767               143.3964                42.8117

 - Thermochemistry -
 -------------------
 Temperature   298.150 Kelvin.  Pressure   1.00000 Atm.
 Atom     1 has atomic number  6 and mass  12.00000

 Molecular mass:   176.00851 amu.
 Principal axes and moments of inertia in atomic units:
                           1         2         3
     Eigenvalues --  1189.406612502.978203371.89348
           X            0.89134   0.45224  -0.03143
           Y            0.26988  -0.47365   0.83835
           Z           -0.36424   0.75574   0.54423
 This molecule is an asymmetric top.
 Rotational symmetry number  1.
 Warning -- assumption of classical behavior for rotation
           may cause significant error
 Rotational temperatures (Kelvin)      0.07282     0.03460     0.02569
 Rotational constants (GHZ):           1.51735     0.72104     0.53523
 Zero-point vibrational energy     222295.1 (Joules/Mol)
                                   53.12981 (Kcal/Mol)
 Warning -- explicit consideration of  15 degrees of freedom as
           vibrations may cause significant error
 Vibrational temperatures:     55.74   149.08   209.44   250.39   400.31
          (Kelvin)            422.57   486.25   515.36   584.14   648.06
                              692.13   721.83   760.82   826.23   864.80
                              955.48  1026.04  1032.37  1145.93  1168.52
                             1172.32  1269.09  1275.04  1399.67  1402.87
                             1465.50  1582.27  1661.58  1768.01  1793.51
                             1888.92  1929.46  2026.44  2101.37  2126.81
                             2325.68  4398.37  4446.16  4523.36

 Zero-point correction=                           0.084668 (Hartree/Particle)
 Thermal correction to Energy=                    0.094425
 Thermal correction to Enthalpy=                  0.095369
 Thermal correction to Gibbs Free Energy=         0.048663
 Sum of electronic and zero-point Energies=           -718.622671
 Sum of electronic and thermal Energies=              -718.612913
 Sum of electronic and thermal Enthalpies=            -718.611969
 Sum of electronic and thermal Free Energies=         -718.658676

                     E (Thermal)             CV                S
                      KCal/Mol        Cal/Mol-Kelvin    Cal/Mol-Kelvin
 Total                   59.253             36.986             98.303
 Electronic               0.000              0.000              0.000
 Translational            0.889              2.981             41.403
 Rotational               0.889              2.981             30.685
 Vibrational             57.475             31.024             26.215
 Vibration     1          0.594              1.981              5.322
 Vibration     2          0.605              1.946              3.385
 Vibration     3          0.617              1.907              2.729
 Vibration     4          0.627              1.874              2.391
 Vibration     5          0.679              1.714              1.545
 Vibration     6          0.688              1.685              1.453
 Vibration     7          0.718              1.600              1.222
 Vibration     8          0.733              1.558              1.130
 Vibration     9          0.771              1.457              0.941
 Vibration    10          0.809              1.360              0.794
 Vibration    11          0.837              1.292              0.707
 Vibration    12          0.857              1.246              0.654
 Vibration    13          0.884              1.186              0.590
 Vibration    14          0.931              1.087              0.496
 Vibration    15          0.959              1.030              0.448

                           ! Non-Optimized Parameters !
 Normal termination of Gaussian 16 at Wed Jan 10 05:05:41 2024.
