 Gaussian 16, Revision A.03,
 Gaussian 16:  ES64L-G16RevA.03 25-Dec-2016

 ----------------------------------------------------------------
 #P UB3LYP/6-311++G(d,p) SCRF=(PCM,Solvent=n,n-DiMethylFormamide)
 ----------------------------------------------------------------

 -------
 Reduced
 -------
 Symbolic Z-matrix:
 Charge = -2 Multiplicity = 1

                         Standard orientation:
 ---------------------------------------------------------------------
 Center     Atomic      Atomic             Coordinates (Angstroms)
 Number     Number       Type             X           Y           Z
 ---------------------------------------------------------------------
      1          6           0        2.247488   -0.686431   -0.000047
      2          6           0        0.862420   -0.995765    0.000046
      3          6           0       -0.172441   -0.016611    0.000016
      4          6           0        0.087519    1.402833    0.000050
      5          6           0        1.495810    1.695480   -0.000052
      6          6           0        2.496077    0.730806   -0.000064
      7          8           0        3.204257   -1.574650    0.000086
      8          8           0       -0.817863    2.323710    0.000082
      9          6           0       -1.576887   -0.465055   -0.000049
     10          9           0       -1.728637   -1.842496   -0.000377
     11          9           0       -2.337263   -0.064097    1.086883
     12          9           0       -2.337346   -0.063504   -1.086572
     13          1           0        0.595702   -2.048496    0.000023
     14          1           0        1.758902    2.754515   -0.000081
     15          1           0        3.543530    1.040829   -0.000090
 ---------------------------------------------------------------------

 SCF Done:  E(UB3LYP) =  -718.991607069     A.U. after   18 cycles

 The electronic state is 1-A.
 Alpha  occ. eigenvalues --  -24.68900 -24.68485 -24.68482 -19.02257 -19.01510
 Alpha  occ. eigenvalues --  -10.40162 -10.18510 -10.17283 -10.14705 -10.13444
 Alpha  occ. eigenvalues --  -10.13217 -10.13157  -1.28159  -1.19680  -1.19375
 Alpha  occ. eigenvalues --   -0.93816  -0.92299  -0.79556  -0.74128  -0.67850
 Alpha  occ. eigenvalues --   -0.64909  -0.59110  -0.57287  -0.56444  -0.54358
 Alpha  occ. eigenvalues --   -0.49050  -0.45138  -0.45087  -0.43288  -0.43001
 Alpha  occ. eigenvalues --   -0.41445  -0.40974  -0.39894  -0.39122  -0.36999
 Alpha  occ. eigenvalues --   -0.36066  -0.35735  -0.33295  -0.32434  -0.31427
 Alpha  occ. eigenvalues --   -0.23210  -0.22628  -0.20122  -0.19631  -0.12699
 Alpha virt. eigenvalues --    0.00084   0.00666   0.01948   0.02466   0.04234
 Alpha virt. eigenvalues --    0.04805   0.05061   0.06624   0.07236   0.07969
 Alpha virt. eigenvalues --    0.08160   0.08536   0.09160   0.10862   0.11437

  Beta  occ. eigenvalues --  -24.68900 -24.68485 -24.68482 -19.02257 -19.01510
  Beta  occ. eigenvalues --  -10.40162 -10.18510 -10.17283 -10.14705 -10.13444
  Beta  occ. eigenvalues --  -10.13217 -10.13157  -1.28159  -1.19680  -1.19375
  Beta  occ. eigenvalues --   -0.93816  -0.92299  -0.79556  -0.74128  -0.67850
  Beta  occ. eigenvalues --   -0.64909  -0.59110  -0.57287  -0.56444  -0.54358
  Beta  occ. eigenvalues --   -0.49050  -0.45138  -0.45087  -0.43288  -0.43001
  Beta  occ. eigenvalues --   -0.41445  -0.40974  -0.39894  -0.39122  -0.36999
  Beta  occ. eigenvalues --   -0.36066  -0.35735  -0.33295  -0.32434  -0.31427
  Beta  occ. eigenvalues --   -0.23210  -0.22628  -0.20122  -0.19631  -0.12699
  Beta virt. eigenvalues --    0.00084   0.00666   0.01948   0.02466   0.04234
  Beta virt. eigenvalues --    0.04805   0.05061   0.06624   0.07236   0.07969
  Beta virt. eigenvalues --    0.08160   0.08536   0.09160   0.10862   0.11437

 Mulliken charges and spin densities:
               1          2
     1  C   -0.512461  -0.000000
     2  C   -0.363184   0.000000
     3  C    0.322459  -0.000000
     4  C   -0.450317   0.000000
     5  C   -0.071888  -0.000000
     6  C    0.103485   0.000000
     7  O   -0.745725   0.000000
     8  O   -0.687192  -0.000000
     9  C    0.516139   0.000000
    10  F   -0.220801  -0.000000
    11  F   -0.157145  -0.000000
    12  F   -0.157062  -0.000000
    13  H    0.133998  -0.000000
    14  H    0.144072  -0.000000
    15  H    0.145621   0.000000
 Sum of Mulliken charges =  -2.00000   0.00000

 Dipole moment (field-independent basis, Debye):
    X=             -6.7328    Y=             -1.2048    Z=             -0.0011  Tot=              6.8397
 Quadrupole moment (field-independent basis, Debye-Ang):
   XX=           -127.6478   YY=           -106.3317   ZZ=            -77.0708
   XY=             25.5664   XZ=              0.0008   YZ=             -0.0001

 Normal termination of Gaussian 16 at Wed Jan 24 22:49:20 2024.
