 Q-Chem 5.4, Q-Chem, Inc., Pleasanton, CA (2021)
 Q-Chem 5.4.0 for Intel X86 EM64T Linux

User input:
--------------------------------------------------------------
$molecule
-2 1
C                 -0.7279710000      3.1231580000      0.0026690000
C                 -1.8873510000      2.3264420000      0.2866540000
C                 -1.8991070000      0.9305480000      0.2689360000
C                  0.5493080000      2.3725510000     -0.3131740000
C                  0.4855940000      0.9285540000     -0.3099070000
C                 -0.7005400000      0.2481530000     -0.0252670000
O                  1.6283980000      2.9869750000     -0.5584840000
O                 -0.7537870000      4.3871130000      0.0152700000
C                  1.7534840000      0.1722040000     -0.6202860000
C                  2.7733220000      0.1209090000      0.5383310000
C                  4.0660100000     -0.6196020000      0.1781110000
C                  5.0810300000     -0.7018230000      1.3242380000
C                 -3.1633130000      0.1538280000      0.5595440000
C                 -4.2275040000      0.1624490000     -0.5643190000
C                 -5.4616090000     -0.6860780000     -0.2384990000
C                 -6.5495540000     -0.6638550000     -1.3175080000
H                 -2.7985210000      2.8790700000      0.5164590000
H                 -0.7021350000     -0.8427220000     -0.0302380000
H                  2.2520570000      0.6515690000     -1.4736480000
H                  1.5046610000     -0.8584370000     -0.9159620000
H                  2.3045390000     -0.3632150000      1.4057310000
H                  3.0006060000      1.1521080000      0.8267970000
H                  4.5328410000     -0.1225320000     -0.6822050000
H                  3.8220990000     -1.6377870000     -0.1584910000
H                  5.3800430000      0.2977260000      1.6581570000
H                  5.9923250000     -1.2406980000      1.0321330000
H                  4.6578050000     -1.2228400000      2.1907830000
H                 -3.6433060000      0.5460530000      1.4707380000
H                 -2.9013730000     -0.8919010000      0.7734490000
H                 -3.7643410000     -0.1982790000     -1.4904420000
H                 -4.5296800000      1.1987340000     -0.7567850000
H                 -5.8916350000     -0.3458260000      0.7131870000
H                 -5.1487230000     -1.7258980000     -0.0674950000
H                 -6.9221680000      0.3527930000     -1.4860880000
H                 -7.4118430000     -1.2873900000     -1.0468290000
H                 -6.1681600000     -1.0368880000     -2.2746470000
$end
$rem
MAX_SCF_CYCLES=200
BASIS  =  6-311++G(d,p)
GUI  =  2
JOB_TYPE  =  SP
METHOD  =  B3LYP
SOLVENT_METHOD = COSMO
$end
$solvent
dielectric 37.219
opticaldielectric 1.43
$end

--------------------------------------------------------------

             Standard Nuclear Orientation (Angstroms)
    I     Atom           X                Y                Z
 ----------------------------------------------------------------
    1      C      -0.0742307034    -2.2758041295    -0.1656397629
    2      C      -1.2217532496    -1.4985196159    -0.5379120290
    3      C      -1.2803907331    -0.1058783019    -0.4599119889
    4      C       1.1371006577    -1.5063705409     0.3193938431
    5      C       1.0275184825    -0.0661241955     0.3730566284
    6      C      -0.1427661105     0.5943191537    -0.0078998917
    7      O       2.2030812494    -2.1019981951     0.6526237212
    8      O      -0.0577364061    -3.5379739292    -0.2367933154
    9      C       2.2299177623     0.7090460772     0.8519016123
   10      C       3.3654948249     0.8430662130    -0.1861722840
   11      C       4.5877244581     1.6007367542     0.3441552842
   12      C       5.7161810640     1.7649127983    -0.6806690463
   13      C      -2.5307315537     0.6488880463    -0.8509866245
   14      C      -3.7080497288     0.5579126564     0.1496582886
   15      C      -4.9270342453     1.3868704629    -0.2699577223
   16      C      -6.1227275974     1.2837900751     0.6829695826
   17      H      -2.0848441483    -2.0643392241    -0.8891399960
   18      H      -0.1800977856     1.6832804907     0.0450630488
   19      H       2.6496944324     0.2035814039     1.7321774520
   20      H       1.9177932865     1.7173247457     1.1641683117
   21      H       2.9766680135     1.3547626488    -1.0769566444
   22      H       3.6554626649    -0.1667002733    -0.4936333746
   23      H       4.9757861056     1.0763961273     1.2271209982
   24      H       4.2765116435     2.5947724894     0.6970486360
   25      H       6.0812635056     0.7908645148    -1.0241128241
   26      H       6.5731851973     2.3140504058    -0.2681621043
   27      H       5.3713453876     2.3146520359    -1.5640452282
   28      H      -2.8977299211     0.2873178369    -1.8251978020
   29      H      -2.2813362613     1.7103510914    -0.9888824040
   30      H      -3.3583541891     0.8868652710     1.1354836649
   31      H      -3.9954444412    -0.4942044239     0.2623260564
   32      H      -5.2417300938     1.0804808588    -1.2766811005
   33      H      -4.6314031399     2.4417927695    -0.3599956358
   34      H      -6.4782027486     0.2504869205     0.7651618742
   35      H      -6.9708454926     1.8956451433     0.3484030747
   36      H      -5.8580007280     1.6213234406     1.6912954126
 ----------------------------------------------------------------

   29    -696.1440699776      3.64e-06  Convergence criterion met
 Total energy in the final basis set =     -696.1440699776
    6    -696.4315837868      4.18e-06  Convergence criterion met
 Total energy in the final basis set =     -696.4315837868

                    Orbital Energies (a.u.)
 --------------------------------------------------------------

 Alpha MOs
 -- Occupied --
-19.0200 -19.0150 -10.1623 -10.1573 -10.1527 -10.1498 -10.1483 -10.1468
-10.1464 -10.1441 -10.1401 -10.1361 -10.1230 -10.1133 -10.1124 -10.1059
 -0.9531  -0.9263  -0.7968  -0.7815  -0.7676  -0.7307  -0.7030  -0.6667
 -0.6463  -0.6120  -0.5929  -0.5649  -0.5617  -0.5168  -0.5089  -0.4613
 -0.4526  -0.4311  -0.4285  -0.4151  -0.4128  -0.3994  -0.3952  -0.3838
 -0.3794  -0.3684  -0.3637  -0.3541  -0.3455  -0.3416  -0.3386  -0.3285
 -0.3267  -0.3205  -0.3162  -0.3112  -0.3090  -0.3063  -0.2881  -0.2830
 -0.2585  -0.2107  -0.1770  -0.1732  -0.1138

          Ground-State Mulliken Net Atomic Charges

     Atom                 Charge (a.u.)
  ----------------------------------------
      1 C                    -0.519532
      2 C                    -0.045739
      3 C                     0.628840
      4 C                    -0.358867
      5 C                     1.114078
      6 C                    -1.027382
      7 O                    -0.716266
      8 O                    -0.745660
      9 C                    -0.273028
     10 C                    -0.439721
     11 C                    -0.153370
     12 C                    -0.676631
     13 C                    -0.309295
     14 C                    -0.345931
     15 C                    -0.195320
     16 C                    -0.667032
     17 H                     0.128425
     18 H                     0.153516
     19 H                     0.141300
     20 H                     0.130708
     21 H                     0.122633
     22 H                     0.164564
     23 H                     0.126181
     24 H                     0.122005
     25 H                     0.143740
     26 H                     0.143921
     27 H                     0.143153
     28 H                     0.132872
     29 H                     0.132059
     30 H                     0.132954
     31 H                     0.122894
     32 H                     0.130288
     33 H                     0.126435
     34 H                     0.146027
     35 H                     0.143245
     36 H                     0.143937
  ----------------------------------------
  Sum of atomic charges =    -2.000001

                    Cartesian Multipole Moments
 -----------------------------------------------------------------
    Charge (ESU x 10^10)
                -9.6064
    Dipole Moment (Debye)
         X      -6.7743      Y      21.1644      Z      -1.1021
       Tot      22.2495
    Quadrupole Moments (Debye-Ang)
        XX    -134.8123     XY      15.1983     YY    -176.1111
        XZ      -4.7816     YZ       1.9173     ZZ    -113.8561

 Total job time:  190.54s(wall), 1149.61s(cpu)
        *  Thank you very much for using Q-Chem.  Have a nice day.  *
