 Q-Chem 5.4, Q-Chem, Inc., Pleasanton, CA (2021)
 Q-Chem 5.4.0 for Intel X86 EM64T Linux

User input:
--------------------------------------------------------------
$molecule
0 1
O                  1.6794420000      2.3630090000      0.3794500000
C                  1.4005360000      1.1934110000      0.1990230000
C                 -0.0173530000      0.7036740000      0.2083690000
C                 -1.0476710000      1.6150250000      0.4303230000
C                 -2.3728010000      1.1814320000      0.4432910000
C                 -2.6745510000     -0.1640160000      0.2346500000
C                 -1.6506420000     -1.0824180000      0.0118560000
C                 -0.3240060000     -0.6528070000     -0.0018650000
C                  0.7688670000     -1.6250830000     -0.2382170000
O                  0.5918420000     -2.8253060000     -0.4302490000
C                  2.1464190000     -1.1205400000     -0.2421130000
O                  3.1267370000     -2.0281850000     -0.4599980000
C                  2.4604720000      0.1829300000     -0.0413050000
O                  3.7243630000      0.6406600000     -0.0458890000
H                 -0.7947210000      2.6558890000      0.5904540000
H                 -3.1702720000      1.8948780000      0.6164860000
H                 -3.7058100000     -0.4973180000      0.2454780000
H                 -1.8615660000     -2.1320190000     -0.1525500000
H                  2.6831860000     -2.8880570000     -0.5772850000
H                  4.3244470000     -0.1002140000     -0.2107760000
$end

$rem
BASIS  =  6-311++G(d,p)
GUI  =  2
JOB_TYPE  =  SP
METHOD  =  B3LYP
SCF_CONVERGENCE  = 8
SOLVENT_METHOD = sm12
$end

$smx
solvent dimethylformamide
charges CM5
$end

--------------------------------------------------------------

             Standard Nuclear Orientation (Angstroms)
    I     Atom           X                Y                Z
 ----------------------------------------------------------------
    1      O       1.6794420000     2.3630090000     0.3794500000
    2      C       1.4005360000     1.1934110000     0.1990230000
    3      C      -0.0173530000     0.7036740000     0.2083690000
    4      C      -1.0476710000     1.6150250000     0.4303230000
    5      C      -2.3728010000     1.1814320000     0.4432910000
    6      C      -2.6745510000    -0.1640160000     0.2346500000
    7      C      -1.6506420000    -1.0824180000     0.0118560000
    8      C      -0.3240060000    -0.6528070000    -0.0018650000
    9      C       0.7688670000    -1.6250830000    -0.2382170000
   10      O       0.5918420000    -2.8253060000    -0.4302490000
   11      C       2.1464190000    -1.1205400000    -0.2421130000
   12      O       3.1267370000    -2.0281850000    -0.4599980000
   13      C       2.4604720000     0.1829300000    -0.0413050000
   14      O       3.7243630000     0.6406600000    -0.0458890000
   15      H      -0.7947210000     2.6558890000     0.5904540000
   16      H      -3.1702720000     1.8948780000     0.6164860000
   17      H      -3.7058100000    -0.4973180000     0.2454780000
   18      H      -1.8615660000    -2.1320190000    -0.1525500000
   19      H       2.6831860000    -2.8880570000    -0.5772850000
   20      H       4.3244470000    -0.1002140000    -0.2107760000
 ----------------------------------------------------------------

   15    -685.7644300938      6.09e-09  Convergence criterion met
 Total energy in the final basis set =     -685.7877692417

                    Orbital Energies (a.u.)
 --------------------------------------------------------------

 Alpha MOs
 -- Occupied --
-19.1857 -19.1857 -19.1448 -19.1361 -10.2924 -10.2893 -10.2698 -10.2653
-10.2136 -10.2130 -10.2015 -10.2001 -10.1993 -10.1986  -1.1180  -1.0961
 -1.0680  -1.0632  -0.8946  -0.8366  -0.7823  -0.7737  -0.7106  -0.6652
 -0.6535  -0.6128  -0.5921  -0.5655  -0.5518  -0.5085  -0.4990  -0.4847
 -0.4693  -0.4638  -0.4549  -0.4539  -0.4357  -0.4228  -0.4219  -0.4075
 -0.3867  -0.3844  -0.3773  -0.3723  -0.3028  -0.2904  -0.2870  -0.2813
 -0.2501

          Ground-State Mulliken Net Atomic Charges

     Atom                 Charge (a.u.)
  ----------------------------------------
      1 O                    -0.309432
      2 C                    -1.273699
      3 C                    -0.365181
      4 C                     0.143637
      5 C                     0.413085
      6 C                     0.407285
      7 C                     0.458817
      8 C                     0.352157
      9 C                    -0.625572
     10 O                    -0.308413
     11 C                     0.198570
     12 O                    -0.258612
     13 C                    -0.265859
     14 O                    -0.242262
     15 H                     0.183585
     16 H                     0.318393
     17 H                     0.331612
     18 H                     0.211690
     19 H                     0.310424
     20 H                     0.319777
  ----------------------------------------
  Sum of atomic charges =     0.000000

                    Cartesian Multipole Moments
 -----------------------------------------------------------------
    Charge (ESU x 10^10)
                 0.0000
    Dipole Moment (Debye)
         X      -3.1176      Y      -1.6778      Z      -0.0817
       Tot       3.5413
    Quadrupole Moments (Debye-Ang)
        XX     -68.4510     XY     -11.5040     YY     -88.5482
        XZ      -3.0387     YZ      -0.6942     ZZ     -80.8300

 Total job time:  258.89s(wall), 2009.47s(cpu)
        *  Thank you very much for using Q-Chem.  Have a nice day.  *
