 Q-Chem 5.4, Q-Chem, Inc., Pleasanton, CA (2021)
 Q-Chem 5.4.0 for Intel X86 EM64T Linux

User input:
--------------------------------------------------------------
$molecule
-1 2
Cl                 2.9961170000      2.8649360000      0.3373660000
C                  2.6218980000      1.1322400000      0.2631820000
C                  3.7261710000      0.3057710000      0.3436600000
C                  3.5667800000     -1.0906300000      0.2966680000
C                  2.3050860000     -1.6253420000      0.1702430000
C                  1.1648050000     -0.8002310000      0.0865570000
C                 -0.1307540000     -1.4744790000     -0.0460420000
O                 -0.2201620000     -2.7276280000     -0.0833920000
C                 -1.3063980000     -0.6162860000     -0.1322480000
C                 -2.5868400000     -1.1994860000     -0.2614550000
C                 -3.7201760000     -0.4169960000     -0.3456780000
C                 -3.6071110000      0.9897670000     -0.3027770000
C                 -2.3642560000      1.5778100000     -0.1768050000
C                 -1.1904230000      0.7976160000     -0.0888910000
C                  0.1018290000      1.4892440000      0.0439180000
O                  0.1432090000      2.7383800000      0.0765760000
C                  1.2957200000      0.6339230000      0.1318120000
H                  4.7094740000      0.7484980000      0.4428210000
H                  4.4395690000     -1.7327720000      0.3605090000
H                  2.1381980000     -2.6947850000      0.1301980000
H                 -2.6398680000     -2.2816010000     -0.2913870000
H                 -4.6973320000     -0.8805590000     -0.4447310000
H                 -4.4974860000      1.6080530000     -0.3688640000
H                 -2.2480480000      2.6545580000     -0.1412400000
$end
$rem
MAX_SCF_CYCLES=200
BASIS  =  6-311++G(d,p)
GUI  =  2
JOB_TYPE  =  SP
METHOD  =  B3LYP
SOLVENT_METHOD = PCM
$end
$pcm
theory = CPCM
$end
$solvent
dielectric 37.219
opticaldielectric 1.43
$end

--------------------------------------------------------------

             Standard Nuclear Orientation (Angstroms)
    I     Atom           X                Y                Z
 ----------------------------------------------------------------
    1      Cl      2.9961170000     2.8649360000     0.3373660000
    2      C       2.6218980000     1.1322400000     0.2631820000
    3      C       3.7261710000     0.3057710000     0.3436600000
    4      C       3.5667800000    -1.0906300000     0.2966680000
    5      C       2.3050860000    -1.6253420000     0.1702430000
    6      C       1.1648050000    -0.8002310000     0.0865570000
    7      C      -0.1307540000    -1.4744790000    -0.0460420000
    8      O      -0.2201620000    -2.7276280000    -0.0833920000
    9      C      -1.3063980000    -0.6162860000    -0.1322480000
   10      C      -2.5868400000    -1.1994860000    -0.2614550000
   11      C      -3.7201760000    -0.4169960000    -0.3456780000
   12      C      -3.6071110000     0.9897670000    -0.3027770000
   13      C      -2.3642560000     1.5778100000    -0.1768050000
   14      C      -1.1904230000     0.7976160000    -0.0888910000
   15      C       0.1018290000     1.4892440000     0.0439180000
   16      O       0.1432090000     2.7383800000     0.0765760000
   17      C       1.2957200000     0.6339230000     0.1318120000
   18      H       4.7094740000     0.7484980000     0.4428210000
   19      H       4.4395690000    -1.7327720000     0.3605090000
   20      H       2.1381980000    -2.6947850000     0.1301980000
   21      H      -2.6398680000    -2.2816010000    -0.2913870000
   22      H      -4.6973320000    -0.8805590000    -0.4447310000
   23      H      -4.4974860000     1.6080530000    -0.3688640000
   24      H      -2.2480480000     2.6545580000    -0.1412400000
 ----------------------------------------------------------------

    8   -1148.7117921755      9.07e-06  Convergence criterion met
 Total energy in the final basis set =    -1148.7117921755

                    Orbital Energies (a.u.)
 --------------------------------------------------------------

 Alpha MOs
 -- Occupied --
******** -19.0792 -19.0784 -10.2384 -10.2335 -10.2282 -10.1910 -10.1815
-10.1806 -10.1779 -10.1753 -10.1744 -10.1737 -10.1732 -10.1726 -10.1711
-10.1705  -9.4621  -7.2264  -7.2174  -7.2163  -1.0109  -1.0063  -0.8871
 -0.8592  -0.8347  -0.7887  -0.7523  -0.7444  -0.7386  -0.6705  -0.6414
 -0.6232  -0.5852  -0.5560  -0.5398  -0.5281  -0.4780  -0.4708  -0.4643
 -0.4592  -0.4322  -0.4300  -0.4251  -0.4183  -0.4162  -0.4086  -0.3901
 -0.3818  -0.3811  -0.3579  -0.3508  -0.3502  -0.3384  -0.3298  -0.3159
 -0.2730  -0.2583  -0.2535  -0.2528  -0.2493  -0.2358  -0.1451

 Beta MOs
 -- Occupied --
******** -19.0740 -19.0732 -10.2383 -10.2318 -10.2263 -10.1901 -10.1806
-10.1801 -10.1773 -10.1746 -10.1738 -10.1733 -10.1727 -10.1725 -10.1709
-10.1705  -9.4620  -7.2264  -7.2173  -7.2163  -1.0016  -0.9969  -0.8858
 -0.8573  -0.8335  -0.7848  -0.7501  -0.7426  -0.7365  -0.6633  -0.6395
 -0.6205  -0.5844  -0.5537  -0.5372  -0.5266  -0.4750  -0.4699  -0.4626
 -0.4583  -0.4317  -0.4246  -0.4182  -0.4150  -0.4127  -0.4059  -0.3819
 -0.3798  -0.3639  -0.3573  -0.3495  -0.3414  -0.3372  -0.3233  -0.3152
 -0.2548  -0.2521  -0.2477  -0.2447  -0.2445  -0.2313

          Ground-State Mulliken Net Atomic Charges

     Atom                 Charge (a.u.)    Spin (a.u.)
  --------------------------------------------------------
      1 Cl                    0.338628       0.000321
      2 C                     0.984134       0.023647
      3 C                    -0.101624       0.047837
      4 C                    -0.625543       0.048069
      5 C                     0.274243       0.028315
      6 C                     0.217467       0.042668
      7 C                    -0.727597       0.110520
      8 O                    -0.468466       0.198385
      9 C                     0.004678       0.004608
     10 C                     0.101242       0.036187
     11 C                    -0.447423       0.024866
     12 C                    -0.472529       0.038094
     13 C                     0.173462       0.024607
     14 C                     0.056854       0.040934
     15 C                    -1.247326       0.090105
     16 O                    -0.370318       0.200297
     17 C                    -0.036778       0.058504
     18 H                     0.218861      -0.003643
     19 H                     0.204582      -0.003664
     20 H                     0.178305      -0.001763
     21 H                     0.172781      -0.001957
     22 H                     0.198344      -0.002206
     23 H                     0.199938      -0.003185
     24 H                     0.174087      -0.001546
  --------------------------------------------------------
  Sum of atomic charges =    -1.000000

                    Cartesian Multipole Moments
 -----------------------------------------------------------------
    Charge (ESU x 10^10)
                -4.8032
    Dipole Moment (Debye)
         X      -1.0006      Y      -2.0526      Z      -0.1365
       Tot       2.2876
    Quadrupole Moments (Debye-Ang)
        XX    -101.1235     XY     -10.3189     YY    -145.3019
        XZ       0.6904     YZ      -1.7135     ZZ    -111.4780

 Total job time:  165.19s(wall), 334.98s(cpu)
        *  Thank you very much for using Q-Chem.  Have a nice day.  *
