 Gaussian 16, Revision A.03,
 Gaussian 16:  ES64L-G16RevA.03 25-Dec-2016

 ----------------------------------------------------------------
 #P UB3LYP/6-311++G(d,p) SCRF=(PCM,Solvent=n,n-DiMethylFormamide)
 ----------------------------------------------------------------

 ------------------
 Quinone PCM in DMF
 ------------------
 Symbolic Z-matrix:
 Charge =  0 Multiplicity = 1

                         Standard orientation:
 ---------------------------------------------------------------------
 Center     Atomic      Atomic             Coordinates (Angstroms)
 Number     Number       Type             X           Y           Z
 ---------------------------------------------------------------------
      1          6           0       -0.009046   -0.763570    0.551714
      2          6           0        1.258747   -1.429140    0.148086
      3          6           0        1.288160   -2.695708   -0.316386
      4          6           0       -0.038164   -3.382496   -0.561476
      5          6           0       -1.348875   -2.667257   -0.314285
      6          6           0       -1.291341   -1.401183    0.148795
      7          8           0        0.002200    0.256571    1.213693
      8          8           0       -0.050850   -4.518182   -0.989537
      9         16           0       -2.829090   -0.454919    0.526843
     10          6           0       -2.538340    1.250164    0.024151
     11          6           0       -2.287172    2.212447    0.997620
     12          6           0       -2.673327    1.579807   -1.323092
     13          6           0       -2.531439    2.912034   -1.703891
     14          6           0       -2.164628    3.542133    0.604555
     15          6           0       -2.280832    3.889532   -0.741402
     16          8           0       -3.019374   -0.500665    1.976714
     17          8           0       -3.860011   -0.977933   -0.377022
     18          1           0       -2.195471    1.916421    2.033928
     19          1           0       -2.910646    0.815077   -2.051994
     20          1           0       -1.979826    4.306366    1.350319
     21          1           0       -2.635292    3.186841   -2.747013
     22          1           0       -2.183417    4.927006   -1.040722
     23         16           0        2.816991   -0.517726    0.527757
     24          6           0        2.565657    1.193780    0.025586
     25          6           0        2.334511    2.161005    0.999133
     26          6           0        2.711001    1.521063   -1.321169
     27          6           0        2.600765    2.856455   -1.701379
     28          6           0        2.243643    3.493419    0.606706
     29          6           0        2.370824    3.838890   -0.738754
     30          8           0        3.004455   -0.568509    1.977819
     31          8           0        3.836988   -1.063343   -0.375118
     32          1           0        2.233756    1.866579    2.035052
     33          1           0        2.932091    0.751480   -2.050064
     34          1           0        2.713188    3.129449   -2.744091
     35          1           0        2.074938    4.261262    1.352579
     36          1           0        2.298226    4.878546   -1.037556
     37          6           0        2.500399   -3.526279   -0.623191
     38          6           0       -2.579218   -3.471728   -0.618421
     39          1           0        2.995435   -3.156358   -1.524356
     40          1           0        2.201389   -4.559807   -0.781056
     41          1           0        3.237856   -3.465675    0.176044
     42          1           0       -2.303591   -4.512841   -0.769025
     43          1           0       -3.063109   -3.096879   -1.523687
     44          1           0       -3.317156   -3.388852    0.178243
 ---------------------------------------------------------------------

 SCF Done:  E(UB3LYP) =  -2019.70907337     A.U. after   17 cycles

 The electronic state is 1-A.
 Alpha  occ. eigenvalues --  -89.07655 -89.07654 -19.16750 -19.15896 -19.14215
 Alpha  occ. eigenvalues --  -19.14213 -19.13800 -19.13799 -10.31746 -10.31288
 Alpha  occ. eigenvalues --  -10.25602 -10.25601 -10.25295 -10.25294 -10.22739
 Alpha  occ. eigenvalues --  -10.22738 -10.20687 -10.20686 -10.20471 -10.20469
 Alpha  occ. eigenvalues --  -10.19889 -10.19888 -10.19706 -10.19705 -10.19638
 Alpha  occ. eigenvalues --  -10.19637 -10.18456 -10.18452  -8.14011  -8.14010
 Alpha  occ. eigenvalues --   -6.10271  -6.10270  -6.10210  -6.10209  -6.10113
 Alpha  occ. eigenvalues --   -6.10112  -1.13694  -1.13614  -1.10157  -1.09721
 Alpha  occ. eigenvalues --   -1.03272  -1.03262  -0.89679  -0.88962  -0.88936
 Alpha  occ. eigenvalues --   -0.85128  -0.79655  -0.79648  -0.77562  -0.77531
 Alpha  occ. eigenvalues --   -0.76714  -0.75179  -0.71993  -0.68620  -0.68377
 Alpha  occ. eigenvalues --   -0.63755  -0.63477  -0.63460  -0.63426  -0.60008
 Alpha  occ. eigenvalues --   -0.59581  -0.57085  -0.56079  -0.55243  -0.53249
 Alpha  occ. eigenvalues --   -0.51406  -0.50135  -0.49878  -0.49756  -0.49159
 Alpha  occ. eigenvalues --   -0.48959  -0.48388  -0.48216  -0.46980  -0.46931
 Alpha  occ. eigenvalues --   -0.46579  -0.46554  -0.45282  -0.44939  -0.44934
 Alpha  occ. eigenvalues --   -0.44631  -0.43937  -0.43630  -0.41732  -0.41111
 Alpha  occ. eigenvalues --   -0.40410  -0.39772  -0.39689  -0.39067  -0.39010
 Alpha  occ. eigenvalues --   -0.37269  -0.37256  -0.36771  -0.36431  -0.35508
 Alpha  occ. eigenvalues --   -0.35468  -0.33788  -0.33669  -0.32816  -0.32499
 Alpha  occ. eigenvalues --   -0.32237  -0.31912  -0.31005  -0.29136  -0.28840
 Alpha  occ. eigenvalues --   -0.28239  -0.28088  -0.27634
 Alpha virt. eigenvalues --   -0.15571  -0.07202  -0.06320  -0.04941  -0.03816
 Alpha virt. eigenvalues --   -0.03138  -0.03114  -0.01238  -0.00492   0.00103
 Alpha virt. eigenvalues --    0.00598   0.00795   0.01339   0.01761   0.02304

  Beta  occ. eigenvalues --  -89.07655 -89.07654 -19.16750 -19.15896 -19.14215
  Beta  occ. eigenvalues --  -19.14213 -19.13800 -19.13799 -10.31746 -10.31288
  Beta  occ. eigenvalues --  -10.25602 -10.25601 -10.25295 -10.25294 -10.22739
  Beta  occ. eigenvalues --  -10.22738 -10.20687 -10.20686 -10.20471 -10.20469
  Beta  occ. eigenvalues --  -10.19889 -10.19888 -10.19706 -10.19705 -10.19638
  Beta  occ. eigenvalues --  -10.19637 -10.18456 -10.18452  -8.14011  -8.14010
  Beta  occ. eigenvalues --   -6.10271  -6.10270  -6.10210  -6.10209  -6.10113
  Beta  occ. eigenvalues --   -6.10112  -1.13694  -1.13614  -1.10157  -1.09721
  Beta  occ. eigenvalues --   -1.03272  -1.03262  -0.89679  -0.88962  -0.88936
  Beta  occ. eigenvalues --   -0.85128  -0.79655  -0.79648  -0.77562  -0.77531
  Beta  occ. eigenvalues --   -0.76714  -0.75179  -0.71993  -0.68620  -0.68377
  Beta  occ. eigenvalues --   -0.63755  -0.63477  -0.63460  -0.63426  -0.60008
  Beta  occ. eigenvalues --   -0.59581  -0.57085  -0.56079  -0.55243  -0.53249
  Beta  occ. eigenvalues --   -0.51406  -0.50135  -0.49878  -0.49756  -0.49159
  Beta  occ. eigenvalues --   -0.48959  -0.48388  -0.48216  -0.46980  -0.46931
  Beta  occ. eigenvalues --   -0.46579  -0.46554  -0.45282  -0.44939  -0.44934
  Beta  occ. eigenvalues --   -0.44631  -0.43937  -0.43630  -0.41732  -0.41111
  Beta  occ. eigenvalues --   -0.40410  -0.39772  -0.39689  -0.39067  -0.39010
  Beta  occ. eigenvalues --   -0.37269  -0.37256  -0.36771  -0.36431  -0.35508
  Beta  occ. eigenvalues --   -0.35468  -0.33788  -0.33669  -0.32816  -0.32499
  Beta  occ. eigenvalues --   -0.32237  -0.31912  -0.31005  -0.29136  -0.28840
  Beta  occ. eigenvalues --   -0.28239  -0.28088  -0.27634
  Beta virt. eigenvalues --   -0.15571  -0.07202  -0.06320  -0.04941  -0.03816
  Beta virt. eigenvalues --   -0.03138  -0.03114  -0.01238  -0.00492   0.00103
  Beta virt. eigenvalues --    0.00598   0.00795   0.01339   0.01761   0.02304

 Mulliken charges and spin densities:
               1          2
     1  C   -0.283403  -0.000000
     2  C   -0.281970   0.000000
     3  C    0.799196  -0.000000
     4  C   -1.777262   0.000000
     5  C    0.799755  -0.000000
     6  C   -0.278942   0.000000
     7  O   -0.114901   0.000000
     8  O   -0.171044  -0.000000
     9  S    0.883046  -0.000000
    10  C   -0.021082   0.000000
    11  C   -0.241257   0.000000
    12  C    0.122811   0.000000
    13  C   -0.500443   0.000000
    14  C   -0.318012  -0.000000
    15  C   -0.352145  -0.000000
    16  O   -0.081839  -0.000000
    17  O   -0.115687  -0.000000
    18  H    0.261140   0.000000
    19  H    0.260747   0.000000
    20  H    0.229553   0.000000
    21  H    0.227664  -0.000000
    22  H    0.204745  -0.000000
    23  S    0.882922  -0.000000
    24  C   -0.019611  -0.000000
    25  C   -0.242663   0.000000
    26  C    0.123679  -0.000000
    27  C   -0.500210  -0.000000
    28  C   -0.317399  -0.000000
    29  C   -0.352808  -0.000000
    30  O   -0.082053  -0.000000
    31  O   -0.115524  -0.000000
    32  H    0.261136   0.000000
    33  H    0.260742   0.000000
    34  H    0.227677   0.000000
    35  H    0.229570   0.000000
    36  H    0.204753  -0.000000
    37  C   -0.560599  -0.000000
    38  C   -0.559161   0.000000
    39  H    0.233455  -0.000000
    40  H    0.187786  -0.000000
    41  H    0.233084  -0.000000
    42  H    0.187546  -0.000000
    43  H    0.233975   0.000000
    44  H    0.233032  -0.000000
 Sum of Mulliken charges =  -0.00000   0.00000

 Dipole moment (field-independent basis, Debye):
    X=              0.0692    Y=              5.6032    Z=             -6.4918  Tot=              8.5758
 Quadrupole moment (field-independent basis, Debye-Ang):
   XX=           -214.6509   YY=           -145.8301   ZZ=           -177.3305
   XY=              0.7882   XZ=             -0.0595   YZ=             -2.7628

 Normal termination of Gaussian 16 at Wed Jan 24 23:08:49 2024.
