 Gaussian 16, Revision A.03,
 Gaussian 16:  ES64L-G16RevA.03 25-Dec-2016

 --------------------------------------
 #P UB3LYP/6-311++G(d,p) nosym opt freq
 --------------------------------------

 -------
 Reduced
 -------
 Symbolic Z-matrix:
 Charge = -2 Multiplicity = 1

 SCF Done:  E(UB3LYP) =  -649.748632762     A.U. after   70 cycles
 SCF Done:  E(UB3LYP) =  -649.777205320     A.U. after   34 cycles
 SCF Done:  E(UB3LYP) =  -649.781911149     A.U. after   34 cycles
 SCF Done:  E(UB3LYP) =  -649.782220474     A.U. after   27 cycles
 SCF Done:  E(UB3LYP) =  -649.782392205     A.U. after   27 cycles
 SCF Done:  E(UB3LYP) =  -649.782526239     A.U. after   26 cycles
 SCF Done:  E(UB3LYP) =  -649.782567330     A.U. after   26 cycles
 SCF Done:  E(UB3LYP) =  -649.782591373     A.U. after   27 cycles
 SCF Done:  E(UB3LYP) =  -649.782611922     A.U. after   26 cycles
 SCF Done:  E(UB3LYP) =  -649.782622876     A.U. after   26 cycles
 SCF Done:  E(UB3LYP) =  -649.782623777     A.U. after   23 cycles
 Optimization completed.
    -- Stationary point found.
 Normal termination of Gaussian 16 at Tue Dec 26 20:57:49 2023.

 ----------------------------------------------------------------------
 #P Geom=AllCheck Guess=TCheck SCRF=Check GenChk UB3LYP/6-311++G(d,p) F
 req
 ----------------------------------------------------------------------

 Structure from the checkpoint file:  "257-an.chk"
 -------
 Reduced
 -------
 Charge = -2 Multiplicity = 1

                          Input orientation:
 ---------------------------------------------------------------------
 Center     Atomic      Atomic             Coordinates (Angstroms)
 Number     Number       Type             X           Y           Z
 ---------------------------------------------------------------------
      1          6           0        3.882758    0.617639    0.005611
      2          8           0        2.692166    1.248527   -0.397825
      3          6           0        1.496896    0.547336   -0.248937
      4          6           0        1.476804   -0.850090   -0.146400
      5          6           0        0.290500   -1.630455   -0.032306
      6          8           0        0.297332   -2.913735    0.066138
      7          6           0       -0.939945   -0.846952   -0.029155
      8          6           0       -2.188988   -1.494320    0.086050
      9          6           0       -3.384552   -0.795844    0.091060
     10          6           0       -3.363319    0.619228   -0.025831
     11          6           0       -2.154571    1.280957   -0.137627
     12          6           0       -0.914921    0.594752   -0.141479
     13          6           0        0.316689    1.365704   -0.253573
     14          8           0        0.328113    2.644012   -0.356881
     15          1           0        3.813958    0.220187    1.032086
     16          1           0        4.676857    1.370728   -0.027694
     17          1           0        4.169714   -0.209138   -0.658704
     18          1           0        2.406534   -1.409756   -0.141695
     19          1           0       -2.165372   -2.577002    0.171750
     20          1           0       -4.332111   -1.324754    0.181542
     21          1           0       -4.296687    1.180848   -0.027985
     22          1           0       -2.107852    2.362129   -0.228239
 ---------------------------------------------------------------------

 SCF Done:  E(UB3LYP) =  -649.782623777     A.U. after    2 cycles

 Alpha  occ. eigenvalues --  -18.89416 -18.77867 -18.77538  -9.98933  -9.95081
 Alpha  occ. eigenvalues --   -9.93867  -9.93557  -9.92805  -9.92675  -9.91911
 Alpha  occ. eigenvalues --   -9.91763  -9.90406  -9.90277  -9.88780  -0.80482
 Alpha  occ. eigenvalues --   -0.69324  -0.68922  -0.59485  -0.53351  -0.49300
 Alpha  occ. eigenvalues --   -0.48677  -0.45631  -0.39984  -0.35893  -0.34443
 Alpha  occ. eigenvalues --   -0.30002  -0.26675  -0.25746  -0.22662  -0.22388
 Alpha  occ. eigenvalues --   -0.20568  -0.19545  -0.17259  -0.16572  -0.14153
 Alpha  occ. eigenvalues --   -0.13713  -0.12694  -0.11397  -0.10268  -0.09555
 Alpha  occ. eigenvalues --   -0.08566  -0.07809  -0.06657  -0.05115   0.00264
 Alpha  occ. eigenvalues --    0.01625   0.03385   0.04512   0.04967   0.13644
 Alpha virt. eigenvalues --    0.15420   0.16125   0.17907   0.19085   0.20362
 Alpha virt. eigenvalues --    0.20542   0.21804   0.22352   0.23377   0.24091
 Alpha virt. eigenvalues --    0.24517   0.25584   0.27219   0.27770   0.27865

  Beta  occ. eigenvalues --  -18.89416 -18.77867 -18.77538  -9.98933  -9.95081
  Beta  occ. eigenvalues --   -9.93867  -9.93557  -9.92805  -9.92675  -9.91911
  Beta  occ. eigenvalues --   -9.91763  -9.90406  -9.90277  -9.88780  -0.80482
  Beta  occ. eigenvalues --   -0.69324  -0.68922  -0.59485  -0.53351  -0.49300
  Beta  occ. eigenvalues --   -0.48677  -0.45631  -0.39984  -0.35893  -0.34443
  Beta  occ. eigenvalues --   -0.30002  -0.26675  -0.25746  -0.22662  -0.22388
  Beta  occ. eigenvalues --   -0.20568  -0.19545  -0.17259  -0.16572  -0.14153
  Beta  occ. eigenvalues --   -0.13713  -0.12694  -0.11397  -0.10268  -0.09555
  Beta  occ. eigenvalues --   -0.08566  -0.07809  -0.06657  -0.05115   0.00264
  Beta  occ. eigenvalues --    0.01625   0.03385   0.04512   0.04967   0.13644
  Beta virt. eigenvalues --    0.15420   0.16125   0.17907   0.19085   0.20362
  Beta virt. eigenvalues --    0.20542   0.21804   0.22352   0.23377   0.24091
  Beta virt. eigenvalues --    0.24517   0.25584   0.27219   0.27770   0.27865

 Mulliken charges and spin densities:
               1          2
     1  C    0.948513   0.000000
     2  O   -0.187903  -0.000000
     3  C   -0.971160   0.000000
     4  C    1.375924   0.000000
     5  C   -0.862344   0.000000
     6  O   -0.524897  -0.000000
     7  C    0.822233   0.000000
     8  C   -0.032081  -0.000000
     9  C   -0.366855  -0.000000
    10  C   -0.449087   0.000000
    11  C   -0.070664  -0.000000
    12  C    0.593601  -0.000000
    13  C   -1.100714  -0.000000
    14  O   -0.518509   0.000000
    15  H   -0.048132  -0.000000
    16  H   -1.026958  -0.000000
    17  H   -0.119781  -0.000000
    18  H    0.149536  -0.000000
    19  H    0.119999   0.000000
    20  H    0.075215  -0.000000
    21  H    0.070295   0.000000
    22  H    0.123771   0.000000
 Sum of Mulliken charges =  -2.00000  -0.00000

 Dipole moment (field-independent basis, Debye):
    X=             -6.4839    Y=             -1.6085    Z=              1.1520  Tot=              6.7790
 Quadrupole moment (field-independent basis, Debye-Ang):
   XX=           -165.1848   YY=           -150.1688   ZZ=            -98.6554
   XY=            -15.4108   XZ=              0.7996   YZ=              4.2577

  Exact polarizability:1516.483 265.613 443.079   3.727 -18.251 239.369
 Approx polarizability:4406.443 876.351 679.031 117.738  -2.935 253.301

                      1                      2                      3
                      A                      A                      A
 Frequencies --     44.0639                90.3807               133.7276
 Red. masses --      3.2092                 5.7163                 4.2475
 Frc consts  --      0.0037                 0.0275                 0.0448
 IR Inten    --      5.5356                 2.8192                 1.3424

                      4                      5                      6
                      A                      A                      A
 Frequencies --    173.7821               204.4347               231.0421
 Red. masses --      5.3761                 3.9271                 2.0117
 Frc consts  --      0.0957                 0.0967                 0.0633
 IR Inten    --     11.9966                 1.7425                22.6333

                      7                      8                      9
                      A                      A                      A
 Frequencies --    271.7920               286.4555               336.3427
 Red. masses --      5.2152                 1.9134                 6.5973
 Frc consts  --      0.2270                 0.0925                 0.4397
 IR Inten    --      7.2087                38.6428                19.3633

                     10                     11                     12
                      A                      A                      A
 Frequencies --    355.8075               385.4266               435.5539
 Red. masses --      7.9099                 7.1807                 3.4756
 Frc consts  --      0.5900                 0.6285                 0.3885
 IR Inten    --     34.2333                29.9046                 4.2335

                     13                     14                     15
                      A                      A                      A
 Frequencies --    448.7283               464.2895               513.2936
 Red. masses --      6.2156                 8.2313                 4.5267
 Frc consts  --      0.7374                 1.0454                 0.7027
 IR Inten    --    315.3390               199.0046                43.8753

                     16                     17                     18
                      A                      A                      A
 Frequencies --    537.9673               633.3907               638.7717
 Red. masses --      6.0965                 2.8648                 6.9304
 Frc consts  --      1.0395                 0.6772                 1.6661
 IR Inten    --     39.6670                10.6799                 9.8736

                     19                     20                     21
                      A                      A                      A
 Frequencies --    684.4254               692.8399               722.7667
 Red. masses --      4.5322                 2.2127                 6.3356
 Frc consts  --      1.2509                 0.6258                 1.9500
 IR Inten    --     19.3064                28.9020                18.6867

                     22                     23                     24
                      A                      A                      A
 Frequencies --    737.5042               759.1688               799.8652
 Red. masses --      1.9531                 2.2129                 1.8051
 Frc consts  --      0.6259                 0.7514                 0.6804
 IR Inten    --     32.3379                 1.2179                 6.3186

                     25                     26                     27
                      A                      A                      A
 Frequencies --    825.2750               841.4228               921.9632
 Red. masses --      2.4542                 4.5269                 6.2799
 Frc consts  --      0.9848                 1.8883                 3.1451
 IR Inten    --     18.9345                17.5841                25.1567

                     28                     29                     30
                      A                      A                      A
 Frequencies --    946.0584               952.7916              1013.2675
 Red. masses --      1.2312                 1.3512                 2.2142
 Frc consts  --      0.6492                 0.7227                 1.3394
 IR Inten    --      1.9841                 3.9760               379.4681

                     31                     32                     33
                      A                      A                      A
 Frequencies --   1078.3273              1091.5405              1119.1442
 Red. masses --      4.6732                 2.7619                 1.6847
 Frc consts  --      3.2016                 1.9389                 1.2432
 IR Inten    --     61.4393                22.7460               321.1355

                     34                     35                     36
                      A                      A                      A
 Frequencies --   1131.3780              1154.7921              1165.6003
 Red. masses --      2.4446                 1.5956                 1.4748
 Frc consts  --      1.8436                 1.2536                 1.1805
 IR Inten    --    131.1852                21.9238                21.0443

                     37                     38                     39
                      A                      A                      A
 Frequencies --   1187.4232              1212.5330              1229.2271
 Red. masses --      1.6287                 2.2787                 2.1354
 Frc consts  --      1.3530                 1.9739                 1.9010
 IR Inten    --    997.2097               352.6803               147.9710

                     40                     41                     42
                      A                      A                      A
 Frequencies --   1277.9173              1332.4542              1398.0577
 Red. masses --      1.9805                 8.3123                 4.1974
 Frc consts  --      1.9056                 8.6952                 4.8337
 IR Inten    --    179.9405               294.4601               601.6925

                     43                     44                     45
                      A                      A                      A
 Frequencies --   1398.7152              1423.9081              1448.8306
 Red. masses --      4.6402                 4.4732                 1.2892
 Frc consts  --      5.3486                 5.3436                 1.5944
 IR Inten    --    425.3781              1370.1843               801.6011

                     46                     47                     48
                      A                      A                      A
 Frequencies --   1454.6282              1480.4311              1492.9884
 Red. masses --      2.4321                 1.1270                 2.1029
 Frc consts  --      3.0321                 1.4553                 2.7617
 IR Inten    --     32.3910               387.3109               446.8266

                     49                     50                     51
                      A                      A                      A
 Frequencies --   1503.1996              1517.3246              1572.7908
 Red. masses --      1.5192                 3.5359                 6.2525
 Frc consts  --      2.0226                 4.7963                 9.1126
 IR Inten    --     34.4586               327.5213              1735.5401

                     52                     53                     54
                      A                      A                      A
 Frequencies --   1583.3238              2930.2947              2986.1771
 Red. masses --      5.5045                 1.0426                 1.0939
 Frc consts  --      8.1304                 5.2744                 5.7471
 IR Inten    --    336.8687                87.6366               121.2880

                     55                     56                     57
                      A                      A                      A
 Frequencies --   3044.7929              3086.3369              3110.7611
 Red. masses --      1.0967                 1.0823                 1.0904
 Frc consts  --      5.9902                 6.0744                 6.2169
 IR Inten    --    121.0281                40.5084               289.5639

                     58                     59                     60
                      A                      A                      A
 Frequencies --   3150.9562              3153.2390              3155.5834
 Red. masses --      1.0902                 1.0866                 1.0909
 Frc consts  --      6.3773                 6.3657                 6.4001
 IR Inten    --     42.3749               121.1031               146.3506

 - Thermochemistry -
 -------------------
 Temperature   298.150 Kelvin.  Pressure   1.00000 Atm.
 Atom     1 has atomic number  6 and mass  12.00000

 Molecular mass:   188.04734 amu.
 Principal axes and moments of inertia in atomic units:
                           1         2         3
     Eigenvalues --  1494.091623192.929974664.22397
           X            0.97638  -0.21487   0.02256
           Y            0.21264   0.97418   0.07582
           Z           -0.03827  -0.06923   0.99687
 This molecule is an asymmetric top.
 Rotational symmetry number  1.
 Warning -- assumption of classical behavior for rotation
           may cause significant error
 Rotational temperatures (Kelvin)      0.05797     0.02713     0.01857
 Rotational constants (GHZ):           1.20792     0.56523     0.38693
 Zero-point vibrational energy     418425.5 (Joules/Mol)
                                  100.00609 (Kcal/Mol)
 Warning -- explicit consideration of  16 degrees of freedom as
           vibrations may cause significant error
 Vibrational temperatures:     63.40   130.04   192.40   250.03   294.14
          (Kelvin)            332.42   391.05   412.15   483.92   511.93
                              554.54   626.66   645.62   668.01   738.51
                              774.01   911.31   919.05   984.74   996.84
                             1039.90  1061.10  1092.27  1150.83  1187.39
                             1210.62  1326.50  1361.17  1370.85  1457.87
                             1551.47  1570.48  1610.20  1627.80  1661.49
                             1677.04  1708.44  1744.56  1768.58  1838.64
                             1917.10  2011.49  2012.44  2048.69  2084.54
                             2092.89  2130.01  2148.08  2162.77  2183.09
                             2262.90  2278.05  4216.04  4296.44  4380.78
                             4440.55  4475.69  4533.52  4536.81  4540.18

 Zero-point correction=                           0.159370 (Hartree/Particle)
 Thermal correction to Energy=                    0.170770
 Thermal correction to Enthalpy=                  0.171714
 Thermal correction to Gibbs Free Energy=         0.121829
 Sum of electronic and zero-point Energies=           -649.623254
 Sum of electronic and thermal Energies=              -649.611854
 Sum of electronic and thermal Enthalpies=            -649.610910
 Sum of electronic and thermal Free Energies=         -649.660794

                     E (Thermal)             CV                S
                      KCal/Mol        Cal/Mol-Kelvin    Cal/Mol-Kelvin
 Total                  107.160             44.677            104.992
 Electronic               0.000              0.000              0.000
 Translational            0.889              2.981             41.600
 Rotational               0.889              2.981             31.476
 Vibrational            105.382             38.716             31.915
 Vibration     1          0.595              1.980              5.067
 Vibration     2          0.602              1.956              3.652
 Vibration     3          0.613              1.920              2.892
 Vibration     4          0.627              1.875              2.394
 Vibration     5          0.640              1.834              2.093
 Vibration     6          0.653              1.794              1.871
 Vibration     7          0.675              1.725              1.585
 Vibration     8          0.684              1.699              1.495
 Vibration     9          0.717              1.603              1.229
 Vibration    10          0.731              1.563              1.140
 Vibration    11          0.754              1.501              1.018
 Vibration    12          0.796              1.393              0.841
 Vibration    13          0.808              1.364              0.800
 Vibration    14          0.822              1.329              0.754
 Vibration    15          0.868              1.221              0.626
 Vibration    16          0.893              1.166              0.570

 Optimization completed.
    -- Stationary point found.
 Normal termination of Gaussian 16 at Tue Dec 26 21:13:30 2023.
