 Q-Chem 5.4, Q-Chem, Inc., Pleasanton, CA (2021)
 Q-Chem 5.4.0 for Intel X86 EM64T Linux

User input:
--------------------------------------------------------------
$molecule
-1 1
C                 -5.0461510000     -0.0935260000     -3.9588530000
C                 -4.4809470000     -0.0680410000     -5.2293510000
C                 -3.0926580000      0.0013560000     -5.3788850000
C                 -4.2302720000     -0.0499540000     -2.8253240000
C                 -2.8385620000      0.0195300000     -2.9769080000
C                 -2.2746780000      0.0449540000     -4.2554530000
C                 -4.8712990000     -0.0790020000     -1.4590040000
C                 -3.9510730000     -0.0302080000     -0.2834500000
C                 -2.6165530000      0.0360890000     -0.4542070000
C                 -1.9589240000      0.0662020000     -1.7682310000
O                 -6.0797950000     -0.1394090000     -1.3624960000
O                 -0.7391520000      0.1269290000     -1.8767260000
S                 -4.6343630000     -0.0598230000      1.4299420000
O                 -5.4793220000      1.1523820000      1.4844170000
O                 -5.3555880000     -1.3491360000      1.4911360000
O                 -3.4187220000      0.0025710000      2.2762830000
H                 -6.1187800000     -0.1471010000     -3.8166010000
H                 -5.1194240000     -0.1021290000     -6.1058870000
H                 -2.6537490000      0.0211550000     -6.3708430000
H                 -1.1958960000      0.0988780000     -4.3410770000
H                 -1.9720030000      0.0702530000      0.4174670000
$end
$rem
MAX_SCF_CYCLES=200
BASIS  =  6-311++G(d,p)
GUI  =  2
JOB_TYPE  =  SP
METHOD  =  B3LYP
SOLVENT_METHOD = PCM
$end
$pcm
theory = CPCM
$end
$solvent
dielectric 37.219
opticaldielectric 1.43
$end

--------------------------------------------------------------

             Standard Nuclear Orientation (Angstroms)
    I     Atom           X                Y                Z
 ----------------------------------------------------------------
    1      C      -5.0461510000    -0.0935260000    -3.9588530000
    2      C      -4.4809470000    -0.0680410000    -5.2293510000
    3      C      -3.0926580000     0.0013560000    -5.3788850000
    4      C      -4.2302720000    -0.0499540000    -2.8253240000
    5      C      -2.8385620000     0.0195300000    -2.9769080000
    6      C      -2.2746780000     0.0449540000    -4.2554530000
    7      C      -4.8712990000    -0.0790020000    -1.4590040000
    8      C      -3.9510730000    -0.0302080000    -0.2834500000
    9      C      -2.6165530000     0.0360890000    -0.4542070000
   10      C      -1.9589240000     0.0662020000    -1.7682310000
   11      O      -6.0797950000    -0.1394090000    -1.3624960000
   12      O      -0.7391520000     0.1269290000    -1.8767260000
   13      S      -4.6343630000    -0.0598230000     1.4299420000
   14      O      -5.4793220000     1.1523820000     1.4844170000
   15      O      -5.3555880000    -1.3491360000     1.4911360000
   16      O      -3.4187220000     0.0025710000     2.2762830000
   17      H      -6.1187800000    -0.1471010000    -3.8166010000
   18      H      -5.1194240000    -0.1021290000    -6.1058870000
   19      H      -2.6537490000     0.0211550000    -6.3708430000
   20      H      -1.1958960000     0.0988780000    -4.3410770000
   21      H      -1.9720030000     0.0702530000     0.4174670000
 ----------------------------------------------------------------

    9   -1158.7356481601      6.14e-06  Convergence criterion met
 Total energy in the final basis set =    -1158.7356481601

                    Orbital Energies (a.u.)
 --------------------------------------------------------------

 Alpha MOs
 -- Occupied --
-89.0590 -19.1393 -19.1389 -19.1031 -19.1031 -19.1016 -10.2925 -10.2873
-10.2300 -10.2137 -10.2079 -10.2062 -10.1960 -10.1958 -10.1953 -10.1950
 -8.1175  -6.0800  -6.0800  -6.0797  -1.1247  -1.0752  -1.0678  -0.9892
 -0.9871  -0.8896  -0.8452  -0.7777  -0.7761  -0.7084  -0.6607  -0.6458
 -0.6028  -0.5832  -0.5462  -0.5289  -0.5146  -0.4932  -0.4686  -0.4663
 -0.4657  -0.4569  -0.4531  -0.4504  -0.4488  -0.4279  -0.4229  -0.3827
 -0.3817  -0.3676  -0.3474  -0.3472  -0.3332  -0.3179  -0.3101  -0.2969
 -0.2917  -0.2782  -0.2771  -0.2717  -0.2677

          Ground-State Mulliken Net Atomic Charges

     Atom                 Charge (a.u.)
  ----------------------------------------
      1 C                     0.198473
      2 C                    -0.385136
      3 C                    -0.383953
      4 C                     0.014121
      5 C                     0.548967
      6 C                     0.160322
      7 C                    -0.492919
      8 C                    -0.404021
      9 C                     0.095956
     10 C                    -0.501857
     11 O                    -0.240223
     12 O                    -0.297039
     13 S                     0.628343
     14 O                    -0.346908
     15 O                    -0.346456
     16 O                    -0.374521
     17 H                     0.196603
     18 H                     0.224313
     19 H                     0.226539
     20 H                     0.192842
     21 H                     0.286554
  ----------------------------------------
  Sum of atomic charges =    -1.000000

                    Cartesian Multipole Moments
 -----------------------------------------------------------------
    Charge (ESU x 10^10)
                -4.8032
    Dipole Moment (Debye)
         X      23.0846      Y       0.3165      Z     -11.7441
       Tot      25.9022
    Quadrupole Moments (Debye-Ang)
        XX    -234.6130     XY      -2.2506     YY    -109.1604
        XZ      55.1587     YZ       0.8187     ZZ     -91.5110

 Total job time:  58.25s(wall), 228.23s(cpu)
        *  Thank you very much for using Q-Chem.  Have a nice day.  *
