 Gaussian 16, Revision A.03,
 Gaussian 16:  ES64L-G16RevA.03 25-Dec-2016

 ----------------------------------------------------------------
 #P UB3LYP/6-311++G(d,p) SCRF=(PCM,Solvent=n,n-DiMethylFormamide)
 ----------------------------------------------------------------

 ------------------
 Quinone PCM in DMF
 ------------------
 Symbolic Z-matrix:
 Charge =  0 Multiplicity = 1

                         Standard orientation:
 ---------------------------------------------------------------------
 Center     Atomic      Atomic             Coordinates (Angstroms)
 Number     Number       Type             X           Y           Z
 ---------------------------------------------------------------------
      1          8           0        3.233462   -1.928631    0.000069
      2          6           0        2.805632   -0.660421    0.000113
      3          6           0        3.766773    0.361109    0.000210
      4          6           0        3.368201    1.687213    0.000176
      5          6           0        2.012760    2.034361    0.000026
      6          6           0        1.047125    1.037666   -0.000050
      7          6           0       -0.397734    1.446853   -0.000266
      8          8           0       -0.692339    2.628705   -0.000600
      9          6           0       -1.420580    0.362114   -0.000039
     10          6           0       -2.806586    0.643030    0.000192
     11          8           0       -3.234120    1.926428    0.000375
     12          6           0       -3.732812   -0.408310    0.000241
     13          6           0       -3.313259   -1.730260   -0.000009
     14          6           0       -1.955464   -2.029447   -0.000199
     15          6           0       -1.021456   -0.995199   -0.000143
     16          6           0        0.419852   -1.377190   -0.000078
     17          8           0        0.740241   -2.575299   -0.000104
     18          6           0        1.427916   -0.323200    0.000037
     19          1           0        2.431830   -2.505836   -0.000080
     20          1           0        4.813088    0.081092    0.000271
     21          1           0        4.120469    2.468157    0.000242
     22          1           0        1.694950    3.068474   -0.000041
     23          1           0       -4.198215    1.939418    0.000306
     24          1           0       -4.793446   -0.173114    0.000455
     25          1           0       -4.048369   -2.526697   -0.000014
     26          1           0       -1.600466   -3.051025   -0.000333
 ---------------------------------------------------------------------

 SCF Done:  E(UB3LYP) =  -839.466481849     A.U. after   14 cycles

 The electronic state is 1-A.
 Alpha  occ. eigenvalues --  -19.17661 -19.16575 -19.14109 -19.12648 -10.29101
 Alpha  occ. eigenvalues --  -10.28403 -10.27211 -10.26924 -10.21511 -10.21304
 Alpha  occ. eigenvalues --  -10.21177 -10.20901 -10.20420 -10.20355 -10.20163
 Alpha  occ. eigenvalues --  -10.19562 -10.19524 -10.19300  -1.09490  -1.09424
 Alpha  occ. eigenvalues --   -1.06448  -1.06273  -0.89531  -0.88095  -0.81766
 Alpha  occ. eigenvalues --   -0.77886  -0.77768  -0.77032  -0.69625  -0.67641
 Alpha  occ. eigenvalues --   -0.66348  -0.62607  -0.61620  -0.57795  -0.56792
 Alpha  occ. eigenvalues --   -0.54244  -0.52912  -0.51455  -0.49784  -0.49233
 Alpha  occ. eigenvalues --   -0.47803  -0.46859  -0.46259  -0.45533  -0.45392
 Alpha  occ. eigenvalues --   -0.44415  -0.41933  -0.41813  -0.41428  -0.41149
 Alpha  occ. eigenvalues --   -0.39698  -0.39312  -0.38322  -0.37658  -0.36258
 Alpha  occ. eigenvalues --   -0.35808  -0.29525  -0.29520  -0.28163  -0.27202
 Alpha  occ. eigenvalues --   -0.25721  -0.25160
 Alpha virt. eigenvalues --   -0.12153  -0.06817  -0.04165  -0.01704  -0.00797
 Alpha virt. eigenvalues --    0.00008   0.00560   0.01493   0.01866   0.03047
 Alpha virt. eigenvalues --    0.03512   0.03767   0.03797   0.04098   0.04339

  Beta  occ. eigenvalues --  -19.17661 -19.16575 -19.14109 -19.12648 -10.29101
  Beta  occ. eigenvalues --  -10.28403 -10.27211 -10.26924 -10.21511 -10.21304
  Beta  occ. eigenvalues --  -10.21177 -10.20901 -10.20420 -10.20355 -10.20163
  Beta  occ. eigenvalues --  -10.19562 -10.19524 -10.19300  -1.09490  -1.09424
  Beta  occ. eigenvalues --   -1.06448  -1.06273  -0.89531  -0.88095  -0.81766
  Beta  occ. eigenvalues --   -0.77886  -0.77768  -0.77032  -0.69625  -0.67641
  Beta  occ. eigenvalues --   -0.66348  -0.62607  -0.61620  -0.57795  -0.56792
  Beta  occ. eigenvalues --   -0.54244  -0.52912  -0.51455  -0.49784  -0.49233
  Beta  occ. eigenvalues --   -0.47803  -0.46859  -0.46259  -0.45533  -0.45392
  Beta  occ. eigenvalues --   -0.44415  -0.41933  -0.41813  -0.41428  -0.41149
  Beta  occ. eigenvalues --   -0.39698  -0.39312  -0.38322  -0.37658  -0.36258
  Beta  occ. eigenvalues --   -0.35808  -0.29525  -0.29520  -0.28163  -0.27202
  Beta  occ. eigenvalues --   -0.25721  -0.25160
  Beta virt. eigenvalues --   -0.12153  -0.06817  -0.04165  -0.01704  -0.00797
  Beta virt. eigenvalues --    0.00008   0.00560   0.01493   0.01866   0.03047
  Beta virt. eigenvalues --    0.03512   0.03767   0.03797   0.04098   0.04339

 Mulliken charges and spin densities:
               1          2
     1  O   -0.309534   0.000000
     2  C   -0.145768  -0.000000
     3  C   -0.110498   0.000000
     4  C   -0.372695   0.000000
     5  C   -0.065953  -0.000000
     6  C    0.505412   0.000000
     7  C   -0.412632  -0.000000
     8  O   -0.279663   0.000000
     9  C   -0.237334   0.000000
    10  C   -0.001496  -0.000000
    11  O   -0.202532  -0.000000
    12  C   -0.155438   0.000000
    13  C   -0.365573  -0.000000
    14  C    0.083878  -0.000000
    15  C    0.602800   0.000000
    16  C   -0.479585   0.000000
    17  O   -0.312420  -0.000000
    18  C    0.408762   0.000000
    19  H    0.346474  -0.000000
    20  H    0.214257  -0.000000
    21  H    0.218517   0.000000
    22  H    0.173776  -0.000000
    23  H    0.308793   0.000000
    24  H    0.184636   0.000000
    25  H    0.220353  -0.000000
    26  H    0.183461   0.000000
 Sum of Mulliken charges =  -0.00000   0.00000

 Dipole moment (field-independent basis, Debye):
    X=             -4.1027    Y=             -0.6561    Z=              0.0009  Tot=              4.1548
 Quadrupole moment (field-independent basis, Debye-Ang):
   XX=            -68.8193   YY=           -113.5438   ZZ=           -105.1623
   XY=             14.0053   XZ=             -0.0018   YZ=              0.0036

 Normal termination of Gaussian 16 at Tue Jan 16 05:02:14 2024.
