 Q-Chem 5.4, Q-Chem, Inc., Pleasanton, CA (2021)
 Q-Chem 5.4.0 for Intel X86 EM64T Linux

User input:
--------------------------------------------------------------
$molecule
0 1
O                  3.1022000000     -2.1811470000      0.2142240000
C                  2.7805010000     -0.8826250000      0.2560140000
C                  3.8157390000      0.0496190000      0.4188680000
C                  3.5277260000      1.4031740000      0.4673110000
C                  2.2121500000      1.8664570000      0.3561240000
C                  1.1744610000      0.9593030000      0.1944920000
C                 -0.2247360000      1.4920750000      0.0785090000
O                 -0.4213050000      2.6931320000      0.1273740000
C                 -1.3262780000      0.5023220000     -0.0943160000
C                 -2.6775400000      0.9023750000     -0.2125370000
O                 -2.9977330000      2.2159670000     -0.1695730000
C                 -3.6805890000     -0.0625640000     -0.3737690000
C                 -3.3714130000     -1.4138000000     -0.4201430000
C                 -2.0495960000     -1.8295690000     -0.3058820000
C                 -1.0402240000     -0.8823120000     -0.1449090000
C                  0.3576650000     -1.3877190000     -0.0276240000
O                  0.5785180000     -2.6071690000     -0.0753750000
C                  1.4420360000     -0.4272800000      0.1420400000
H                  2.2609650000     -2.6853830000      0.0965430000
H                  4.8303130000     -0.3199780000      0.5038450000
H                  4.3364870000      2.1143380000      0.5935320000
H                  1.9806210000      2.9225890000      0.3931680000
H                 -3.9523660000      2.3128390000     -0.2641250000
H                 -4.7130060000      0.2636870000     -0.4628590000
H                 -4.1644240000     -2.1418690000     -0.5456340000
H                 -1.7801700000     -2.8764610000     -0.3386170000
$end
$rem
MAX_SCF_CYCLES=200
BASIS  =  6-311++G(d,p)
GUI  =  2
JOB_TYPE  =  SP
METHOD  =  B3LYP
SOLVENT_METHOD = PCM
$end
$pcm
theory = CPCM
$end
$solvent
dielectric 37.219
opticaldielectric 1.43
$end

--------------------------------------------------------------

             Standard Nuclear Orientation (Angstroms)
    I     Atom           X                Y                Z
 ----------------------------------------------------------------
    1      O       3.1022000000    -2.1811470000     0.2142240000
    2      C       2.7805010000    -0.8826250000     0.2560140000
    3      C       3.8157390000     0.0496190000     0.4188680000
    4      C       3.5277260000     1.4031740000     0.4673110000
    5      C       2.2121500000     1.8664570000     0.3561240000
    6      C       1.1744610000     0.9593030000     0.1944920000
    7      C      -0.2247360000     1.4920750000     0.0785090000
    8      O      -0.4213050000     2.6931320000     0.1273740000
    9      C      -1.3262780000     0.5023220000    -0.0943160000
   10      C      -2.6775400000     0.9023750000    -0.2125370000
   11      O      -2.9977330000     2.2159670000    -0.1695730000
   12      C      -3.6805890000    -0.0625640000    -0.3737690000
   13      C      -3.3714130000    -1.4138000000    -0.4201430000
   14      C      -2.0495960000    -1.8295690000    -0.3058820000
   15      C      -1.0402240000    -0.8823120000    -0.1449090000
   16      C       0.3576650000    -1.3877190000    -0.0276240000
   17      O       0.5785180000    -2.6071690000    -0.0753750000
   18      C       1.4420360000    -0.4272800000     0.1420400000
   19      H       2.2609650000    -2.6853830000     0.0965430000
   20      H       4.8303130000    -0.3199780000     0.5038450000
   21      H       4.3364870000     2.1143380000     0.5935320000
   22      H       1.9806210000     2.9225890000     0.3931680000
   23      H      -3.9523660000     2.3128390000    -0.2641250000
   24      H      -4.7130060000     0.2636870000    -0.4628590000
   25      H      -4.1644240000    -2.1418690000    -0.5456340000
   26      H      -1.7801700000    -2.8764610000    -0.3386170000
 ----------------------------------------------------------------

    9    -839.4731105689      2.34e-06  Convergence criterion met
 Total energy in the final basis set =     -839.4731105689

                    Orbital Energies (a.u.)
 --------------------------------------------------------------

 Alpha MOs
 -- Occupied --
-19.1723 -19.1641 -19.1393 -19.1257 -10.2892 -10.2831 -10.2690 -10.2671
-10.2125 -10.2104 -10.2097 -10.2069 -10.2004 -10.2004 -10.1973 -10.1927
-10.1921 -10.1905  -1.0930  -1.0901  -1.0630  -1.0619  -0.8928  -0.8783
 -0.8149  -0.7760  -0.7749  -0.7677  -0.6938  -0.6733  -0.6606  -0.6228
 -0.6132  -0.5751  -0.5649  -0.5403  -0.5261  -0.5121  -0.4946  -0.4891
 -0.4751  -0.4667  -0.4616  -0.4525  -0.4520  -0.4419  -0.4168  -0.4166
 -0.4124  -0.4089  -0.3934  -0.3902  -0.3799  -0.3741  -0.3599  -0.3564
 -0.2937  -0.2931  -0.2790  -0.2711  -0.2547  -0.2495

          Ground-State Mulliken Net Atomic Charges

     Atom                 Charge (a.u.)
  ----------------------------------------
      1 O                    -0.322789
      2 C                    -0.132252
      3 C                    -0.140759
      4 C                    -0.386698
      5 C                    -0.081706
      6 C                     0.496940
      7 C                    -0.383711
      8 O                    -0.297142
      9 C                    -0.246462
     10 C                    -0.018961
     11 O                    -0.225884
     12 C                    -0.154340
     13 C                    -0.373902
     14 C                     0.065011
     15 C                     0.587404
     16 C                    -0.458366
     17 O                    -0.325007
     18 C                     0.421740
     19 H                     0.357767
     20 H                     0.230398
     21 H                     0.234718
     22 H                     0.184285
     23 H                     0.328975
     24 H                     0.211230
     25 H                     0.235876
     26 H                     0.193636
  ----------------------------------------
  Sum of atomic charges =     0.000000

                    Cartesian Multipole Moments
 -----------------------------------------------------------------
    Charge (ESU x 10^10)
                 0.0000
    Dipole Moment (Debye)
         X      -4.3035      Y      -0.3162      Z      -0.4684
       Tot       4.3404
    Quadrupole Moments (Debye-Ang)
        XX     -65.5647     XY      10.0340     YY    -116.0028
        XZ       4.6718     YZ       0.4272     ZZ    -104.7446

 Total job time:  49.75s(wall), 363.29s(cpu)
        *  Thank you very much for using Q-Chem.  Have a nice day.  *
