 Gaussian 16, Revision A.03,
 Gaussian 16:  ES64L-G16RevA.03 25-Dec-2016

 ----------------------------------------------------------------
 #P UB3LYP/6-311++G(d,p) SCRF=(PCM,Solvent=n,n-DiMethylFormamide)
 ----------------------------------------------------------------

 ------------------
 Radical PCM in DMF
 ------------------
 Symbolic Z-matrix:
 Charge = -1 Multiplicity = 2

                         Standard orientation:
 ---------------------------------------------------------------------
 Center     Atomic      Atomic             Coordinates (Angstroms)
 Number     Number       Type             X           Y           Z
 ---------------------------------------------------------------------
      1          6           0       -1.473324   -0.511384   -0.000258
      2          6           0       -0.791203   -1.765748   -0.000106
      3          6           0        0.582942   -1.824431    0.000397
      4          6           0        1.417681   -0.638562    0.000330
      5          6           0        0.736311    0.652665   -0.001302
      6          6           0       -0.632619    0.682232    0.000634
      7          8           0       -2.739123   -0.343316   -0.001117
      8          8           0        2.679313   -0.716860    0.000914
      9          8           0       -1.351980    1.845602    0.002496
     10          6           0        1.570671    1.904135   -0.002635
     11          1           0       -1.397594   -2.667074   -0.000128
     12          1           0        1.105331   -2.776563    0.000865
     13          1           0        2.151073    1.990664    0.923700
     14          1           0        0.945021    2.792124   -0.107659
     15          1           0        2.302722    1.877588   -0.816382
     16          1           0       -2.274992    1.506414   -0.001101
 ---------------------------------------------------------------------

 SCF Done:  E(UB3LYP) =  -496.311216279     A.U. after   18 cycles

 The electronic state is 2-A.
 Alpha  occ. eigenvalues --  -19.14143 -19.08768 -19.07580 -10.22132 -10.21948
 Alpha  occ. eigenvalues --  -10.21940 -10.16363 -10.16312 -10.16235 -10.15581
 Alpha  occ. eigenvalues --   -1.06078  -0.99695  -0.99512  -0.82250  -0.76194
 Alpha  occ. eigenvalues --   -0.69171  -0.66647  -0.58968  -0.57709  -0.51023
 Alpha  occ. eigenvalues --   -0.48487  -0.45759  -0.43533  -0.42944  -0.40293
 Alpha  occ. eigenvalues --   -0.39939  -0.39835  -0.39350  -0.37288  -0.36056
 Alpha  occ. eigenvalues --   -0.35451  -0.34422  -0.28052  -0.25920  -0.23984
 Alpha  occ. eigenvalues --   -0.22641  -0.16258
 Alpha virt. eigenvalues --   -0.00267   0.00449   0.01152   0.01476   0.02915
 Alpha virt. eigenvalues --    0.03491   0.03930   0.04228   0.05676   0.07291
 Alpha virt. eigenvalues --    0.07382   0.07676   0.08688   0.09453   0.10330

  Beta  occ. eigenvalues --  -19.14107 -19.08101 -19.06933 -10.21896 -10.21859
  Beta  occ. eigenvalues --  -10.21831 -10.16298 -10.16283 -10.15994 -10.15585
  Beta  occ. eigenvalues --   -1.05884  -0.98568  -0.98387  -0.81675  -0.75942
  Beta  occ. eigenvalues --   -0.68640  -0.65867  -0.58642  -0.57341  -0.50659
  Beta  occ. eigenvalues --   -0.48300  -0.45419  -0.42626  -0.42557  -0.39939
  Beta  occ. eigenvalues --   -0.39528  -0.39142  -0.39043  -0.35844  -0.35429
  Beta  occ. eigenvalues --   -0.34216  -0.33436  -0.25320  -0.25048  -0.23374
  Beta  occ. eigenvalues --   -0.21881
  Beta virt. eigenvalues --   -0.08928  -0.00233   0.01167   0.01514   0.01786
  Beta virt. eigenvalues --    0.03513   0.03980   0.04252   0.05182   0.05742
  Beta virt. eigenvalues --    0.07408   0.07583   0.07710   0.08810   0.09501

 Mulliken charges and spin densities:
               1          2
     1  C   -0.167372   0.148959
     2  C    0.007571   0.053848
     3  C    0.192831   0.186425
     4  C   -1.001512   0.074540
     5  C    1.985882   0.028883
     6  C   -1.560278   0.038387
     7  O   -0.538151   0.235998
     8  O   -0.490961   0.230283
     9  O   -0.299571   0.013362
    10  C   -0.275498   0.008908
    11  H    0.186715  -0.004865
    12  H    0.180062  -0.014552
    13  H    0.163443   0.002024
    14  H    0.171156  -0.000352
    15  H    0.158135   0.001529
    16  H    0.287547  -0.003376
 Sum of Mulliken charges =  -1.00000   1.00000

 Dipole moment (field-independent basis, Debye):
    X=             -0.6833    Y=              1.2240    Z=             -0.0021  Tot=              1.4018
 Quadrupole moment (field-independent basis, Debye-Ang):
   XX=            -97.1551   YY=            -64.9990   ZZ=            -62.3587
   XY=              3.6026   XZ=             -0.0001   YZ=             -0.0080

 Normal termination of Gaussian 16 at Wed Jan 24 22:49:02 2024.
