 Gaussian 16, Revision A.03,
 Gaussian 16:  ES64L-G16RevA.03 25-Dec-2016

 ----------------------------------------------------------------
 #P UB3LYP/6-311++G(d,p) SCRF=(PCM,Solvent=n,n-DiMethylFormamide)
 ----------------------------------------------------------------

 ------------------
 Quinone PCM in DMF
 ------------------
 Symbolic Z-matrix:
 Charge =  0 Multiplicity = 1

                         Standard orientation:
 ---------------------------------------------------------------------
 Center     Atomic      Atomic             Coordinates (Angstroms)
 Number     Number       Type             X           Y           Z
 ---------------------------------------------------------------------
      1          7           0       -3.323948   -0.439890    0.000022
      2          6           0       -2.050727    0.013998   -0.000004
      3          6           0       -1.670045    1.322229   -0.000176
      4          6           0       -0.277851    1.732553   -0.000037
      5          8           0        0.049622    2.914912    0.000012
      6          6           0        0.769845    0.653606    0.000012
      7          6           0        2.119263    1.001609    0.000081
      8          6           0        3.096977    0.009226    0.000057
      9          6           0        2.733366   -1.339151   -0.000001
     10          6           0        1.389412   -1.696349   -0.000029
     11          6           0        0.404587   -0.703378   -0.000024
     12          6           0       -1.023052   -1.091571   -0.000045
     13          8           0       -1.400138   -2.252681   -0.000055
     14          1           0       -4.111417    0.184653    0.000845
     15          1           0       -3.471765   -1.438139    0.000510
     16          1           0       -2.402205    2.122681   -0.000280
     17          1           0        2.380004    2.052822    0.000118
     18          1           0        4.145296    0.286036    0.000094
     19          1           0        3.497505   -2.107897   -0.000028
     20          1           0        1.083697   -2.735409   -0.000066
 ---------------------------------------------------------------------

 SCF Done:  E(UB3LYP) =  -590.662328329     A.U. after   15 cycles

 The electronic state is 1-A.
 Alpha  occ. eigenvalues --  -19.14601 -19.11708 -14.35173 -10.29377 -10.27103
 Alpha  occ. eigenvalues --  -10.25551 -10.20923 -10.20727 -10.20033 -10.19944
 Alpha  occ. eigenvalues --  -10.19710 -10.19586 -10.18340  -1.08107  -1.05050
 Alpha  occ. eigenvalues --   -0.95159  -0.88977  -0.82119  -0.77908  -0.76585
 Alpha  occ. eigenvalues --   -0.69843  -0.65006  -0.64339  -0.59490  -0.57374
 Alpha  occ. eigenvalues --   -0.54723  -0.51784  -0.50852  -0.48807  -0.46833
 Alpha  occ. eigenvalues --   -0.46011  -0.45276  -0.45206  -0.43980  -0.42445
 Alpha  occ. eigenvalues --   -0.41685  -0.38850  -0.38328  -0.36971  -0.36222
 Alpha  occ. eigenvalues --   -0.29678  -0.28656  -0.27908  -0.27231  -0.24273
 Alpha virt. eigenvalues --   -0.12062  -0.05373  -0.02409  -0.00708   0.00221
 Alpha virt. eigenvalues --    0.01154   0.02283   0.02469   0.02759   0.04285
 Alpha virt. eigenvalues --    0.04478   0.05061   0.05226   0.05936   0.07113

  Beta  occ. eigenvalues --  -19.14601 -19.11708 -14.35173 -10.29377 -10.27103
  Beta  occ. eigenvalues --  -10.25551 -10.20923 -10.20727 -10.20033 -10.19944
  Beta  occ. eigenvalues --  -10.19710 -10.19586 -10.18340  -1.08107  -1.05050
  Beta  occ. eigenvalues --   -0.95159  -0.88977  -0.82119  -0.77908  -0.76585
  Beta  occ. eigenvalues --   -0.69843  -0.65006  -0.64339  -0.59490  -0.57374
  Beta  occ. eigenvalues --   -0.54723  -0.51784  -0.50852  -0.48807  -0.46833
  Beta  occ. eigenvalues --   -0.46011  -0.45276  -0.45206  -0.43980  -0.42445
  Beta  occ. eigenvalues --   -0.41685  -0.38850  -0.38328  -0.36971  -0.36222
  Beta  occ. eigenvalues --   -0.29678  -0.28656  -0.27908  -0.27231  -0.24273
  Beta virt. eigenvalues --   -0.12062  -0.05373  -0.02409  -0.00708   0.00221
  Beta virt. eigenvalues --    0.01154   0.02283   0.02469   0.02759   0.04285
  Beta virt. eigenvalues --    0.04478   0.05061   0.05226   0.05936   0.07113

 Mulliken charges and spin densities:
               1          2
     1  N   -0.417404  -0.000000
     2  C    0.197454  -0.000000
     3  C    0.576061  -0.000000
     4  C   -0.587924   0.000000
     5  O   -0.353827  -0.000000
     6  C    0.191934   0.000000
     7  C    0.253633  -0.000000
     8  C   -0.337818  -0.000000
     9  C   -0.392328  -0.000000
    10  C    0.193013   0.000000
    11  C    0.346237  -0.000000
    12  C   -1.015228   0.000000
    13  O   -0.287639  -0.000000
    14  H    0.331697  -0.000000
    15  H    0.315863   0.000000
    16  H    0.202519   0.000000
    17  H    0.180368   0.000000
    18  H    0.210416  -0.000000
    19  H    0.210004  -0.000000
    20  H    0.182969   0.000000
 Sum of Mulliken charges =  -0.00000   0.00000

 Dipole moment (field-independent basis, Debye):
    X=             -1.3471    Y=             -2.9869    Z=              0.0025  Tot=              3.2766
 Quadrupole moment (field-independent basis, Debye-Ang):
   XX=            -45.4737   YY=            -91.4536   ZZ=            -77.6540
   XY=             -5.3750   XZ=             -0.0100   YZ=             -0.0014

 Normal termination of Gaussian 16 at Sun Jan 21 08:07:17 2024.
