 Q-Chem 5.4, Q-Chem, Inc., Pleasanton, CA (2021)
 Q-Chem 5.4.0 for Intel X86 EM64T Linux

User input:
--------------------------------------------------------------
$molecule
-2 1
C                  2.2354570000     -0.0726360000      0.0772680000
C                  0.7293830000      0.0063960000      0.0269650000
C                  0.0815080000      1.2440390000      0.0821640000
C                 -1.3410250000      1.4188320000      0.0412000000
O                 -1.9312600000      2.5763620000      0.0932040000
C                 -2.0456750000      0.1757170000     -0.0637010000
C                 -1.3683670000     -1.0452830000     -0.1168290000
Br                -2.5046640000     -2.6846670000     -0.2623740000
C                  0.0372400000     -1.2595260000     -0.0789080000
O                  0.6589620000     -2.3928380000     -0.1280580000
H                  2.5767110000     -0.6823990000      0.9267310000
H                  2.6786890000      0.9284860000      0.1581140000
H                  2.6408020000     -0.5703100000     -0.8159370000
H                  0.6819290000      2.1526550000      0.1619210000
H                 -3.1296900000      0.2051720000     -0.1017600000
$end

$rem
BASIS  =  6-311++G(d,p)
GUI  =  2
JOB_TYPE  =  SP
METHOD  =  B3LYP
SCF_CONVERGENCE  = 8
SOLVENT_METHOD = sm12
$end

$smx
solvent dimethylformamide
charges CM5
$end

--------------------------------------------------------------

             Standard Nuclear Orientation (Angstroms)
    I     Atom           X                Y                Z
 ----------------------------------------------------------------
    1      C       2.2354570000    -0.0726360000     0.0772680000
    2      C       0.7293830000     0.0063960000     0.0269650000
    3      C       0.0815080000     1.2440390000     0.0821640000
    4      C      -1.3410250000     1.4188320000     0.0412000000
    5      O      -1.9312600000     2.5763620000     0.0932040000
    6      C      -2.0456750000     0.1757170000    -0.0637010000
    7      C      -1.3683670000    -1.0452830000    -0.1168290000
    8      Br     -2.5046640000    -2.6846670000    -0.2623740000
    9      C       0.0372400000    -1.2595260000    -0.0789080000
   10      O       0.6589620000    -2.3928380000    -0.1280580000
   11      H       2.5767110000    -0.6823990000     0.9267310000
   12      H       2.6786890000     0.9284860000     0.1581140000
   13      H       2.6408020000    -0.5703100000    -0.8159370000
   14      H       0.6819290000     2.1526550000     0.1619210000
   15      H      -3.1296900000     0.2051720000    -0.1017600000
 ----------------------------------------------------------------

   18   -2994.4162263894      5.08e-09  Convergence criterion met
 Total energy in the final basis set =    -2994.7071294847

                    Orbital Energies (a.u.)
 --------------------------------------------------------------

 Alpha MOs
 -- Occupied --
******** -62.4559 -56.2762 -56.2729 -56.2727 -19.0238 -19.0222 -10.1906
-10.1877 -10.1875 -10.1737 -10.1562 -10.1457 -10.1443  -8.6639  -6.4939
 -6.4831  -6.4826  -2.6050  -2.6020  -2.6015  -2.5930  -2.5929  -0.9373
 -0.9315  -0.8110  -0.7767  -0.7298  -0.6764  -0.6554  -0.5578  -0.5401
 -0.4612  -0.4468  -0.4202  -0.4065  -0.3931  -0.3783  -0.3642  -0.3617
 -0.3385  -0.3262  -0.3198  -0.2830  -0.2646  -0.2317  -0.2224  -0.2001
 -0.1996  -0.1295

          Ground-State Mulliken Net Atomic Charges

     Atom                 Charge (a.u.)
  ----------------------------------------
      1 C                     0.742654
      2 C                     0.964878
      3 C                    -2.038611
      4 C                    -1.370895
      5 O                    -0.455004
      6 C                    -0.649474
      7 C                     2.153679
      8 Br                    0.395200
      9 C                    -1.933736
     10 O                    -0.298267
     11 H                     0.161918
     12 H                     0.283088
     13 H                     0.161821
     14 H                    -0.148028
     15 H                     0.030776
  ----------------------------------------
  Sum of atomic charges =    -2.000000

                    Cartesian Multipole Moments
 -----------------------------------------------------------------
    Charge (ESU x 10^10)
                -9.6064
    Dipole Moment (Debye)
         X       8.1053      Y       1.0297      Z       0.3624
       Tot       8.1785
    Quadrupole Moments (Debye-Ang)
        XX    -111.0448     XY      13.9905     YY    -136.4173
        XZ      -0.1560     YZ      -2.9259     ZZ     -82.5865

 Total job time:  188.48s(wall), 1293.83s(cpu)
        *  Thank you very much for using Q-Chem.  Have a nice day.  *
