 Gaussian 16, Revision A.03,
 Gaussian 16:  ES64L-G16RevA.03 25-Dec-2016

 ----------------------------------------------------------------------
 #P UB3LYP/6-311++G(d,p) nosym opt freq SCRF=(PCM,Solvent=n,n-DiMethylF
 ormamide)
 ----------------------------------------------------------------------

 --------
 Oxidized
 --------
 Symbolic Z-matrix:
 Charge =  0 Multiplicity = 1

 SCF Done:  E(UB3LYP) =  -764.373439132     A.U. after   15 cycles
 SCF Done:  E(UB3LYP) =  -764.373522142     A.U. after   13 cycles
 SCF Done:  E(UB3LYP) =  -764.373640065     A.U. after   12 cycles
 SCF Done:  E(UB3LYP) =  -764.373700180     A.U. after   12 cycles
 SCF Done:  E(UB3LYP) =  -764.373727182     A.U. after   12 cycles
 SCF Done:  E(UB3LYP) =  -764.373738138     A.U. after   11 cycles
 SCF Done:  E(UB3LYP) =  -764.373750338     A.U. after   11 cycles
 SCF Done:  E(UB3LYP) =  -764.373758003     A.U. after   11 cycles
 SCF Done:  E(UB3LYP) =  -764.373763408     A.U. after   11 cycles
 SCF Done:  E(UB3LYP) =  -764.373766555     A.U. after   11 cycles
 SCF Done:  E(UB3LYP) =  -764.374048179     A.U. after   11 cycles
 SCF Done:  E(UB3LYP) =  -764.374062030     A.U. after   12 cycles
 SCF Done:  E(UB3LYP) =  -764.374067194     A.U. after   10 cycles
 SCF Done:  E(UB3LYP) =  -764.374072993     A.U. after   12 cycles
 SCF Done:  E(UB3LYP) =  -764.374074692     A.U. after   11 cycles
 SCF Done:  E(UB3LYP) =  -764.374076124     A.U. after   11 cycles
 SCF Done:  E(UB3LYP) =  -764.374076991     A.U. after   10 cycles
 SCF Done:  E(UB3LYP) =  -764.374077709     A.U. after   10 cycles
 SCF Done:  E(UB3LYP) =  -764.374077782     A.U. after    9 cycles
 Optimization completed.
    -- Stationary point found.
 Normal termination of Gaussian 16 at Sun Feb 11 03:10:34 2024.

 ----------------------------------------------------------------------
 #P Geom=AllCheck Guess=TCheck SCRF=Check GenChk UB3LYP/6-311++G(d,p) F
 req
 ----------------------------------------------------------------------

 Structure from the checkpoint file:  "260.chk"
 --------
 Oxidized
 --------
 Charge =  0 Multiplicity = 1

                          Input orientation:
 ---------------------------------------------------------------------
 Center     Atomic      Atomic             Coordinates (Angstroms)
 Number     Number       Type             X           Y           Z
 ---------------------------------------------------------------------
      1          6           0       -2.599051   -2.546190    0.444907
      2          8           0       -2.414720   -1.317234   -0.297998
      3          6           0       -1.233277   -0.676748   -0.161698
      4          6           0       -1.204896    0.600910    0.307389
      5          8           0       -2.336179    1.170663    0.776602
      6          6           0       -2.795702    2.379322    0.125409
      7          6           0        0.081324    1.340479    0.464267
      8          8           0        0.098608    2.430168    1.019779
      9          6           0        1.326647    0.690508   -0.027563
     10          6           0        2.541925    1.371193    0.059752
     11          6           0        3.715964    0.761516   -0.376988
     12          6           0        3.680438   -0.531889   -0.899950
     13          6           0        2.470136   -1.215718   -0.991238
     14          6           0        1.290339   -0.609537   -0.557123
     15          6           0       -0.001219   -1.338823   -0.681105
     16          8           0       -0.075218   -2.431214   -1.226566
     17          1           0       -1.847512   -3.284884    0.171314
     18          1           0       -2.561287   -2.336220    1.516399
     19          1           0       -3.590457   -2.903131    0.174659
     20          1           0       -2.042359    3.163452    0.180099
     21          1           0       -3.689088    2.680232    0.668213
     22          1           0       -3.050811    2.161409   -0.914331
     23          1           0        2.555965    2.373180    0.469540
     24          1           0        4.657497    1.293339   -0.308353
     25          1           0        4.594452   -1.006121   -1.237170
     26          1           0        2.428485   -2.218660   -1.396744
 ---------------------------------------------------------------------

 SCF Done:  E(UB3LYP) =  -764.374077782     A.U. after    2 cycles

 Alpha  occ. eigenvalues --  -19.16638 -19.16636 -19.13942 -19.13940 -10.29035
 Alpha  occ. eigenvalues --  -10.29032 -10.26470 -10.26402 -10.22549 -10.22548
 Alpha  occ. eigenvalues --  -10.21285 -10.21234 -10.20178 -10.20176 -10.20094
 Alpha  occ. eigenvalues --  -10.20043  -1.09925  -1.08311  -1.06532  -1.05820
 Alpha  occ. eigenvalues --   -0.89458  -0.83644  -0.78262  -0.78189  -0.73428
 Alpha  occ. eigenvalues --   -0.70867  -0.68823  -0.64155  -0.63118  -0.59753
 Alpha  occ. eigenvalues --   -0.56877  -0.54753  -0.53173  -0.50365  -0.49796
 Alpha  occ. eigenvalues --   -0.49575  -0.47408  -0.46803  -0.46772  -0.45690
 Alpha  occ. eigenvalues --   -0.45597  -0.45066  -0.44016  -0.43248  -0.41762
 Alpha  occ. eigenvalues --   -0.39013  -0.38780  -0.37561  -0.37452  -0.37442
 Alpha  occ. eigenvalues --   -0.32663  -0.32179  -0.29136  -0.28392  -0.28301
 Alpha  occ. eigenvalues --   -0.28016  -0.26099
 Alpha virt. eigenvalues --   -0.12856  -0.05971  -0.03214  -0.00862   0.00231
 Alpha virt. eigenvalues --    0.00643   0.01614   0.01951   0.02069   0.02508
 Alpha virt. eigenvalues --    0.02639   0.03947   0.04300   0.05199   0.05314

  Beta  occ. eigenvalues --  -19.16638 -19.16636 -19.13942 -19.13940 -10.29035
  Beta  occ. eigenvalues --  -10.29032 -10.26470 -10.26402 -10.22549 -10.22548
  Beta  occ. eigenvalues --  -10.21285 -10.21234 -10.20178 -10.20176 -10.20094
  Beta  occ. eigenvalues --  -10.20043  -1.09925  -1.08311  -1.06532  -1.05820
  Beta  occ. eigenvalues --   -0.89458  -0.83644  -0.78262  -0.78189  -0.73428
  Beta  occ. eigenvalues --   -0.70867  -0.68823  -0.64155  -0.63118  -0.59753
  Beta  occ. eigenvalues --   -0.56877  -0.54753  -0.53173  -0.50365  -0.49796
  Beta  occ. eigenvalues --   -0.49575  -0.47408  -0.46803  -0.46772  -0.45690
  Beta  occ. eigenvalues --   -0.45597  -0.45066  -0.44016  -0.43248  -0.41762
  Beta  occ. eigenvalues --   -0.39013  -0.38780  -0.37561  -0.37452  -0.37442
  Beta  occ. eigenvalues --   -0.32663  -0.32179  -0.29136  -0.28392  -0.28301
  Beta  occ. eigenvalues --   -0.28016  -0.26099
  Beta virt. eigenvalues --   -0.12856  -0.05971  -0.03214  -0.00862   0.00231
  Beta virt. eigenvalues --    0.00643   0.01614   0.01951   0.02069   0.02508
  Beta virt. eigenvalues --    0.02639   0.03947   0.04300   0.05199   0.05314

 Mulliken charges and spin densities:
               1          2
     1  C   -0.291026  -0.000000
     2  O   -0.160137  -0.000000
     3  C   -0.014903   0.000000
     4  C   -0.018353   0.000000
     5  O   -0.159718  -0.000000
     6  C   -0.291566   0.000000
     7  C   -0.521129  -0.000000
     8  O   -0.284510   0.000000
     9  C    0.452140   0.000000
    10  C    0.254398  -0.000000
    11  C   -0.353770  -0.000000
    12  C   -0.353139  -0.000000
    13  C    0.255808   0.000000
    14  C    0.454846  -0.000000
    15  C   -0.522235  -0.000000
    16  O   -0.284578   0.000000
    17  H    0.175046  -0.000000
    18  H    0.162460   0.000000
    19  H    0.179764  -0.000000
    20  H    0.174966  -0.000000
    21  H    0.179969   0.000000
    22  H    0.162538  -0.000000
    23  H    0.189669  -0.000000
    24  H    0.212027  -0.000000
    25  H    0.212036   0.000000
    26  H    0.189394   0.000000
 Sum of Mulliken charges =  -0.00000  -0.00000

 Dipole moment (field-independent basis, Debye):
    X=              2.3428    Y=              0.0747    Z=             -0.3440  Tot=              2.3692
 Quadrupole moment (field-independent basis, Debye-Ang):
   XX=            -72.7601   YY=            -93.7456   ZZ=            -97.6694
   XY=             -0.7808   XZ=             -3.6010   YZ=            -10.1104

  Exact polarizability: 260.341   7.505 263.067 -19.504  51.750 139.607
 Approx polarizability: 279.077   9.907 334.371 -18.496  79.594 171.287

                      1                      2                      3
                      A                      A                      A
 Frequencies --     40.8664                56.0113                61.8412
 Red. masses --      3.8344                 2.5871                 2.4295
 Frc consts  --      0.0038                 0.0048                 0.0055
 IR Inten    --     16.2915                11.7575                10.7951

                      4                      5                      6
                      A                      A                      A
 Frequencies --     68.2893               115.0346               115.8060
 Red. masses --      4.6795                 2.2272                 1.2936
 Frc consts  --      0.0129                 0.0174                 0.0102
 IR Inten    --      1.9289                 0.0564                 5.1865

                      7                      8                      9
                      A                      A                      A
 Frequencies --    130.8995               175.5702               197.4454
 Red. masses --      1.7009                 3.9829                 4.6146
 Frc consts  --      0.0172                 0.0723                 0.1060
 IR Inten    --      0.0257                 9.9634                 0.7624

                     10                     11                     12
                      A                      A                      A
 Frequencies --    236.0772               268.2259               324.0598
 Red. masses --      4.4414                 5.4955                 8.8840
 Frc consts  --      0.1458                 0.2329                 0.5497
 IR Inten    --     11.7126                 6.7719                 9.5294

                     13                     14                     15
                      A                      A                      A
 Frequencies --    324.8908               383.3769               393.3836
 Red. masses --      6.8810                10.3470                 7.0091
 Frc consts  --      0.4279                 0.8960                 0.6391
 IR Inten    --      3.7071                39.8278                 5.3737

                     16                     17                     18
                      A                      A                      A
 Frequencies --    410.4002               418.0680               449.7565
 Red. masses --      8.5941                 4.1679                 5.2462
 Frc consts  --      0.8528                 0.4292                 0.6252
 IR Inten    --      0.1125                 5.4951                 0.4432

                     19                     20                     21
                      A                      A                      A
 Frequencies --    470.6954               497.1361               612.2276
 Red. masses --      4.9312                 9.2059                 7.0261
 Frc consts  --      0.6437                 1.3405                 1.5516
 IR Inten    --     23.4447                 2.0487                11.0860

                     22                     23                     24
                      A                      A                      A
 Frequencies --    615.9747               671.2336               721.5028
 Red. masses --      6.1970                 6.5212                 5.1791
 Frc consts  --      1.3853                 1.7311                 1.5885
 IR Inten    --      0.0734                16.2302                 1.0190

                     25                     26                     27
                      A                      A                      A
 Frequencies --    729.3516               739.3316               803.8114
 Red. masses --      7.1683                 2.1322                 7.2567
 Frc consts  --      2.2467                 0.6867                 2.7625
 IR Inten    --      6.2032               138.4007                 0.0563

                     28                     29                     30
                      A                      A                      A
 Frequencies --    810.5089               894.0257               912.4529
 Red. masses --      2.1447                 8.3872                 1.5055
 Frc consts  --      0.8301                 3.9497                 0.7385
 IR Inten    --     31.4391                24.1390                11.4043

                     31                     32                     33
                      A                      A                      A
 Frequencies --    918.8432               930.2980               999.5198
 Red. masses --      4.5537                 7.4005                 1.3884
 Frc consts  --      2.2652                 3.7736                 0.8172
 IR Inten    --    106.6520               131.9743                 2.3533

                     34                     35                     36
                      A                      A                      A
 Frequencies --   1009.7834              1022.3478              1059.0020
 Red. masses --      9.2674                 1.3330                 1.9767
 Frc consts  --      5.5676                 0.8209                 1.3062
 IR Inten    --    283.6981                 0.1713                33.0429

                     37                     38                     39
                      A                      A                      A
 Frequencies --   1104.3539              1115.1125              1154.0818
 Red. masses --      6.2287                 2.4221                 1.2727
 Frc consts  --      4.4757                 1.7745                 0.9988
 IR Inten    --     95.7570                80.0840                98.3796

                     40                     41                     42
                      A                      A                      A
 Frequencies --   1158.4863              1176.0287              1186.3949
 Red. masses --      1.2517                 1.2837                 1.4565
 Frc consts  --      0.9897                 1.0461                 1.2079
 IR Inten    --     13.7630                79.3994                28.6566

                     43                     44                     45
                      A                      A                      A
 Frequencies --   1189.6219              1224.0301              1230.2044
 Red. masses --      1.5666                 1.9844                 2.6146
 Frc consts  --      1.3063                 1.7517                 2.3313
 IR Inten    --     76.8091               107.2430               549.5210

                     46                     47                     48
                      A                      A                      A
 Frequencies --   1277.2503              1316.6165              1325.0461
 Red. masses --      2.5545                 2.8707                 7.5817
 Frc consts  --      2.4553                 2.9319                 7.8429
 IR Inten    --    596.5372               155.1789                67.6556

                     49                     50                     51
                      A                      A                      A
 Frequencies --   1364.6289              1459.1601              1470.1013
 Red. masses --      7.7490                 1.1871                 1.1998
 Frc consts  --      8.5020                 1.4892                 1.5277
 IR Inten    --     29.8540                23.4413                67.0507

                     52                     53                     54
                      A                      A                      A
 Frequencies --   1479.3199              1480.6624              1481.8176
 Red. masses --      1.0530                 1.0984                 2.1642
 Frc consts  --      1.3577                 1.4188                 2.7998
 IR Inten    --      5.4217                 3.2464                 2.5102

                     55                     56                     57
                      A                      A                      A
 Frequencies --   1495.5057              1496.0817              1504.5064
 Red. masses --      1.0469                 1.0499                 2.6282
 Frc consts  --      1.3795                 1.3846                 3.5050
 IR Inten    --     33.2917                20.5376                11.5777

                     58                     59                     60
                      A                      A                      A
 Frequencies --   1607.8805              1619.9931              1639.1232
 Red. masses --      6.7510                 5.9568                 9.2348
 Frc consts  --     10.2831                 9.2106                14.6184
 IR Inten    --     64.1774               257.2308               259.8581

                     61                     62                     63
                      A                      A                      A
 Frequencies --   1691.2135              1697.0144              3040.3591
 Red. masses --     11.8574                12.4126                 1.0340
 Frc consts  --     19.9818                21.0612                 5.6315
 IR Inten    --    988.3869                65.9829               114.2110

                     64                     65                     66
                      A                      A                      A
 Frequencies --   3041.5490              3125.7488              3126.1408
 Red. masses --      1.0341                 1.1007                 1.1009
 Frc consts  --      5.6365                 6.3361                 6.3387
 IR Inten    --     45.4995                40.0968                23.6618

                     67                     68                     69
                      A                      A                      A
 Frequencies --   3157.0189              3157.0762              3180.1655
 Red. masses --      1.1072                 1.1072                 1.0874
 Frc consts  --      6.5017                 6.5020                 6.4796
 IR Inten    --      7.4685                27.1524                 3.0512

                     70                     71                     72
                      A                      A                      A
 Frequencies --   3192.0308              3202.8497              3206.2045
 Red. masses --      1.0911                 1.0927                 1.0960
 Frc consts  --      6.5502                 6.6045                 6.6380
 IR Inten    --      8.2490                 3.3263                16.1923

 - Thermochemistry -
 -------------------
 Temperature   298.150 Kelvin.  Pressure   1.00000 Atm.
 Atom     1 has atomic number  6 and mass  12.00000

 Molecular mass:   218.05791 amu.
 Principal axes and moments of inertia in atomic units:
                           1         2         3
     Eigenvalues --  2259.833263830.404835846.90167
           X            0.98926   0.00901   0.14587
           Y            0.03085   0.96272  -0.26873
           Z           -0.14285   0.27035   0.95211
 This molecule is an asymmetric top.
 Rotational symmetry number  1.
 Warning -- assumption of classical behavior for rotation
           may cause significant error
 Rotational temperatures (Kelvin)      0.03833     0.02261     0.01481
 Rotational constants (GHZ):           0.79862     0.47116     0.30867
 Zero-point vibrational energy     514163.5 (Joules/Mol)
                                  122.88803 (Kcal/Mol)
 Warning -- explicit consideration of  22 degrees of freedom as
           vibrations may cause significant error
 Vibrational temperatures:     58.80    80.59    88.98    98.25   165.51
          (Kelvin)            166.62   188.34   252.61   284.08   339.66
                              385.92   466.25   467.45   551.59   565.99
                              590.47   601.51   647.10   677.23   715.27
                              880.86   886.25   965.76  1038.08  1049.37
                             1063.73  1156.51  1166.14  1286.30  1312.82
                             1322.01  1338.49  1438.09  1452.85  1470.93
                             1523.67  1588.92  1604.40  1660.47  1666.80
                             1692.04  1706.96  1711.60  1761.11  1769.99
                             1837.68  1894.32  1906.45  1963.40  2099.41
                             2115.15  2128.41  2130.34  2132.00  2151.70
                             2152.53  2164.65  2313.38  2330.81  2358.33
                             2433.28  2441.63  4374.40  4376.11  4497.26
                             4497.82  4542.25  4542.33  4575.55  4592.62
                             4608.19  4613.01

 Zero-point correction=                           0.195835 (Hartree/Particle)
 Thermal correction to Energy=                    0.210418
 Thermal correction to Enthalpy=                  0.211362
 Thermal correction to Gibbs Free Energy=         0.153132
 Sum of electronic and zero-point Energies=           -764.178243
 Sum of electronic and thermal Energies=              -764.163660
 Sum of electronic and thermal Enthalpies=            -764.162716
 Sum of electronic and thermal Free Energies=         -764.220945

                     E (Thermal)             CV                S
                      KCal/Mol        Cal/Mol-Kelvin    Cal/Mol-Kelvin
 Total                  132.039             53.219            122.554
 Electronic               0.000              0.000              0.000
 Translational            0.889              2.981             42.042
 Rotational               0.889              2.981             32.293
 Vibrational            130.262             47.257             48.220
 Vibration     1          0.594              1.981              5.217
 Vibration     2          0.596              1.975              4.593
 Vibration     3          0.597              1.973              4.398
 Vibration     4          0.598              1.969              4.202
 Vibration     5          0.608              1.937              3.182
 Vibration     6          0.608              1.936              3.169
 Vibration     7          0.612              1.922              2.933
 Vibration     8          0.628              1.872              2.375
 Vibration     9          0.637              1.843              2.157
 Vibration    10          0.655              1.786              1.832
 Vibration    11          0.673              1.732              1.608
 Vibration    12          0.709              1.627              1.290
 Vibration    13          0.709              1.626              1.285
 Vibration    14          0.753              1.506              1.026
 Vibration    15          0.761              1.484              0.987
 Vibration    16          0.775              1.448              0.925
 Vibration    17          0.781              1.431              0.899
 Vibration    18          0.809              1.361              0.797
 Vibration    19          0.828              1.315              0.736
 Vibration    20          0.853              1.256              0.665
 Vibration    21          0.971              1.006              0.429
 Vibration    22          0.976              0.998              0.423

 Optimization completed.
    -- Stationary point found.
 Normal termination of Gaussian 16 at Sun Feb 11 04:01:20 2024.
