 Q-Chem 5.4, Q-Chem, Inc., Pleasanton, CA (2021)
 Q-Chem 5.4.0 for Intel X86 EM64T Linux

User input:
--------------------------------------------------------------
$molecule
0 1
C                 -0.1679170000      3.8544210000     -0.0524950000
C                 -1.4077170000      3.2394400000     -0.1969000000
C                 -1.4803580000      1.8828700000     -0.5186250000
C                  0.9997820000      3.1087690000     -0.2311640000
C                  0.9299720000      1.7438080000     -0.5546550000
C                 -0.3166320000      1.1368920000     -0.6965800000
C                  2.3209710000      3.7453470000     -0.0814650000
C                  3.5358790000      2.9058590000     -0.2891490000
C                  3.4941460000      1.5849190000     -0.5919410000
C                  2.1785520000      0.9298490000     -0.7486680000
O                  2.4853680000      4.9263610000      0.2035880000
O                  2.0976860000     -0.2581240000     -1.0286130000
H                 -0.0858780000      4.9051940000      0.1971460000
H                 -2.3161830000      3.8143560000     -0.0595720000
H                 -2.4472760000      1.4055740000     -0.6308100000
H                 -0.3550330000      0.0838070000     -0.9460460000
O                  4.6912230000      3.5745290000     -0.1415120000
C                  4.7358450000      0.7663280000     -0.8075090000
C                  5.1660490000      0.7118270000     -2.2893460000
C                  6.4246210000     -0.1349950000     -2.5046220000
C                  6.8695620000     -0.2000610000     -3.9698430000
C                  8.1277030000     -1.0472820000     -4.1924000000
C                  8.5651400000     -1.1074920000     -5.6588340000
H                  4.4453760000      4.4912050000      0.0868390000
H                  4.5449290000     -0.2510940000     -0.4572100000
H                  5.5495940000      1.1857440000     -0.2104210000
H                  5.3432530000      1.7315760000     -2.6495230000
H                  4.3428530000      0.3025950000     -2.8844360000
H                  6.2422650000     -1.1522430000     -2.1355200000
H                  7.2428010000      0.2699630000     -1.8951040000
H                  7.0503890000      0.8177230000     -4.3396110000
H                  6.0506620000     -0.6037510000     -4.5792890000
H                  7.9470750000     -2.0641770000     -3.8232600000
H                  8.9461720000     -0.6441560000     -3.5835390000
H                  7.7803500000     -1.5390030000     -6.2882500000
H                  9.4635770000     -1.7184340000     -5.7835310000
H                  8.7867960000     -0.1081960000     -6.0469320000
$end

$rem
BASIS  =  6-311++G(d,p)
GUI  =  2
JOB_TYPE  =  SP
METHOD  =  B3LYP
SCF_CONVERGENCE  = 8
SOLVENT_METHOD = sm12
$end

$smx
solvent dimethylformamide
charges CM5
$end

--------------------------------------------------------------

             Standard Nuclear Orientation (Angstroms)
    I     Atom           X                Y                Z
 ----------------------------------------------------------------
    1      C      -0.1679170000     3.8544210000    -0.0524950000
    2      C      -1.4077170000     3.2394400000    -0.1969000000
    3      C      -1.4803580000     1.8828700000    -0.5186250000
    4      C       0.9997820000     3.1087690000    -0.2311640000
    5      C       0.9299720000     1.7438080000    -0.5546550000
    6      C      -0.3166320000     1.1368920000    -0.6965800000
    7      C       2.3209710000     3.7453470000    -0.0814650000
    8      C       3.5358790000     2.9058590000    -0.2891490000
    9      C       3.4941460000     1.5849190000    -0.5919410000
   10      C       2.1785520000     0.9298490000    -0.7486680000
   11      O       2.4853680000     4.9263610000     0.2035880000
   12      O       2.0976860000    -0.2581240000    -1.0286130000
   13      H      -0.0858780000     4.9051940000     0.1971460000
   14      H      -2.3161830000     3.8143560000    -0.0595720000
   15      H      -2.4472760000     1.4055740000    -0.6308100000
   16      H      -0.3550330000     0.0838070000    -0.9460460000
   17      O       4.6912230000     3.5745290000    -0.1415120000
   18      C       4.7358450000     0.7663280000    -0.8075090000
   19      C       5.1660490000     0.7118270000    -2.2893460000
   20      C       6.4246210000    -0.1349950000    -2.5046220000
   21      C       6.8695620000    -0.2000610000    -3.9698430000
   22      C       8.1277030000    -1.0472820000    -4.1924000000
   23      C       8.5651400000    -1.1074920000    -5.6588340000
   24      H       4.4453760000     4.4912050000     0.0868390000
   25      H       4.5449290000    -0.2510940000    -0.4572100000
   26      H       5.5495940000     1.1857440000    -0.2104210000
   27      H       5.3432530000     1.7315760000    -2.6495230000
   28      H       4.3428530000     0.3025950000    -2.8844360000
   29      H       6.2422650000    -1.1522430000    -2.1355200000
   30      H       7.2428010000     0.2699630000    -1.8951040000
   31      H       7.0503890000     0.8177230000    -4.3396110000
   32      H       6.0506620000    -0.6037510000    -4.5792890000
   33      H       7.9470750000    -2.0641770000    -3.8232600000
   34      H       8.9461720000    -0.6441560000    -3.5835390000
   35      H       7.7803500000    -1.5390030000    -6.2882500000
   36      H       9.4635770000    -1.7184340000    -5.7835310000
   37      H       8.7867960000    -0.1081960000    -6.0469320000
 ----------------------------------------------------------------

   15    -846.4705643185      9.35e-09  Convergence criterion met
 Total energy in the final basis set =     -846.4922092350

                    Orbital Energies (a.u.)
 --------------------------------------------------------------

 Alpha MOs
 -- Occupied --
-19.1791 -19.1487 -19.1263 -10.2926 -10.2785 -10.2676 -10.2109 -10.2096
-10.2045 -10.2009 -10.1990 -10.1972 -10.1971 -10.1773 -10.1698 -10.1656
-10.1649 -10.1642 -10.1577  -1.1091  -1.0669  -1.0596  -0.8923  -0.8450
 -0.8109  -0.7900  -0.7796  -0.7626  -0.7223  -0.6921  -0.6627  -0.6503
 -0.6207  -0.6052  -0.5890  -0.5800  -0.5736  -0.5422  -0.5181  -0.4970
 -0.4832  -0.4775  -0.4723  -0.4646  -0.4547  -0.4520  -0.4404  -0.4365
 -0.4328  -0.4225  -0.4111  -0.4072  -0.4012  -0.3946  -0.3854  -0.3792
 -0.3757  -0.3695  -0.3586  -0.3508  -0.3340  -0.3317  -0.3258  -0.3236
 -0.3021  -0.2892  -0.2794  -0.2767  -0.2575

          Ground-State Mulliken Net Atomic Charges

     Atom                 Charge (a.u.)
  ----------------------------------------
      1 C                     0.433837
      2 C                     0.408058
      3 C                     0.406785
      4 C                     0.472163
      5 C                    -0.607546
      6 C                    -0.004818
      7 C                    -1.068634
      8 C                    -0.520620
      9 C                     1.474402
     10 C                    -1.516319
     11 O                    -0.292279
     12 O                    -0.284720
     13 H                     0.218056
     14 H                     0.330142
     15 H                     0.317375
     16 H                     0.185367
     17 O                    -0.197432
     18 C                    -0.214099
     19 C                    -0.538073
     20 C                     0.069884
     21 C                    -0.257243
     22 C                    -0.221562
     23 C                    -0.649366
     24 H                     0.294041
     25 H                     0.181521
     26 H                     0.226380
     27 H                     0.135779
     28 H                     0.112818
     29 H                     0.103578
     30 H                     0.106565
     31 H                     0.102941
     32 H                     0.099395
     33 H                     0.127277
     34 H                     0.128329
     35 H                     0.140224
     36 H                     0.157199
     37 H                     0.140596
  ----------------------------------------
  Sum of atomic charges =     0.000000

                    Cartesian Multipole Moments
 -----------------------------------------------------------------
    Charge (ESU x 10^10)
                 0.0000
    Dipole Moment (Debye)
         X      -2.7161      Y       1.1932      Z       0.1874
       Tot       2.9725
    Quadrupole Moments (Debye-Ang)
        XX    -109.3958     XY      -5.6039     YY    -116.9757
        XZ       0.8698     YZ      -1.2845     ZZ    -117.1489

 Total job time:  1053.72s(wall), 8273.22s(cpu)
        *  Thank you very much for using Q-Chem.  Have a nice day.  *
