 Q-Chem 5.4, Q-Chem, Inc., Pleasanton, CA (2021)
 Q-Chem 5.4.0 for Intel X86 EM64T Linux

User input:
--------------------------------------------------------------
$molecule
-1 2
C                 -1.3918950000      2.0090810000     -4.7285380000
C                 -1.4307890000      0.6573880000     -5.0068000000
C                 -1.3355770000     -0.2804980000     -3.9553330000
C                 -1.2596850000      2.4767800000     -3.4020550000
C                 -1.1641050000      1.5362920000     -2.3476880000
C                 -1.2038340000      0.1574750000     -2.6527020000
C                 -1.2206870000      3.9130160000     -3.1469180000
C                 -1.0221250000      1.9613290000     -0.9589430000
C                 -1.0937010000      4.3512110000     -1.7651480000
C                 -0.9959320000      3.3908730000     -0.6885240000
C                 -1.0353090000      5.7599620000     -1.4640880000
C                 -0.8330240000      6.1609520000     -0.1426020000
C                 -0.7383700000      5.2321860000      0.8986150000
C                 -0.8416760000      3.8598700000      0.6660740000
O                 -1.2901890000      4.7154500000     -4.1345430000
O                 -0.9193960000      1.0728620000     -0.0510840000
H                 -1.4616770000      2.7520160000     -5.5139880000
H                 -1.5343190000      0.3146020000     -6.0322550000
H                 -1.3659350000     -1.3443230000     -4.1724320000
H                 -1.1275740000     -0.5380180000     -1.8255230000
H                 -0.5981350000      5.5968050000      1.9090250000
H                 -0.7631650000      7.2157800000      0.0940440000
N                 -1.1886250000      6.6926950000     -2.4705310000
N                 -0.8082370000      2.9606370000      1.7133300000
C                 -0.8947610000      8.0870510000     -2.2951990000
C                 -0.4082630000      3.3245350000      3.0433570000
H                 -1.2024650000      6.2702530000     -3.4019430000
H                 -0.7660420000      1.9885230000      1.3980530000
H                  0.1274690000      8.2719730000     -1.9215900000
H                 -1.5878160000      8.5750200000     -1.5936540000
H                 -0.9977660000      8.5888380000     -3.2600890000
H                 -1.1211140000      4.0138780000      3.5200450000
H                  0.5838700000      3.8071600000      3.0819720000
H                 -0.3680520000      2.4201270000      3.6547880000
$end

$rem
BASIS  =  6-311++G(d,p)
GUI  =  2
JOB_TYPE  =  SP
METHOD  =  B3LYP
SCF_CONVERGENCE  = 8
SOLVENT_METHOD = sm12
$end

$smx
solvent dimethylformamide
charges CM5
$end

--------------------------------------------------------------

             Standard Nuclear Orientation (Angstroms)
    I     Atom           X                Y                Z
 ----------------------------------------------------------------
    1      C      -1.3918950000     2.0090810000    -4.7285380000
    2      C      -1.4307890000     0.6573880000    -5.0068000000
    3      C      -1.3355770000    -0.2804980000    -3.9553330000
    4      C      -1.2596850000     2.4767800000    -3.4020550000
    5      C      -1.1641050000     1.5362920000    -2.3476880000
    6      C      -1.2038340000     0.1574750000    -2.6527020000
    7      C      -1.2206870000     3.9130160000    -3.1469180000
    8      C      -1.0221250000     1.9613290000    -0.9589430000
    9      C      -1.0937010000     4.3512110000    -1.7651480000
   10      C      -0.9959320000     3.3908730000    -0.6885240000
   11      C      -1.0353090000     5.7599620000    -1.4640880000
   12      C      -0.8330240000     6.1609520000    -0.1426020000
   13      C      -0.7383700000     5.2321860000     0.8986150000
   14      C      -0.8416760000     3.8598700000     0.6660740000
   15      O      -1.2901890000     4.7154500000    -4.1345430000
   16      O      -0.9193960000     1.0728620000    -0.0510840000
   17      H      -1.4616770000     2.7520160000    -5.5139880000
   18      H      -1.5343190000     0.3146020000    -6.0322550000
   19      H      -1.3659350000    -1.3443230000    -4.1724320000
   20      H      -1.1275740000    -0.5380180000    -1.8255230000
   21      H      -0.5981350000     5.5968050000     1.9090250000
   22      H      -0.7631650000     7.2157800000     0.0940440000
   23      N      -1.1886250000     6.6926950000    -2.4705310000
   24      N      -0.8082370000     2.9606370000     1.7133300000
   25      C      -0.8947610000     8.0870510000    -2.2951990000
   26      C      -0.4082630000     3.3245350000     3.0433570000
   27      H      -1.2024650000     6.2702530000    -3.4019430000
   28      H      -0.7660420000     1.9885230000     1.3980530000
   29      H       0.1274690000     8.2719730000    -1.9215900000
   30      H      -1.5878160000     8.5750200000    -1.5936540000
   31      H      -0.9977660000     8.5888380000    -3.2600890000
   32      H      -1.1211140000     4.0138780000     3.5200450000
   33      H       0.5838700000     3.8071600000     3.0819720000
   34      H      -0.3680520000     2.4201270000     3.6547880000
 ----------------------------------------------------------------

   16    -878.3982623530      5.57e-09  Convergence criterion met
 Total energy in the final basis set =     -878.4909669171

                    Orbital Energies (a.u.)
 --------------------------------------------------------------

 Alpha MOs
 -- Occupied --
-19.0767 -19.0766 -14.3100 -14.3100 -10.2274 -10.2273 -10.2127 -10.2127
-10.1985 -10.1985 -10.1807 -10.1802 -10.1781 -10.1778 -10.1770 -10.1767
-10.1763 -10.1762 -10.1710 -10.1704  -1.0039  -1.0016  -0.9312  -0.9258
 -0.8632  -0.8356  -0.7879  -0.7561  -0.7477  -0.7463  -0.6963  -0.6754
 -0.6672  -0.6341  -0.6228  -0.5856  -0.5719  -0.5392  -0.5301  -0.5080
 -0.5039  -0.4806  -0.4685  -0.4632  -0.4610  -0.4454  -0.4374  -0.4364
 -0.4296  -0.4195  -0.4187  -0.4148  -0.4044  -0.3890  -0.3854  -0.3805
 -0.3798  -0.3721  -0.3690  -0.3538  -0.3446  -0.3418  -0.3185  -0.2719
 -0.2612  -0.2585  -0.2484  -0.2456  -0.2383  -0.1879  -0.1382

 Beta MOs
 -- Occupied --
-19.0718 -19.0718 -14.3093 -14.3093 -10.2258 -10.2258 -10.2124 -10.2124
-10.1985 -10.1985 -10.1803 -10.1798 -10.1781 -10.1777 -10.1765 -10.1765
-10.1760 -10.1756 -10.1696 -10.1690  -0.9958  -0.9933  -0.9294  -0.9242
 -0.8613  -0.8338  -0.7840  -0.7542  -0.7462  -0.7445  -0.6959  -0.6712
 -0.6628  -0.6326  -0.6209  -0.5845  -0.5703  -0.5370  -0.5290  -0.5066
 -0.5031  -0.4782  -0.4674  -0.4619  -0.4602  -0.4426  -0.4360  -0.4351
 -0.4293  -0.4175  -0.4109  -0.4106  -0.4032  -0.3876  -0.3844  -0.3788
 -0.3692  -0.3681  -0.3621  -0.3524  -0.3406  -0.3330  -0.3120  -0.2561
 -0.2551  -0.2493  -0.2442  -0.2413  -0.2341  -0.1757

          Ground-State Mulliken Net Atomic Charges

     Atom                 Charge (a.u.)    Spin (a.u.)
  --------------------------------------------------------
      1 C                     0.131690       0.021473
      2 C                     0.980108       0.034261
      3 C                     0.979319       0.034198
      4 C                    -0.599566       0.024525
      5 C                    -0.601310       0.024457
      6 C                     0.131594       0.021507
      7 C                    -1.637877       0.074823
      8 C                    -1.641248       0.075146
      9 C                    -0.695516       0.005719
     10 C                    -0.694722       0.006120
     11 C                    -1.199766       0.033102
     12 C                     1.217838       0.108012
     13 C                     1.209423       0.107741
     14 C                    -1.205336       0.033127
     15 O                    -0.286596       0.179256
     16 O                    -0.286429       0.179240
     17 H                     0.178046      -0.000911
     18 H                     0.358389      -0.002667
     19 H                     0.358311      -0.002663
     20 H                     0.178108      -0.000907
     21 H                     0.318613      -0.007727
     22 H                     0.318456      -0.007720
     23 N                    -0.316205       0.030764
     24 N                    -0.314310       0.030854
     25 C                     0.041046      -0.003053
     26 C                     0.039574      -0.002988
     27 H                     0.319281      -0.003554
     28 H                     0.318852      -0.003528
     29 H                     0.210594       0.003470
     30 H                     0.193893       0.002347
     31 H                     0.295753      -0.000112
     32 H                     0.193801       0.002344
     33 H                     0.210594       0.003463
     34 H                     0.295597      -0.000119
  --------------------------------------------------------
  Sum of atomic charges =    -1.000000

                    Cartesian Multipole Moments
 -----------------------------------------------------------------
    Charge (ESU x 10^10)
                -4.8032
    Dipole Moment (Debye)
         X       5.9308      Y     -14.2199      Z       9.7076
       Tot      18.2103
    Quadrupole Moments (Debye-Ang)
        XX    -135.2097     XY      19.4447     YY    -173.7568
        XZ     -11.3873     YZ      35.8309     ZZ    -153.1519

 Total job time:  1153.00s(wall), 8815.74s(cpu)
        *  Thank you very much for using Q-Chem.  Have a nice day.  *
