 Gaussian 16, Revision A.03,
 Gaussian 16:  ES64L-G16RevA.03 25-Dec-2016

 ----------------------------------------------------------------
 #P UB3LYP/6-311++G(d,p) SCRF=(PCM,Solvent=n,n-DiMethylFormamide)
 ----------------------------------------------------------------

 ------------------
 Radical PCM in DMF
 ------------------
 Symbolic Z-matrix:
 Charge = -1 Multiplicity = 2

                         Standard orientation:
 ---------------------------------------------------------------------
 Center     Atomic      Atomic             Coordinates (Angstroms)
 Number     Number       Type             X           Y           Z
 ---------------------------------------------------------------------
      1          7           0       -2.233100    2.817418   -0.107348
      2          6           0       -2.172599    1.424951   -0.015453
      3          6           0       -3.359184    0.696695    0.052916
      4          6           0       -3.359193   -0.696886    0.053192
      5          6           0       -2.172521   -1.425115   -0.015162
      6          7           0       -2.232604   -2.817235   -0.106691
      7          6           0       -0.924036   -0.724702   -0.036875
      8          6           0        0.327805   -1.473471   -0.008368
      9          8           0        0.380620   -2.742988    0.027518
     10          6           0        1.570685   -0.708741   -0.005972
     11          6           0        2.806437   -1.394011    0.004396
     12          6           0        4.003158   -0.706411    0.011861
     13          6           0        4.003175    0.706451    0.011931
     14          6           0        2.806475    1.394079    0.004509
     15          6           0        1.570676    0.708838   -0.005914
     16          6           0        0.327772    1.473545   -0.008372
     17          8           0        0.380534    2.743024    0.027778
     18          6           0       -0.924107    0.724700   -0.036971
     19          1           0       -1.322424    3.252966    0.050546
     20          1           0       -3.020652    3.236217    0.364990
     21          1           0       -4.303541    1.234765    0.073379
     22          1           0       -4.303559   -1.234909    0.074027
     23          1           0       -3.021735   -3.236784    0.362118
     24          1           0       -1.322123   -3.253457    0.050176
     25          1           0        2.774745   -2.476996    0.005664
     26          1           0        4.943940   -1.249231    0.017378
     27          1           0        4.943954    1.249261    0.017441
     28          1           0        2.774832    2.477073    0.005871
 ---------------------------------------------------------------------

 SCF Done:  E(UB3LYP) =  -799.851687752     A.U. after   17 cycles

 The electronic state is 2-A.
 Alpha  occ. eigenvalues --  -19.07274 -19.07273 -14.29745 -14.29738 -10.22306
 Alpha  occ. eigenvalues --  -10.22305 -10.20532 -10.20524 -10.17117 -10.17096
 Alpha  occ. eigenvalues --  -10.17070 -10.17059 -10.16905 -10.16861 -10.16757
 Alpha  occ. eigenvalues --  -10.16756 -10.16294 -10.16240  -1.00098  -0.99834
 Alpha  occ. eigenvalues --   -0.90909  -0.89858  -0.85563  -0.81889  -0.77858
 Alpha  occ. eigenvalues --   -0.74839  -0.73640  -0.71255  -0.66193  -0.63351
 Alpha  occ. eigenvalues --   -0.62349  -0.57937  -0.55738  -0.54372  -0.52906
 Alpha  occ. eigenvalues --   -0.50691  -0.48352  -0.47179  -0.47117  -0.45730
 Alpha  occ. eigenvalues --   -0.44408  -0.43550  -0.42184  -0.42125  -0.40859
 Alpha  occ. eigenvalues --   -0.40699  -0.38867  -0.38440  -0.38075  -0.37034
 Alpha  occ. eigenvalues --   -0.36921  -0.34602  -0.34208  -0.33451  -0.33442
 Alpha  occ. eigenvalues --   -0.27344  -0.25928  -0.25455  -0.24547  -0.24321
 Alpha  occ. eigenvalues --   -0.23576  -0.19221  -0.13245
 Alpha virt. eigenvalues --   -0.04476  -0.02033  -0.00257   0.00427   0.00835
 Alpha virt. eigenvalues --    0.01051   0.02043   0.02127   0.03579   0.04231
 Alpha virt. eigenvalues --    0.04378   0.04810   0.05130   0.05762   0.06083

  Beta  occ. eigenvalues --  -19.06810 -19.06809 -14.29680 -14.29673 -10.22125
  Beta  occ. eigenvalues --  -10.22124 -10.20483 -10.20474 -10.17101 -10.17072
  Beta  occ. eigenvalues --  -10.17063 -10.17024 -10.16831 -10.16795 -10.16753
  Beta  occ. eigenvalues --  -10.16744 -10.16177 -10.16122  -0.99299  -0.99012
  Beta  occ. eigenvalues --   -0.90725  -0.89700  -0.85359  -0.81713  -0.77473
  Beta  occ. eigenvalues --   -0.74637  -0.73475  -0.70963  -0.65538  -0.63169
  Beta  occ. eigenvalues --   -0.62098  -0.57840  -0.55542  -0.54132  -0.52809
  Beta  occ. eigenvalues --   -0.50609  -0.48217  -0.47010  -0.46875  -0.45628
  Beta  occ. eigenvalues --   -0.44263  -0.43405  -0.42088  -0.41255  -0.40714
  Beta  occ. eigenvalues --   -0.40210  -0.38697  -0.38013  -0.36918  -0.36658
  Beta  occ. eigenvalues --   -0.36389  -0.34458  -0.33380  -0.33069  -0.32545
  Beta  occ. eigenvalues --   -0.26412  -0.24826  -0.24479  -0.24123  -0.23888
  Beta  occ. eigenvalues --   -0.23153  -0.18081
  Beta virt. eigenvalues --   -0.07983  -0.03501  -0.01012  -0.00239   0.00436
  Beta virt. eigenvalues --    0.00856   0.01512   0.02065   0.02131   0.03630
  Beta virt. eigenvalues --    0.04251   0.04398   0.04899   0.05788   0.05998

 Mulliken charges and spin densities:
               1          2
     1  N   -0.428577   0.027801
     2  C   -0.140595   0.052693
     3  C   -0.309258   0.094115
     4  C   -0.308502   0.094446
     5  C   -0.139191   0.052344
     6  N   -0.428700   0.027869
     7  C    0.515075  -0.014643
     8  C   -0.347123   0.095821
     9  O   -0.466719   0.168796
    10  C   -0.025763   0.027608
    11  C    0.112666   0.027063
    12  C   -0.487935   0.035643
    13  C   -0.487684   0.035530
    14  C    0.112508   0.027173
    15  C   -0.025718   0.027562
    16  C   -0.347638   0.095956
    17  O   -0.466608   0.168903
    18  C    0.516571  -0.014585
    19  H    0.308792  -0.003033
    20  H    0.255241  -0.001126
    21  H    0.170992  -0.006963
    22  H    0.170864  -0.006989
    23  H    0.255400  -0.001134
    24  H    0.308959  -0.003036
    25  H    0.162802  -0.000902
    26  H    0.178674  -0.003004
    27  H    0.178669  -0.002996
    28  H    0.162798  -0.000910
 Sum of Mulliken charges =  -1.00000   1.00000

 Dipole moment (field-independent basis, Debye):
    X=             -2.0926    Y=             -0.0121    Z=              2.1605  Tot=              3.0078
 Quadrupole moment (field-independent basis, Debye-Ang):
   XX=           -101.9174   YY=           -133.6307   ZZ=           -114.3493
   XY=              0.0392   XZ=             -6.3990   YZ=              0.0241

 Normal termination of Gaussian 16 at Sun Jan 14 01:20:37 2024.
