 Q-Chem 5.4, Q-Chem, Inc., Pleasanton, CA (2021)
 Q-Chem 5.4.0 for Intel X86 EM64T Linux

User input:
--------------------------------------------------------------
$molecule
0 1
C                 -3.4246530000      3.6025260000      0.0655600000
C                 -4.6081810000      2.8557760000      0.0258220000
C                 -4.6130620000      1.4641980000      0.0532920000
C                 -2.1966980000      2.8948040000      0.1222210000
C                 -2.2106460000      1.4842090000      0.1367920000
C                 -3.4117480000      0.7744990000      0.1103670000
C                 -0.8888630000      3.6208450000      0.1932920000
C                  0.3853670000      2.8436630000      0.0706730000
C                  0.3438940000      1.4335910000      0.0853630000
C                 -0.9472530000      0.6954460000      0.1734170000
C                  1.6372580000      3.5021220000     -0.0355280000
C                  2.7876130000      2.7089880000     -0.1225010000
C                  2.7383090000      1.3182920000     -0.0946960000
C                  1.5138220000      0.6767850000      0.0109870000
O                 -0.8617470000      4.8327540000      0.3563980000
O                 -0.9697970000     -0.5232680000      0.2522750000
C                 -3.5462810000      5.1069920000      0.0364060000
H                 -5.5519200000      3.3880390000     -0.0262640000
H                 -5.5534640000      0.9252580000      0.0268840000
H                 -3.3737980000     -0.3070080000      0.1308110000
C                  1.8175490000      5.0005710000     -0.0702370000
H                  1.4337900000     -0.4023830000      0.0335310000
H                  3.7488980000      3.2034230000     -0.2126750000
H                  3.6547340000      0.7424660000     -0.1587190000
H                 -4.5921090000      5.3878490000     -0.1052790000
H                 -2.9506330000      5.5486340000     -0.7641880000
H                 -3.1825400000      5.5563980000      0.9621750000
H                  1.2089730000      5.4664020000     -0.8470620000
H                  2.8673700000      5.2395830000     -0.2531800000
H                  1.5087270000      5.4632350000      0.8688310000
$end
$rem
MAX_SCF_CYCLES=200
BASIS  =  6-311++G(d,p)
GUI  =  2
JOB_TYPE  =  SP
METHOD  =  B3LYP
SOLVENT_METHOD = COSMO
$end
$solvent
dielectric 37.219
opticaldielectric 1.43
$end

--------------------------------------------------------------

             Standard Nuclear Orientation (Angstroms)
    I     Atom           X                Y                Z
 ----------------------------------------------------------------
    1      C       2.5319037864    -1.0160575826    -0.0486970115
    2      C       3.6993692813    -0.2466463860    -0.1192939435
    3      C       3.6772267837     1.1449600086    -0.1048333924
    4      C       1.2915498160    -0.3320529882     0.0262304404
    5      C       1.2778353675     1.0786190420     0.0274354075
    6      C       2.4638686289     1.8114726914    -0.0298638997
    7      C       0.0000444365    -1.0828964051     0.1304754687
    8      C      -1.2915359759    -0.3320901213     0.0264594335
    9      C      -1.2777236112     1.0786003032     0.0272313552
   10      C       0.0000501496     1.8427561000     0.0822972963
   11      C      -2.5320119456    -1.0159841559    -0.0482821281
   12      C      -3.6993681301    -0.2464542138    -0.1193150608
   13      C      -3.6770810846     1.1451453363    -0.1054101476
   14      C      -2.4636727312     1.8115486746    -0.0304748466
   15      O       0.0002208705    -2.2934702359     0.3053275148
   16      O       0.0000187397     3.0623833840     0.1493787172
   17      C       2.6827079909    -2.5180587815    -0.0663537893
   18      H       4.6522353867    -0.7607668518    -0.1855244838
   19      H       4.6060475209     1.7019690175    -0.1552578874
   20      H       2.4049149389     2.8921738823    -0.0186858406
   21      C      -2.6832373667    -2.5179480171    -0.0654401206
   22      H      -2.4046028532     2.8922468731    -0.0195625439
   23      H      -4.6522822000    -0.7605060074    -0.1854338900
   24      H      -4.6058345240     1.7022315784    -0.1562164001
   25      H       3.7308453166    -2.7796965607    -0.2265577786
   26      H       2.0799996586    -2.9790251534    -0.8506035066
   27      H       2.3465723902    -2.9655426547     0.8707121371
   28      H      -2.0812443792    -2.9792374699    -0.8500654023
   29      H      -3.7315726211    -2.7792723414    -0.2248822773
   30      H      -2.3465478888    -2.9653605261     0.8714376491
 ----------------------------------------------------------------

    9    -767.6000949280      2.14e-06  Convergence criterion met
 Total energy in the final basis set =     -767.6000949280
    5    -767.6120837795      2.93e-06  Convergence criterion met
 Total energy in the final basis set =     -767.6120837795

                    Orbital Energies (a.u.)
 --------------------------------------------------------------

 Alpha MOs
 -- Occupied --
-19.1283 -19.1232 -10.2802 -10.2796 -10.2084 -10.2084 -10.2066 -10.2066
-10.2038 -10.2038 -10.1923 -10.1923 -10.1903 -10.1903 -10.1897 -10.1897
-10.1650 -10.1650  -1.0645  -1.0607  -0.8905  -0.8801  -0.8104  -0.7928
 -0.7902  -0.7653  -0.7131  -0.6979  -0.6773  -0.6486  -0.6403  -0.5911
 -0.5689  -0.5522  -0.5467  -0.4997  -0.4891  -0.4832  -0.4831  -0.4584
 -0.4573  -0.4457  -0.4392  -0.4277  -0.4253  -0.4239  -0.4228  -0.3986
 -0.3930  -0.3917  -0.3750  -0.3735  -0.3708  -0.3671  -0.3618  -0.3589
 -0.2860  -0.2831  -0.2723  -0.2662  -0.2657  -0.2640

          Ground-State Mulliken Net Atomic Charges

     Atom                 Charge (a.u.)
  ----------------------------------------
      1 C                     0.603592
      2 C                    -0.569444
      3 C                    -0.359834
      4 C                     0.334041
      5 C                     0.401912
      6 C                     0.079532
      7 C                    -0.981894
      8 C                     0.333536
      9 C                     0.401203
     10 C                    -0.744112
     11 C                     0.603112
     12 C                    -0.570163
     13 C                    -0.360805
     14 C                     0.081068
     15 O                    -0.238399
     16 O                    -0.294533
     17 C                    -0.489216
     18 H                     0.165340
     19 H                     0.238736
     20 H                     0.193481
     21 C                    -0.488998
     22 H                     0.193491
     23 H                     0.165393
     24 H                     0.238689
     25 H                     0.169892
     26 H                     0.172883
     27 H                     0.189328
     28 H                     0.172753
     29 H                     0.169776
     30 H                     0.189644
  ----------------------------------------
  Sum of atomic charges =     0.000000

                    Cartesian Multipole Moments
 -----------------------------------------------------------------
    Charge (ESU x 10^10)
                 0.0000
    Dipole Moment (Debye)
         X      -0.0002      Y      -1.6370      Z      -0.9041
       Tot       1.8701
    Quadrupole Moments (Debye-Ang)
        XX     -73.1745     XY       0.0034     YY    -115.7343
        XZ      -0.0033     YZ       0.5023     ZZ    -107.4624

 Total job time:  89.69s(wall), 509.52s(cpu)
        *  Thank you very much for using Q-Chem.  Have a nice day.  *
