 Gaussian 16, Revision A.03,
 Gaussian 16:  ES64L-G16RevA.03 25-Dec-2016

 ----------------------------------------------------------------------
 #P UB3LYP/6-311++G(d,p) nosym opt freq SCRF=(PCM,Solvent=n,n-DiMethylF
 ormamide)
 ----------------------------------------------------------------------

 --------
 Oxidized
 --------
 Symbolic Z-matrix:
 Charge =  0 Multiplicity = 1

 SCF Done:  E(UB3LYP) =  -706.193120272     A.U. after   15 cycles
 SCF Done:  E(UB3LYP) =  -706.193198607     A.U. after   11 cycles
 SCF Done:  E(UB3LYP) =  -706.193205755     A.U. after   10 cycles
 SCF Done:  E(UB3LYP) =  -706.193209377     A.U. after   10 cycles
 SCF Done:  E(UB3LYP) =  -706.193210000     A.U. after    9 cycles
 SCF Done:  E(UB3LYP) =  -706.193210272     A.U. after    9 cycles
 Optimization completed.
    -- Stationary point found.
 Normal termination of Gaussian 16 at Sat Feb 10 23:49:43 2024.

 ----------------------------------------------------------------------
 #P Geom=AllCheck Guess=TCheck SCRF=Check GenChk UB3LYP/6-311++G(d,p) F
 req
 ----------------------------------------------------------------------

 Structure from the checkpoint file:  "228.chk"
 --------
 Oxidized
 --------
 Charge =  0 Multiplicity = 1

                          Input orientation:
 ---------------------------------------------------------------------
 Center     Atomic      Atomic             Coordinates (Angstroms)
 Number     Number       Type             X           Y           Z
 ---------------------------------------------------------------------
      1          6           0        5.817618   -5.110642    1.253932
      2          6           0        6.814430   -5.042619    0.291112
      3          6           0        6.691828   -4.131668   -0.771069
      4          6           0        4.699318   -4.278388    1.168333
      5          6           0        4.578752   -3.370811    0.108459
      6          6           0        5.574040   -3.295773   -0.862820
      7          6           0        3.631669   -4.358689    2.209273
      8          6           0        2.450836   -3.457969    2.092649
      9          6           0        2.337093   -2.576006    1.065724
     10          6           0        3.386765   -2.478128    0.012687
     11          8           0        3.733559   -5.150960    3.136132
     12          8           0        3.281484   -1.685113   -0.913145
     13          6           0        7.718270   -4.056428   -1.766248
     14          7           0        8.547420   -3.995961   -2.568791
     15          1           0        5.896794   -5.806905    2.078454
     16          1           0        7.682818   -5.685702    0.354176
     17          1           0        5.472000   -2.591597   -1.677811
     18          6           0        1.400438   -3.569636    3.159997
     19          6           0        1.154311   -1.659880    0.936293
     20          1           0        1.654080   -4.350586    3.873315
     21          1           0        0.423993   -3.795494    2.721477
     22          1           0        1.296116   -2.623381    3.700215
     23          1           0        0.229285   -2.235200    0.829333
     24          1           0        1.260716   -1.009456    0.071062
     25          1           0        1.042871   -1.041133    1.831623
 ---------------------------------------------------------------------

 SCF Done:  E(UB3LYP) =  -706.193210272     A.U. after    1 cycles

 Alpha  occ. eigenvalues --  -19.14172 -19.14132 -14.33768 -10.29035 -10.29023
 Alpha  occ. eigenvalues --  -10.24647 -10.23729 -10.22378 -10.22209 -10.22135
 Alpha  occ. eigenvalues --  -10.22100 -10.21976 -10.21905 -10.21198 -10.17637
 Alpha  occ. eigenvalues --  -10.17634  -1.07443  -1.07251  -0.93973  -0.90842
 Alpha  occ. eigenvalues --   -0.86278  -0.81636  -0.79781  -0.75456  -0.72030
 Alpha  occ. eigenvalues --   -0.69847  -0.65793  -0.63609  -0.60149  -0.57654
 Alpha  occ. eigenvalues --   -0.55062  -0.51969  -0.50524  -0.47437  -0.47223
 Alpha  occ. eigenvalues --   -0.46987  -0.46777  -0.43866  -0.43678  -0.43132
 Alpha  occ. eigenvalues --   -0.42520  -0.41478  -0.41336  -0.40384  -0.40212
 Alpha  occ. eigenvalues --   -0.39557  -0.38522  -0.38100  -0.36830  -0.36295
 Alpha  occ. eigenvalues --   -0.29979  -0.29795  -0.29325  -0.28244  -0.28066
 Alpha virt. eigenvalues --   -0.13423  -0.08030  -0.05456  -0.01050  -0.00087
 Alpha virt. eigenvalues --    0.00553   0.01033   0.01402   0.02251   0.02389
 Alpha virt. eigenvalues --    0.02396   0.03140   0.03490   0.04574   0.04831

  Beta  occ. eigenvalues --  -19.14172 -19.14132 -14.33768 -10.29035 -10.29023
  Beta  occ. eigenvalues --  -10.24647 -10.23729 -10.22378 -10.22209 -10.22135
  Beta  occ. eigenvalues --  -10.22100 -10.21976 -10.21905 -10.21198 -10.17637
  Beta  occ. eigenvalues --  -10.17634  -1.07443  -1.07251  -0.93973  -0.90842
  Beta  occ. eigenvalues --   -0.86278  -0.81636  -0.79781  -0.75456  -0.72030
  Beta  occ. eigenvalues --   -0.69847  -0.65793  -0.63609  -0.60149  -0.57654
  Beta  occ. eigenvalues --   -0.55062  -0.51969  -0.50524  -0.47437  -0.47223
  Beta  occ. eigenvalues --   -0.46987  -0.46777  -0.43866  -0.43678  -0.43132
  Beta  occ. eigenvalues --   -0.42520  -0.41478  -0.41336  -0.40384  -0.40212
  Beta  occ. eigenvalues --   -0.39557  -0.38522  -0.38100  -0.36830  -0.36295
  Beta  occ. eigenvalues --   -0.29979  -0.29795  -0.29325  -0.28244  -0.28066
  Beta virt. eigenvalues --   -0.13423  -0.08030  -0.05456  -0.01050  -0.00087
  Beta virt. eigenvalues --    0.00553   0.01033   0.01402   0.02251   0.02389
  Beta virt. eigenvalues --    0.02396   0.03140   0.03490   0.04574   0.04831

 Mulliken charges and spin densities:
               1          2
     1  C    0.072644   0.000000
     2  C   -0.634824  -0.000000
     3  C    1.566824   0.000000
     4  C    0.208808   0.000000
     5  C   -0.064081  -0.000000
     6  C    0.211258  -0.000000
     7  C   -0.610409   0.000000
     8  C    0.373591  -0.000000
     9  C    0.878020   0.000000
    10  C   -0.745320  -0.000000
    11  O   -0.270112   0.000000
    12  O   -0.265069   0.000000
    13  C   -1.471668  -0.000000
    14  N   -0.240383   0.000000
    15  H    0.192885  -0.000000
    16  H    0.233546  -0.000000
    17  H    0.213845   0.000000
    18  C   -0.411546  -0.000000
    19  C   -0.352080   0.000000
    20  H    0.200208  -0.000000
    21  H    0.175661   0.000000
    22  H    0.181766   0.000000
    23  H    0.182676  -0.000000
    24  H    0.197197   0.000000
    25  H    0.176561  -0.000000
 Sum of Mulliken charges =  -0.00000   0.00000

 Dipole moment (field-independent basis, Debye):
    X=             -4.2960    Y=             -0.2388    Z=              4.0823  Tot=              5.9311
 Quadrupole moment (field-independent basis, Debye-Ang):
   XX=           -135.6542   YY=            -92.8720   ZZ=           -108.0755
   XY=              9.2428   XZ=             27.4751   YZ=             -6.6434

  Exact polarizability: 256.275 -46.744 189.679 -67.399 -59.589 247.192
 Approx polarizability: 276.094 -48.318 239.030 -64.384 -94.829 310.644

                      1                      2                      3
                      A                      A                      A
 Frequencies --     23.0386                41.3232                75.1389
 Red. masses --      1.0708                 5.8950                 7.6242
 Frc consts  --      0.0003                 0.0059                 0.0254
 IR Inten    --      0.1198                 4.7096                14.4543

                      4                      5                      6
                      A                      A                      A
 Frequencies --    104.3878               105.1348               119.6308
 Red. masses --      3.1338                 1.1026                 9.7582
 Frc consts  --      0.0201                 0.0072                 0.0823
 IR Inten    --      0.0814                 0.3677                 7.4771

                      7                      8                      9
                      A                      A                      A
 Frequencies --    133.9846               201.7525               258.8899
 Red. masses --      4.9451                 5.5529                 5.3549
 Frc consts  --      0.0523                 0.1332                 0.2115
 IR Inten    --      4.8962                 0.1680                 5.8083

                     10                     11                     12
                      A                      A                      A
 Frequencies --    290.4848               313.7761               337.9285
 Red. masses --      4.0610                 3.3242                 5.0576
 Frc consts  --      0.2019                 0.1928                 0.3403
 IR Inten    --      0.3123                 0.9082                 2.0337

                     13                     14                     15
                      A                      A                      A
 Frequencies --    349.1392               413.9122               415.8106
 Red. masses --      4.6519                 6.7880                 5.0938
 Frc consts  --      0.3341                 0.6852                 0.5189
 IR Inten    --      1.8315                 4.2965                 0.1650

                     16                     17                     18
                      A                      A                      A
 Frequencies --    423.9844               425.0698               492.3377
 Red. masses --      7.9281                 3.7840                 9.9923
 Frc consts  --      0.8397                 0.4028                 1.4271
 IR Inten    --     49.5531                 0.7775                 2.2276

                     19                     20                     21
                      A                      A                      A
 Frequencies --    496.5997               556.6337               575.8286
 Red. masses --      4.3899                 6.9462                 7.6520
 Frc consts  --      0.6378                 1.2681                 1.4949
 IR Inten    --      1.3876                 0.4601                 1.9045

                     22                     23                     24
                      A                      A                      A
 Frequencies --    603.4056               666.5070               689.5000
 Red. masses --      5.1842                 5.0305                 7.0268
 Frc consts  --      1.1121                 1.3167                 1.9682
 IR Inten    --     19.0722                 3.1070                 4.3515

                     25                     26                     27
                      A                      A                      A
 Frequencies --    697.1242               737.3612               739.0467
 Red. masses --      3.6577                 4.3955                 5.9362
 Frc consts  --      1.0473                 1.4081                 1.9103
 IR Inten    --     25.5967                 1.3955                28.9794

                     28                     29                     30
                      A                      A                      A
 Frequencies --    792.7890               867.2602               873.2024
 Red. masses --      5.1467                 4.0815                 1.4835
 Frc consts  --      1.9059                 1.8087                 0.6665
 IR Inten    --      0.2464                32.8234                27.8430

                     31                     32                     33
                      A                      A                      A
 Frequencies --    921.5582               947.3833               994.9767
 Red. masses --      3.2931                 1.4433                 3.3067
 Frc consts  --      1.6478                 0.7632                 1.9287
 IR Inten    --     45.9491                13.2704                21.1503

                     34                     35                     36
                      A                      A                      A
 Frequencies --   1007.8933              1020.3176              1033.1616
 Red. masses --      1.3512                 1.4740                 1.6842
 Frc consts  --      0.8087                 0.9041                 1.0592
 IR Inten    --      0.1177                 2.0367               130.3928

                     37                     38                     39
                      A                      A                      A
 Frequencies --   1054.3540              1111.0812              1134.4603
 Red. masses --      1.5627                 2.7947                 2.0870
 Frc consts  --      1.0235                 2.0327                 1.5825
 IR Inten    --      0.0203                 5.8598                 7.6193

                     40                     41                     42
                      A                      A                      A
 Frequencies --   1154.2831              1187.7089              1224.1111
 Red. masses --      1.7525                 3.4191                 2.4935
 Frc consts  --      1.3757                 2.8417                 2.2014
 IR Inten    --     40.9386                12.6595                36.4363

                     43                     44                     45
                      A                      A                      A
 Frequencies --   1280.1107              1306.7465              1319.2639
 Red. masses --      1.7597                 7.1459                 3.6178
 Frc consts  --      1.6990                 7.1894                 3.7098
 IR Inten    --     76.4085               554.8342               103.6412

                     46                     47                     48
                      A                      A                      A
 Frequencies --   1347.1468              1395.3477              1401.0191
 Red. masses --      7.5729                 1.2876                 1.1908
 Frc consts  --      8.0973                 1.4771                 1.3771
 IR Inten    --      8.3664                18.0218                32.3108

                     49                     50                     51
                      A                      A                      A
 Frequencies --   1436.6863              1470.1226              1474.4901
 Red. masses --      3.6879                 1.0765                 1.0478
 Frc consts  --      4.4849                 1.3708                 1.3421
 IR Inten    --      7.9072                 0.4524                 3.1616

                     52                     53                     54
                      A                      A                      A
 Frequencies --   1474.9827              1490.1965              1513.3486
 Red. masses --      1.1408                 1.0430                 2.8055
 Frc consts  --      1.4623                 1.3646                 3.7857
 IR Inten    --     74.0978                36.4403                 3.7750

                     55                     56                     57
                      A                      A                      A
 Frequencies --   1598.0123              1632.4197              1648.2209
 Red. masses --      7.9895                 6.4713                 9.0666
 Frc consts  --     12.0207                10.1603                14.5120
 IR Inten    --     25.2506               179.3824               105.5800

                     58                     59                     60
                      A                      A                      A
 Frequencies --   1690.8760              1694.4825              2328.8916
 Red. masses --     11.9980                12.2451                12.6824
 Frc consts  --     20.2107                20.7152                40.5274
 IR Inten    --    925.6838                42.4158               134.3820

                     61                     62                     63
                      A                      A                      A
 Frequencies --   3028.2221              3032.2211              3071.6342
 Red. masses --      1.0402                 1.0411                 1.0990
 Frc consts  --      5.6198                 5.6399                 6.1094
 IR Inten    --     29.9723                 0.5323                26.6514

                     64                     65                     66
                      A                      A                      A
 Frequencies --   3079.6543              3145.8227              3146.2817
 Red. masses --      1.0995                 1.0969                 1.0973
 Frc consts  --      6.1438                 6.3956                 6.4001
 IR Inten    --      0.2979                 5.1027                16.1205

                     67                     68                     69
                      A                      A                      A
 Frequencies --   3202.3480              3212.5674              3215.2715
 Red. masses --      1.0896                 1.0922                 1.0951
 Frc consts  --      6.5836                 6.6414                 6.6704
 IR Inten    --      0.3043                 2.2195                 2.9391

 - Thermochemistry -
 -------------------
 Temperature   298.150 Kelvin.  Pressure   1.00000 Atm.
 Atom     1 has atomic number  6 and mass  12.00000

 Molecular mass:   211.06333 amu.
 Principal axes and moments of inertia in atomic units:
                           1         2         3
     Eigenvalues --  1698.041104995.207966670.98681
           X            0.83625  -0.27307   0.47553
           Y           -0.16545   0.70113   0.69358
           Z           -0.52280  -0.65868   0.54113
 This molecule is an asymmetric top.
 Rotational symmetry number  1.
 Warning -- assumption of classical behavior for rotation
           may cause significant error
 Rotational temperatures (Kelvin)      0.05101     0.01734     0.01298
 Rotational constants (GHZ):           1.06284     0.36129     0.27054
 Zero-point vibrational energy     485974.9 (Joules/Mol)
                                  116.15079 (Kcal/Mol)
 Warning -- explicit consideration of  22 degrees of freedom as
           vibrations may cause significant error
 Vibrational temperatures:     33.15    59.45   108.11   150.19   151.27
          (Kelvin)            172.12   192.77   290.28   372.48   417.94
                              451.45   486.20   502.33   595.53   598.26
                              610.02   611.58   708.36   714.50   800.87
                              828.49   868.17   958.95   992.04  1003.01
                             1060.90  1063.32  1140.65  1247.79  1256.34
                             1325.92  1363.07  1431.55  1450.13  1468.01
                             1486.49  1516.98  1598.60  1632.24  1660.76
                             1708.85  1761.22  1841.79  1880.12  1898.13
                             1938.24  2007.59  2015.75  2067.07  2115.18
                             2121.46  2122.17  2144.06  2177.37  2299.18
                             2348.69  2371.42  2432.79  2437.98  3350.76
                             4356.94  4362.69  4419.40  4430.94  4526.14
                             4526.80  4607.46  4622.17  4626.06

 Zero-point correction=                           0.185098 (Hartree/Particle)
 Thermal correction to Energy=                    0.199243
 Thermal correction to Enthalpy=                  0.200187
 Thermal correction to Gibbs Free Energy=         0.142598
 Sum of electronic and zero-point Energies=           -706.008112
 Sum of electronic and thermal Energies=              -705.993967
 Sum of electronic and thermal Enthalpies=            -705.993023
 Sum of electronic and thermal Free Energies=         -706.050612

                     E (Thermal)             CV                S
                      KCal/Mol        Cal/Mol-Kelvin    Cal/Mol-Kelvin
 Total                  125.027             52.382            121.207
 Electronic               0.000              0.000              0.000
 Translational            0.889              2.981             41.945
 Rotational               0.889              2.981             32.403
 Vibrational            123.250             46.420             46.859
 Vibration     1          0.593              1.985              6.353
 Vibration     2          0.594              1.981              5.195
 Vibration     3          0.599              1.966              4.014
 Vibration     4          0.605              1.946              3.371
 Vibration     5          0.605              1.945              3.357
 Vibration     6          0.609              1.933              3.106
 Vibration     7          0.613              1.919              2.888
 Vibration     8          0.639              1.837              2.117
 Vibration     9          0.668              1.748              1.669
 Vibration    10          0.686              1.691              1.471
 Vibration    11          0.702              1.647              1.342
 Vibration    12          0.718              1.600              1.222
 Vibration    13          0.726              1.577              1.170
 Vibration    14          0.778              1.440              0.913
 Vibration    15          0.779              1.436              0.906
 Vibration    16          0.786              1.418              0.879
 Vibration    17          0.787              1.416              0.875
 Vibration    18          0.848              1.267              0.678
 Vibration    19          0.852              1.258              0.667
 Vibration    20          0.912              1.125              0.531
 Vibration    21          0.932              1.084              0.493
 Vibration    22          0.962              1.025              0.444

                           ! Non-Optimized Parameters !
 Normal termination of Gaussian 16 at Sun Feb 11 00:35:32 2024.
