 Q-Chem 5.4, Q-Chem, Inc., Pleasanton, CA (2021)
 Q-Chem 5.4.0 for Intel X86 EM64T Linux

User input:
--------------------------------------------------------------
$molecule
0 1
C                 -0.8479520000      3.8025440000     -0.1505790000
C                 -1.8832410000      3.1321130000      0.4925960000
C                 -1.6939820000      1.8225340000      0.9381190000
C                  0.3786580000      3.1622880000     -0.3486900000
C                  0.5710440000      1.8451710000      0.0986040000
C                 -0.4721790000      1.1816980000      0.7420280000
C                  1.4788740000      3.8764530000     -1.0323730000
C                  2.7773990000      3.1416540000     -1.2207640000
C                  2.9600240000      1.8538340000     -0.7791560000
C                  1.8837380000      1.1349830000     -0.1042040000
O                  1.3785350000      5.0218910000     -1.4435900000
O                  2.0226210000     -0.0189740000      0.2956140000
N                  3.7337190000      3.8464400000     -1.8522280000
H                 -0.9697710000      4.8186780000     -0.5053640000
H                 -2.8352440000      3.6268150000      0.6470920000
H                 -2.5012930000      1.3003370000      1.4393900000
H                 -0.3061340000      0.1663250000      1.0802160000
H                  3.5344710000      4.7912420000     -2.1413190000
H                  4.6306530000      3.4100760000     -1.9995270000
N                  4.2391950000      1.2542150000     -1.0121200000
C                  4.9938960000      0.9511980000      0.2116730000
C                  4.2100740000      0.1237620000     -1.9504390000
H                  5.0251600000      1.8382790000      0.8481380000
H                  6.0212400000      0.6951740000     -0.0632070000
H                  4.5628310000      0.1200730000      0.7838510000
H                  3.6839900000      0.4203120000     -2.8605480000
H                  3.7204560000     -0.7647880000     -1.5320880000
H                  5.2376510000     -0.1347660000     -2.2220450000
$end

$rem
BASIS  =  6-311++G(d,p)
GUI  =  2
JOB_TYPE  =  SP
METHOD  =  B3LYP
SCF_CONVERGENCE  = 8
SOLVENT_METHOD = sm12
$end

$smx
solvent dimethylformamide
charges CM5
$end

--------------------------------------------------------------

             Standard Nuclear Orientation (Angstroms)
    I     Atom           X                Y                Z
 ----------------------------------------------------------------
    1      C      -0.8479520000     3.8025440000    -0.1505790000
    2      C      -1.8832410000     3.1321130000     0.4925960000
    3      C      -1.6939820000     1.8225340000     0.9381190000
    4      C       0.3786580000     3.1622880000    -0.3486900000
    5      C       0.5710440000     1.8451710000     0.0986040000
    6      C      -0.4721790000     1.1816980000     0.7420280000
    7      C       1.4788740000     3.8764530000    -1.0323730000
    8      C       2.7773990000     3.1416540000    -1.2207640000
    9      C       2.9600240000     1.8538340000    -0.7791560000
   10      C       1.8837380000     1.1349830000    -0.1042040000
   11      O       1.3785350000     5.0218910000    -1.4435900000
   12      O       2.0226210000    -0.0189740000     0.2956140000
   13      N       3.7337190000     3.8464400000    -1.8522280000
   14      H      -0.9697710000     4.8186780000    -0.5053640000
   15      H      -2.8352440000     3.6268150000     0.6470920000
   16      H      -2.5012930000     1.3003370000     1.4393900000
   17      H      -0.3061340000     0.1663250000     1.0802160000
   18      H       3.5344710000     4.7912420000    -2.1413190000
   19      H       4.6306530000     3.4100760000    -1.9995270000
   20      N       4.2391950000     1.2542150000    -1.0121200000
   21      C       4.9938960000     0.9511980000     0.2116730000
   22      C       4.2100740000     0.1237620000    -1.9504390000
   23      H       5.0251600000     1.8382790000     0.8481380000
   24      H       6.0212400000     0.6951740000    -0.0632070000
   25      H       4.5628310000     0.1200730000     0.7838510000
   26      H       3.6839900000     0.4203120000    -2.8605480000
   27      H       3.7204560000    -0.7647880000    -1.5320880000
   28      H       5.2376510000    -0.1347660000    -2.2220450000
 ----------------------------------------------------------------

   15    -724.6500957683      8.35e-09  Convergence criterion met
 Total energy in the final basis set =     -724.6685784692

                    Orbital Energies (a.u.)
 --------------------------------------------------------------

 Alpha MOs
 -- Occupied --
-19.1399 -19.1094 -14.3430 -14.3181 -10.2880 -10.2636 -10.2458 -10.2072
-10.2055 -10.2043 -10.1971 -10.1962 -10.1938 -10.1924 -10.1867 -10.1866
 -1.0748  -1.0435  -0.9555  -0.9181  -0.8858  -0.8124  -0.7752  -0.7578
 -0.7074  -0.6959  -0.6606  -0.6391  -0.6074  -0.5908  -0.5708  -0.5382
 -0.5096  -0.5052  -0.4872  -0.4721  -0.4676  -0.4580  -0.4491  -0.4469
 -0.4440  -0.4423  -0.4206  -0.4138  -0.3912  -0.3847  -0.3778  -0.3775
 -0.3697  -0.3650  -0.3544  -0.2928  -0.2827  -0.2753  -0.2742  -0.2323
 -0.2267

          Ground-State Mulliken Net Atomic Charges

     Atom                 Charge (a.u.)
  ----------------------------------------
      1 C                     0.170665
      2 C                     0.367775
      3 C                     0.375794
      4 C                     0.780680
      5 C                    -0.865254
      6 C                    -0.158386
      7 C                    -0.775317
      8 C                     0.491482
      9 C                    -0.704028
     10 C                    -1.495460
     11 O                    -0.274958
     12 O                    -0.289701
     13 N                    -0.244973
     14 H                     0.194924
     15 H                     0.323730
     16 H                     0.313012
     17 H                     0.169668
     18 H                     0.371700
     19 H                     0.396236
     20 N                     0.181581
     21 C                    -0.136829
     22 C                    -0.139461
     23 H                     0.150223
     24 H                     0.191493
     25 H                     0.131590
     26 H                     0.150242
     27 H                     0.131525
     28 H                     0.192047
  ----------------------------------------
  Sum of atomic charges =     0.000000

                    Cartesian Multipole Moments
 -----------------------------------------------------------------
    Charge (ESU x 10^10)
                 0.0000
    Dipole Moment (Debye)
         X       0.0124      Y       1.6010      Z      -0.6184
       Tot       1.7163
    Quadrupole Moments (Debye-Ang)
        XX     -73.2998     XY       5.3111     YY     -95.3694
        XZ     -10.0703     YZ      -0.2075     ZZ     -92.1526

 Total job time:  568.91s(wall), 4443.31s(cpu)
        *  Thank you very much for using Q-Chem.  Have a nice day.  *
