 Gaussian 16, Revision A.03,
 Gaussian 16:  ES64L-G16RevA.03 25-Dec-2016

 --------------------------------------
 #P UB3LYP/6-311++G(d,p) nosym opt freq
 --------------------------------------

 -------
 Reduced
 -------
 Symbolic Z-matrix:
 Charge = -2 Multiplicity = 1

 SCF Done:  E(UB3LYP) =  -766.813312369     A.U. after   34 cycles
 SCF Done:  E(UB3LYP) =  -766.813312680     A.U. after   19 cycles
 SCF Done:  E(UB3LYP) =  -766.813312810     A.U. after   19 cycles
 SCF Done:  E(UB3LYP) =  -766.813312910     A.U. after   15 cycles
 SCF Done:  E(UB3LYP) =  -766.813313152     A.U. after   19 cycles
 SCF Done:  E(UB3LYP) =  -766.813314302     A.U. after   19 cycles
 SCF Done:  E(UB3LYP) =  -766.813316382     A.U. after   23 cycles
 SCF Done:  E(UB3LYP) =  -766.813322598     A.U. after   23 cycles
 SCF Done:  E(UB3LYP) =  -766.766975249     A.U. after   29 cycles
 SCF Done:  E(UB3LYP) =  -766.813527371     A.U. after   23 cycles
 SCF Done:  E(UB3LYP) =  -766.813847128     A.U. after   21 cycles
 SCF Done:  E(UB3LYP) =  -766.813856827     A.U. after   21 cycles
 SCF Done:  E(UB3LYP) =  -766.813861950     A.U. after   20 cycles
 SCF Done:  E(UB3LYP) =  -766.813867052     A.U. after   22 cycles
 SCF Done:  E(UB3LYP) =  -766.813867548     A.U. after   17 cycles
 SCF Done:  E(UB3LYP) =  -766.813867739     A.U. after   18 cycles
 SCF Done:  E(UB3LYP) =  -766.813868009     A.U. after   17 cycles
 SCF Done:  E(UB3LYP) =  -766.813868096     A.U. after   18 cycles
 SCF Done:  E(UB3LYP) =  -766.813868150     A.U. after   15 cycles
 Optimization completed.
    -- Stationary point found.
 Normal termination of Gaussian 16 at Thu Jan 18 12:33:39 2024.

 ----------------------------------------------------------------------
 #P Geom=AllCheck Guess=TCheck SCRF=Check GenChk UB3LYP/6-311++G(d,p) F
 req
 ----------------------------------------------------------------------

 Structure from the checkpoint file:  "051-an.chk"
 -------
 Reduced
 -------
 Charge = -2 Multiplicity = 1

                          Input orientation:
 ---------------------------------------------------------------------
 Center     Atomic      Atomic             Coordinates (Angstroms)
 Number     Number       Type             X           Y           Z
 ---------------------------------------------------------------------
      1          6           0        3.380864    6.014827    0.566769
      2          6           0        2.198003    5.356892    1.059632
      3          6           0        2.206668    4.004407    1.440276
      4          6           0        3.390516    3.191858    1.354103
      5          6           0        4.571086    3.845744    0.856408
      6          6           0        4.566165    5.193936    0.486514
      7          8           0        3.387482    7.264396    0.208291
      8          8           0        3.380548    1.938599    1.712321
      9          6           0        5.821864    5.854671   -0.033835
     10          6           0        5.831554    3.016877    0.763851
     11          6           0        0.943343    6.199659    1.131770
     12          6           0        0.978220    3.316882    1.995991
     13          6           0        0.517929    2.136808    1.114710
     14          6           0       -0.705950    1.406734    1.593721
     15          8           0       -1.217376    1.463825    2.686831
     16          8           0       -1.299258    0.582180    0.653574
     17          1           0        6.651392    5.809216    0.689437
     18          1           0        5.594530    6.902110   -0.245913
     19          1           0        6.193740    5.381101   -0.957171
     20          1           0        5.597731    1.997974    1.081864
     21          1           0        6.638551    3.407105    1.405313
     22          1           0        6.239983    2.985795   -0.258066
     23          1           0        1.185544    7.191863    0.743635
     24          1           0        0.561594    6.313742    2.157960
     25          1           0        0.116110    5.781739    0.535661
     26          1           0        0.150900    4.017672    2.128765
     27          1           0        1.211474    2.892876    2.980260
     28          1           0        1.375759    1.443423    1.091176
     29          1           0        0.351640    2.471226    0.081230
     30          1           0       -0.820246    0.658592   -0.186160
 ---------------------------------------------------------------------

 SCF Done:  E(UB3LYP) =  -766.813868150     A.U. after    1 cycles

 Alpha  occ. eigenvalues --  -18.96093 -18.90378 -18.77914 -18.77266 -10.09317
 Alpha  occ. eigenvalues --   -9.95357  -9.93050  -9.92942  -9.92868  -9.91959
 Alpha  occ. eigenvalues --   -9.91838  -9.91377  -9.89518  -9.89461  -9.89413
 Alpha  occ. eigenvalues --   -9.89287  -0.89180  -0.81345  -0.69064  -0.68371
 Alpha  occ. eigenvalues --   -0.56796  -0.55060  -0.51874  -0.47353  -0.45953
 Alpha  occ. eigenvalues --   -0.43841  -0.40124  -0.37397  -0.36689  -0.29637
 Alpha  occ. eigenvalues --   -0.28278  -0.27437  -0.26074  -0.24625  -0.23308
 Alpha  occ. eigenvalues --   -0.20271  -0.19103  -0.18638  -0.17619  -0.16786
 Alpha  occ. eigenvalues --   -0.15575  -0.15317  -0.14806  -0.13952  -0.13929
 Alpha  occ. eigenvalues --   -0.12185  -0.11956  -0.11782  -0.11151  -0.10737
 Alpha  occ. eigenvalues --   -0.08918  -0.07525  -0.07101  -0.06616  -0.05859
 Alpha  occ. eigenvalues --    0.02444   0.03893   0.04234   0.05218   0.12969
 Alpha virt. eigenvalues --    0.14834   0.16828   0.18048   0.18712   0.19858
 Alpha virt. eigenvalues --    0.20193   0.20565   0.21165   0.21442   0.21705
 Alpha virt. eigenvalues --    0.22319   0.22470   0.22877   0.23526   0.24440

  Beta  occ. eigenvalues --  -18.96093 -18.90378 -18.77914 -18.77266 -10.09317
  Beta  occ. eigenvalues --   -9.95357  -9.93050  -9.92942  -9.92868  -9.91959
  Beta  occ. eigenvalues --   -9.91838  -9.91377  -9.89518  -9.89461  -9.89413
  Beta  occ. eigenvalues --   -9.89287  -0.89180  -0.81345  -0.69064  -0.68371
  Beta  occ. eigenvalues --   -0.56796  -0.55060  -0.51874  -0.47353  -0.45953
  Beta  occ. eigenvalues --   -0.43841  -0.40124  -0.37397  -0.36689  -0.29637
  Beta  occ. eigenvalues --   -0.28278  -0.27437  -0.26074  -0.24625  -0.23308
  Beta  occ. eigenvalues --   -0.20271  -0.19103  -0.18638  -0.17619  -0.16786
  Beta  occ. eigenvalues --   -0.15575  -0.15317  -0.14806  -0.13952  -0.13929
  Beta  occ. eigenvalues --   -0.12185  -0.11956  -0.11782  -0.11151  -0.10737
  Beta  occ. eigenvalues --   -0.08918  -0.07525  -0.07101  -0.06616  -0.05859
  Beta  occ. eigenvalues --    0.02444   0.03893   0.04234   0.05218   0.12969
  Beta virt. eigenvalues --    0.14834   0.16828   0.18048   0.18712   0.19858
  Beta virt. eigenvalues --    0.20193   0.20565   0.21165   0.21442   0.21705
  Beta virt. eigenvalues --    0.22319   0.22470   0.22877   0.23526   0.24440

 Mulliken charges and spin densities:
               1          2
     1  C   -1.675930  -0.000000
     2  C    0.993540  -0.000000
     3  C    1.180382  -0.000000
     4  C   -1.357584  -0.000000
     5  C    0.826722   0.000000
     6  C    0.798422  -0.000000
     7  O   -0.539294  -0.000000
     8  O   -0.527662  -0.000000
     9  C   -0.588504  -0.000000
    10  C   -0.663314  -0.000000
    11  C   -0.647318  -0.000000
    12  C   -0.162769  -0.000000
    13  C   -0.638560   0.000000
    14  C    0.287327  -0.000000
    15  O   -0.312269  -0.000000
    16  O   -0.209241   0.000000
    17  H    0.081085  -0.000000
    18  H    0.189248   0.000000
    19  H    0.073296  -0.000000
    20  H    0.179840   0.000000
    21  H    0.070705   0.000000
    22  H    0.086234  -0.000000
    23  H    0.186332  -0.000000
    24  H    0.110391  -0.000000
    25  H    0.032842   0.000000
    26  H    0.171312  -0.000000
    27  H    0.129498   0.000000
    28  H    0.307123  -0.000000
    29  H   -0.079646   0.000000
    30  H   -0.302208   0.000000
 Sum of Mulliken charges =  -2.00000  -0.00000

 Dipole moment (field-independent basis, Debye):
    X=            -22.1063    Y=            -37.1903    Z=             -9.9425  Tot=             44.3921
 Quadrupole moment (field-independent basis, Debye-Ang):
   XX=           -223.6584   YY=           -327.7091   ZZ=           -132.9705
   XY=           -121.0533   XZ=            -14.9202   YZ=            -23.5744

  Exact polarizability: 748.814 421.282 685.066 213.495 200.243 334.433
 Approx polarizability:2087.8061549.3241823.158 825.903 752.434 723.317

                      1                      2                      3
                      A                      A                      A
 Frequencies --     35.8796                45.3320                53.9546
 Red. masses --      5.7706                 5.8787                 5.5125
 Frc consts  --      0.0044                 0.0071                 0.0095
 IR Inten    --      4.3205                 0.3703                10.5276

                      4                      5                      6
                      A                      A                      A
 Frequencies --     68.4938                96.4960               113.4326
 Red. masses --      1.1063                 3.7007                 1.6872
 Frc consts  --      0.0031                 0.0203                 0.0128
 IR Inten    --      0.7330                 9.0894                 5.4559

                      7                      8                      9
                      A                      A                      A
 Frequencies --    123.6288               125.5881               136.3971
 Red. masses --      1.5054                 1.6505                 1.4263
 Frc consts  --      0.0136                 0.0153                 0.0156
 IR Inten    --     18.5986                 9.9525                13.7836

                     10                     11                     12
                      A                      A                      A
 Frequencies --    161.4785               184.8102               215.9724
 Red. masses --      3.0538                 6.7606                 4.2089
 Frc consts  --      0.0469                 0.1360                 0.1157
 IR Inten    --     23.7841                 3.6189                 5.1016

                     13                     14                     15
                      A                      A                      A
 Frequencies --    289.2149               307.9714               314.0670
 Red. masses --      2.7665                 2.5184                 3.2116
 Frc consts  --      0.1363                 0.1407                 0.1866
 IR Inten    --     10.9031                 1.7846                13.1450

                     16                     17                     18
                      A                      A                      A
 Frequencies --    331.3366               356.8509               380.3065
 Red. masses --      3.3417                 4.2324                 6.1363
 Frc consts  --      0.2161                 0.3176                 0.5229
 IR Inten    --     11.1864                 1.2593                 3.5805

                     19                     20                     21
                      A                      A                      A
 Frequencies --    403.0561               446.0529               456.6126
 Red. masses --      8.7928                 5.7488                 4.4529
 Frc consts  --      0.8416                 0.6739                 0.5470
 IR Inten    --      9.1671               321.3370               196.6277

                     22                     23                     24
                      A                      A                      A
 Frequencies --    471.8545               488.8847               552.0866
 Red. masses --      5.0151                 1.2293                 3.6995
 Frc consts  --      0.6579                 0.1731                 0.6644
 IR Inten    --    146.8989                17.3244                35.5480

                     25                     26                     27
                      A                      A                      A
 Frequencies --    565.0184               586.7876               610.0278
 Red. masses --      4.8947                 2.3396                 5.5953
 Frc consts  --      0.9207                 0.4746                 1.2268
 IR Inten    --     53.2786                16.8894                37.7109

                     28                     29                     30
                      A                      A                      A
 Frequencies --    664.3067               678.3065               718.8608
 Red. masses --      3.1942                 4.6590                 6.3217
 Frc consts  --      0.8305                 1.2630                 1.9248
 IR Inten    --      4.7643                 4.2588                 1.8940

                     31                     32                     33
                      A                      A                      A
 Frequencies --    762.1196               777.9459               859.3604
 Red. masses --      2.0525                 3.4015                 2.6109
 Frc consts  --      0.7024                 1.2129                 1.1360
 IR Inten    --     18.1367                20.7702                64.2163

                     34                     35                     36
                      A                      A                      A
 Frequencies --    871.3813               903.3078               985.2460
 Red. masses --      3.6962                 3.5710                 1.5321
 Frc consts  --      1.6536                 1.7167                 0.8762
 IR Inten    --     12.3764               152.1113                 9.0602

                     37                     38                     39
                      A                      A                      A
 Frequencies --    999.5393              1015.9062              1023.0387
 Red. masses --      1.9741                 4.1063                 1.4485
 Frc consts  --      1.1620                 2.4969                 0.8932
 IR Inten    --      5.8938                26.1524                 0.0027

                     40                     41                     42
                      A                      A                      A
 Frequencies --   1026.8879              1038.2259              1048.3964
 Red. masses --      2.9968                 1.4947                 1.4979
 Frc consts  --      1.8619                 0.9493                 0.9700
 IR Inten    --      4.2608                 0.7575                 2.1512

                     43                     44                     45
                      A                      A                      A
 Frequencies --   1079.3481              1094.7819              1097.0902
 Red. masses --      2.4541                 2.5025                 2.6942
 Frc consts  --      1.6845                 1.7672                 1.9106
 IR Inten    --      5.9484                15.3444                35.7297

                     46                     47                     48
                      A                      A                      A
 Frequencies --   1147.3988              1163.5429              1212.0617
 Red. masses --      2.4855                 2.0026                 4.0606
 Frc consts  --      1.9279                 1.5974                 3.5147
 IR Inten    --    547.5127               241.8708               307.0725

                     49                     50                     51
                      A                      A                      A
 Frequencies --   1231.9006              1258.7457              1298.3648
 Red. masses --      1.5214                 1.4737                 2.7665
 Frc consts  --      1.3604                 1.3757                 2.7478
 IR Inten    --   1848.8134               109.2450                71.8693

                     52                     53                     54
                      A                      A                      A
 Frequencies --   1314.7328              1339.9141              1348.5357
 Red. masses --      1.4153                 1.9367                 1.6176
 Frc consts  --      1.4414                 2.0486                 1.7332
 IR Inten    --     27.0406               688.5342                39.1827

                     55                     56                     57
                      A                      A                      A
 Frequencies --   1354.6102              1359.8268              1387.0199
 Red. masses --      1.4149                 1.3497                 2.0890
 Frc consts  --      1.5297                 1.4705                 2.3678
 IR Inten    --     18.2449                27.8590               884.5159

                     58                     59                     60
                      A                      A                      A
 Frequencies --   1428.5284              1444.8345              1451.4038
 Red. masses --      4.3747                 1.7202                 1.0965
 Frc consts  --      5.2598                 2.1157                 1.3609
 IR Inten    --    609.8205                15.6001                19.6081

                     61                     62                     63
                      A                      A                      A
 Frequencies --   1455.5003              1468.2087              1476.7762
 Red. masses --      3.1041                 1.1122                 1.2052
 Frc consts  --      3.8745                 1.4125                 1.5486
 IR Inten    --     52.4797                 7.3907                27.9078

                     64                     65                     66
                      A                      A                      A
 Frequencies --   1478.0772              1485.7115              1498.2460
 Red. masses --      1.1266                 1.0560                 1.4016
 Frc consts  --      1.4502                 1.3733                 1.8537
 IR Inten    --     74.0902                 3.6574                 1.7864

                     67                     68                     69
                      A                      A                      A
 Frequencies --   1500.8866              1502.0079              1570.8241
 Red. masses --      1.0521                 1.4333                 7.6358
 Frc consts  --      1.3964                 1.9052                11.1009
 IR Inten    --      1.9367                 8.4596              2347.9436

                     70                     71                     72
                      A                      A                      A
 Frequencies --   1787.0458              2931.5153              2933.9415
 Red. masses --      9.5518                 1.0464                 1.0600
 Frc consts  --     17.9725                 5.2984                 5.3758
 IR Inten    --    378.4850                91.9963               895.0839

                     73                     74                     75
                      A                      A                      A
 Frequencies --   2935.7043              2937.9422              2946.0050
 Red. masses --      1.0508                 1.0673                 1.0745
 Frc consts  --      5.3358                 5.4279                 5.4946
 IR Inten    --    449.1832               162.7857               352.3309

                     76                     77                     78
                      A                      A                      A
 Frequencies --   2955.1308              2955.7836              2995.9163
 Red. masses --      1.0922                 1.0928                 1.0868
 Frc consts  --      5.6196                 5.6250                 5.7473
 IR Inten    --     20.3733               243.3558                19.8855

                     79                     80                     81
                      A                      A                      A
 Frequencies --   3009.2913              3073.1653              3075.4148
 Red. masses --      1.0709                 1.0933                 1.0915
 Frc consts  --      5.7140                 6.0836                 6.0824
 IR Inten    --     92.3477                42.7475                 0.8164

                     82                     83                     84
                      A                      A                      A
 Frequencies --   3076.5010              3077.0060              3680.7101
 Red. masses --      1.0913                 1.0910                 1.0661
 Frc consts  --      6.0856                 6.0861                 8.5097
 IR Inten    --     13.9181                24.9262              1588.9672

 - Thermochemistry -
 -------------------
 Temperature   298.150 Kelvin.  Pressure   1.00000 Atm.
 Atom     1 has atomic number  6 and mass  12.00000

 Molecular mass:   222.08921 amu.
 Principal axes and moments of inertia in atomic units:
                           1         2         3
     Eigenvalues --  1946.068386276.439897710.56712
           X            0.77866  -0.61665   0.11590
           Y            0.60359   0.78661   0.13009
           Z           -0.17139  -0.03134   0.98470
 This molecule is an asymmetric top.
 Rotational symmetry number  1.
 Warning -- assumption of classical behavior for rotation
           may cause significant error
 Rotational temperatures (Kelvin)      0.04451     0.01380     0.01123
 Rotational constants (GHZ):           0.92738     0.28754     0.23406
 Zero-point vibrational energy     610779.6 (Joules/Mol)
                                  145.97983 (Kcal/Mol)
 Warning -- explicit consideration of  27 degrees of freedom as
           vibrations may cause significant error
 Vibrational temperatures:     51.62    65.22    77.63    98.55   138.84
          (Kelvin)            163.20   177.87   180.69   196.24   232.33
                              265.90   310.74   416.12   443.10   451.87
                              476.72   513.43   547.18   579.91   641.77
                              656.96   678.89   703.40   794.33   812.94
                              844.26   877.69   955.79   975.93  1034.28
                             1096.52  1119.29  1236.43  1253.72  1299.66
                             1417.55  1438.11  1461.66  1471.92  1477.46
                             1493.78  1508.41  1552.94  1575.15  1578.47
                             1650.85  1674.08  1743.89  1772.43  1811.05
                             1868.06  1891.61  1927.84  1940.24  1948.98
                             1956.49  1995.61  2055.33  2078.79  2088.25
                             2094.14  2112.42  2124.75  2126.62  2137.61
                             2155.64  2159.44  2161.05  2260.07  2571.16
                             4217.80  4221.29  4223.82  4227.04  4238.64
                             4251.77  4252.71  4310.46  4329.70  4421.60
                             4424.84  4426.40  4427.13  5295.72

 Zero-point correction=                           0.232634 (Hartree/Particle)
 Thermal correction to Energy=                    0.249591
 Thermal correction to Enthalpy=                  0.250536
 Thermal correction to Gibbs Free Energy=         0.187078
 Sum of electronic and zero-point Energies=           -766.581234
 Sum of electronic and thermal Energies=              -766.564277
 Sum of electronic and thermal Enthalpies=            -766.563332
 Sum of electronic and thermal Free Energies=         -766.626790

                     E (Thermal)             CV                S
                      KCal/Mol        Cal/Mol-Kelvin    Cal/Mol-Kelvin
 Total                  156.621             61.710            133.557
 Electronic               0.000              0.000              0.000
 Translational            0.889              2.981             42.096
 Rotational               0.889              2.981             32.910
 Vibrational            154.844             55.749             58.551
 Vibration     1          0.594              1.982              5.475
 Vibration     2          0.595              1.979              5.011
 Vibration     3          0.596              1.976              4.667
 Vibration     4          0.598              1.969              4.196
 Vibration     5          0.603              1.952              3.524
 Vibration     6          0.607              1.938              3.209
 Vibration     7          0.610              1.929              3.043
 Vibration     8          0.611              1.927              3.013
 Vibration     9          0.614              1.917              2.854
 Vibration    10          0.622              1.890              2.532
 Vibration    11          0.631              1.861              2.279
 Vibration    12          0.645              1.817              1.993
 Vibration    13          0.686              1.694              1.479
 Vibration    14          0.698              1.659              1.373
 Vibration    15          0.702              1.647              1.341
 Vibration    16          0.714              1.613              1.254
 Vibration    17          0.732              1.561              1.136
 Vibration    18          0.750              1.512              1.038
 Vibration    19          0.768              1.464              0.951
 Vibration    20          0.805              1.370              0.808
 Vibration    21          0.815              1.346              0.776
 Vibration    22          0.829              1.312              0.732
 Vibration    23          0.845              1.275              0.687
 Vibration    24          0.907              1.135              0.540
 Vibration    25          0.921              1.107              0.514
 Vibration    26          0.944              1.060              0.473
 Vibration    27          0.969              1.011              0.433

                           ! Non-Optimized Parameters !
 Normal termination of Gaussian 16 at Thu Jan 18 13:01:56 2024.
