 Gaussian 16, Revision A.03,
 Gaussian 16:  ES64L-G16RevA.03 25-Dec-2016

 ----------------------------------------------------------------
 #P UB3LYP/6-311++G(d,p) SCRF=(PCM,Solvent=n,n-DiMethylFormamide)
 ----------------------------------------------------------------

 -------
 Reduced
 -------
 Symbolic Z-matrix:
 Charge = -2 Multiplicity = 1

                         Standard orientation:
 ---------------------------------------------------------------------
 Center     Atomic      Atomic             Coordinates (Angstroms)
 Number     Number       Type             X           Y           Z
 ---------------------------------------------------------------------
      1          6           0       -2.224540    1.191297    0.107449
      2          6           0       -0.818518    1.363075   -0.154367
      3          6           0        0.034753    0.267259   -0.367196
      4          6           0       -0.438101   -1.090711   -0.328691
      5          6           0       -1.840752   -1.264239   -0.061347
      6          6           0       -2.692632   -0.174356    0.140953
      7          8           0       -3.025601    2.195116    0.308996
      8          8           0        0.367735   -2.095465   -0.529128
      9          6           0       -4.162566   -0.386941    0.420621
     10          6           0       -2.365679   -2.681073   -0.023933
     11          6           0       -0.309829    2.788024   -0.174051
     12          6           0        1.504907    0.441234   -0.681797
     13          6           0        2.413086   -0.205508    0.384990
     14          6           0        3.891613   -0.066486    0.150532
     15          8           0        4.448235    0.260110   -0.870846
     16          8           0        4.685876   -0.347720    1.248637
     17          1           0       -4.668807   -0.938048   -0.387653
     18          1           0       -4.634878    0.592115    0.530881
     19          1           0       -4.335047   -0.966904    1.342034
     20          1           0       -1.527501   -3.363164   -0.185730
     21          1           0       -3.124244   -2.868302   -0.801441
     22          1           0       -2.844055   -2.926765    0.936737
     23          1           0       -1.150849    3.445397    0.059027
     24          1           0        0.099363    3.083987   -1.152203
     25          1           0        0.488732    2.964174    0.564588
     26          1           0        1.769500    1.494842   -0.796227
     27          1           0        1.737144   -0.061076   -1.628753
     28          1           0        2.138582   -1.274082    0.387185
     29          1           0        2.172223    0.186149    1.383068
     30          1           0        4.119437   -0.554102    2.008241
 ---------------------------------------------------------------------

 SCF Done:  E(UB3LYP) =  -767.077147529     A.U. after   17 cycles

 The electronic state is 1-A.
 Alpha  occ. eigenvalues --  -19.16512 -19.11522 -19.00277 -18.99941 -10.30485
 Alpha  occ. eigenvalues --  -10.16589 -10.15018 -10.14989 -10.14618 -10.12948
 Alpha  occ. eigenvalues --  -10.12888 -10.12846 -10.11464 -10.11385 -10.11324
 Alpha  occ. eigenvalues --  -10.11269  -1.09901  -1.02210  -0.91686  -0.91256
 Alpha  occ. eigenvalues --   -0.78612  -0.76784  -0.73582  -0.68768  -0.67631
 Alpha  occ. eigenvalues --   -0.65295  -0.60832  -0.59200  -0.58287  -0.51076
 Alpha  occ. eigenvalues --   -0.49823  -0.49393  -0.47374  -0.45740  -0.44958
 Alpha  occ. eigenvalues --   -0.41450  -0.40412  -0.39933  -0.39315  -0.38349
 Alpha  occ. eigenvalues --   -0.37360  -0.36615  -0.36503  -0.35399  -0.35370
 Alpha  occ. eigenvalues --   -0.33866  -0.33599  -0.33493  -0.32830  -0.32654
 Alpha  occ. eigenvalues --   -0.31265  -0.29380  -0.29076  -0.28873  -0.28211
 Alpha  occ. eigenvalues --   -0.20602  -0.18621  -0.18244  -0.17605  -0.10189
 Alpha virt. eigenvalues --   -0.00541  -0.00161   0.00437   0.01156   0.01979
 Alpha virt. eigenvalues --    0.02834   0.03416   0.03631   0.03813   0.04065
 Alpha virt. eigenvalues --    0.04872   0.05355   0.05740   0.05995   0.06783

  Beta  occ. eigenvalues --  -19.16512 -19.11522 -19.00277 -18.99941 -10.30485
  Beta  occ. eigenvalues --  -10.16589 -10.15018 -10.14989 -10.14618 -10.12948
  Beta  occ. eigenvalues --  -10.12888 -10.12846 -10.11464 -10.11385 -10.11324
  Beta  occ. eigenvalues --  -10.11269  -1.09901  -1.02210  -0.91686  -0.91256
  Beta  occ. eigenvalues --   -0.78612  -0.76784  -0.73582  -0.68768  -0.67631
  Beta  occ. eigenvalues --   -0.65295  -0.60832  -0.59200  -0.58287  -0.51076
  Beta  occ. eigenvalues --   -0.49823  -0.49393  -0.47374  -0.45740  -0.44958
  Beta  occ. eigenvalues --   -0.41450  -0.40412  -0.39933  -0.39315  -0.38349
  Beta  occ. eigenvalues --   -0.37360  -0.36615  -0.36503  -0.35399  -0.35370
  Beta  occ. eigenvalues --   -0.33866  -0.33599  -0.33493  -0.32830  -0.32654
  Beta  occ. eigenvalues --   -0.31265  -0.29380  -0.29076  -0.28873  -0.28211
  Beta  occ. eigenvalues --   -0.20602  -0.18621  -0.18244  -0.17605  -0.10189
  Beta virt. eigenvalues --   -0.00541  -0.00161   0.00437   0.01156   0.01979
  Beta virt. eigenvalues --    0.02834   0.03416   0.03631   0.03813   0.04065
  Beta virt. eigenvalues --    0.04872   0.05355   0.05740   0.05995   0.06783

 Mulliken charges and spin densities:
               1          2
     1  C   -1.365392  -0.000000
     2  C    0.654904   0.000000
     3  C    0.878969   0.000000
     4  C   -1.201577   0.000000
     5  C    0.648462  -0.000000
     6  C    0.521725  -0.000000
     7  O   -0.722501   0.000000
     8  O   -0.699776   0.000000
     9  C   -0.470473   0.000000
    10  C   -0.585884   0.000000
    11  C   -0.645905  -0.000000
    12  C   -0.290844  -0.000000
    13  C   -0.331265   0.000000
    14  C   -0.094695  -0.000000
    15  O   -0.361073   0.000000
    16  O   -0.226511   0.000000
    17  H    0.121439   0.000000
    18  H    0.170890   0.000000
    19  H    0.122804   0.000000
    20  H    0.167222  -0.000000
    21  H    0.121163   0.000000
    22  H    0.122160   0.000000
    23  H    0.168537   0.000000
    24  H    0.142616  -0.000000
    25  H    0.124067  -0.000000
    26  H    0.160030   0.000000
    27  H    0.164426   0.000000
    28  H    0.261214  -0.000000
    29  H    0.152550   0.000000
    30  H    0.292719  -0.000000
 Sum of Mulliken charges =  -2.00000  -0.00000

 Dipole moment (field-independent basis, Debye):
    X=              7.0843    Y=             -1.8940    Z=              4.3668  Tot=              8.5348
 Quadrupole moment (field-independent basis, Debye-Ang):
   XX=           -188.0104   YY=           -144.2378   ZZ=           -104.7717
   XY=             22.6548   XZ=             17.1935   YZ=             -7.1205

 Normal termination of Gaussian 16 at Sun Jan 21 07:49:42 2024.
