 Q-Chem 5.4, Q-Chem, Inc., Pleasanton, CA (2021)
 Q-Chem 5.4.0 for Intel X86 EM64T Linux

User input:
--------------------------------------------------------------
$molecule
-2 1
C                 -1.8778740000     -0.1869820000      1.3907530000
C                 -2.7347800000      0.6700110000      0.5882790000
C                 -2.1974910000      1.4804280000     -0.4106020000
C                 -0.8111870000      1.5913070000     -0.7234170000
C                  0.0457070000      0.7342320000      0.0789830000
C                 -0.4915800000     -0.0761620000      1.0778840000
O                 -0.2975840000      2.3464060000     -1.6288490000
O                 -2.3914800000     -0.9420350000      2.2962210000
Br                 0.6996360000     -1.1149740000      2.2371920000
Br                -3.3886900000      2.5191620000     -1.5699960000
N                  1.4314210000      0.8622440000     -0.2205660000
N                 -4.1204940000      0.5418890000      0.8877870000
C                 -4.7974590000      1.6875300000      1.5175770000
C                 -6.2966190000      1.3804300000      1.6416140000
C                 -7.0752650000      2.5385480000      2.2835500000
C                 -6.4829100000      2.9439620000      3.6414760000
C                 -4.9822860000      3.2516410000      3.5244680000
C                 -4.2168580000      2.0797240000      2.8931270000
C                  2.1082240000     -0.2834780000     -0.8503800000
C                  3.6075420000      0.0230930000     -0.9738220000
C                  1.5279460000     -0.6751420000     -2.2262150000
C                  2.2931580000     -1.8471900000     -2.8575820000
C                  4.3859750000     -1.1351610000     -1.6157770000
C                  3.7939340000     -1.5400260000     -2.9740040000
H                  1.4482360000      1.6473700000     -0.8798390000
H                 -4.1372620000     -0.2432610000      1.5470380000
H                 -4.6864430000      2.5432830000      0.8442520000
H                 -6.4220020000      0.4731090000      2.2504260000
H                 -6.6915890000      1.1485260000      0.6470030000
H                 -8.1352280000      2.2724290000      2.3979150000
H                 -7.0452900000      3.4059950000      1.6098070000
H                 -6.6227070000      2.1181130000      4.3533670000
H                 -7.0261890000      3.8058040000      4.0533390000
H                 -4.5698140000      3.4929360000      4.5134450000
H                 -4.8487180000      4.1499600000      2.9055560000
H                 -4.2561480000      1.2051480000      3.5552670000
H                 -3.1573840000      2.3228900000      2.7728090000
H                  1.9966640000     -1.1393360000     -0.1772840000
H                  4.0022400000      0.2546000000      0.0209870000
H                  3.7334730000      0.9305200000     -1.5823610000
H                  1.5677950000      0.1995700000     -2.8881430000
H                  0.4683390000     -0.9179280000     -2.1063210000
H                  1.8809360000     -2.0880920000     -3.8467600000
H                  2.1590510000     -2.7456110000     -2.2389350000
H                  4.3554430000     -2.0027590000     -0.9422550000
H                  5.4460780000     -0.8694130000     -1.7297150000
H                  4.3370380000     -2.4019640000     -3.3858950000
H                  3.9342730000     -0.7140540000     -3.6856470000
$end
$rem
MAX_SCF_CYCLES=200
BASIS  =  6-311++G(d,p)
GUI  =  2
JOB_TYPE  =  SP
METHOD  =  B3LYP
THRESH = 14
SCF_CONVERGENCE = 8
scf_guess = core
SOLVENT_METHOD = PCM
$end
$pcm
theory = CPCM
$end
$solvent
dielectric 37.219
opticaldielectric 1.43
$end

--------------------------------------------------------------

             Standard Nuclear Orientation (Angstroms)
    I     Atom           X                Y                Z
 ----------------------------------------------------------------
    1      C      -1.8778740000    -0.1869820000     1.3907530000
    2      C      -2.7347800000     0.6700110000     0.5882790000
    3      C      -2.1974910000     1.4804280000    -0.4106020000
    4      C      -0.8111870000     1.5913070000    -0.7234170000
    5      C       0.0457070000     0.7342320000     0.0789830000
    6      C      -0.4915800000    -0.0761620000     1.0778840000
    7      O      -0.2975840000     2.3464060000    -1.6288490000
    8      O      -2.3914800000    -0.9420350000     2.2962210000
    9      Br      0.6996360000    -1.1149740000     2.2371920000
   10      Br     -3.3886900000     2.5191620000    -1.5699960000
   11      N       1.4314210000     0.8622440000    -0.2205660000
   12      N      -4.1204940000     0.5418890000     0.8877870000
   13      C      -4.7974590000     1.6875300000     1.5175770000
   14      C      -6.2966190000     1.3804300000     1.6416140000
   15      C      -7.0752650000     2.5385480000     2.2835500000
   16      C      -6.4829100000     2.9439620000     3.6414760000
   17      C      -4.9822860000     3.2516410000     3.5244680000
   18      C      -4.2168580000     2.0797240000     2.8931270000
   19      C       2.1082240000    -0.2834780000    -0.8503800000
   20      C       3.6075420000     0.0230930000    -0.9738220000
   21      C       1.5279460000    -0.6751420000    -2.2262150000
   22      C       2.2931580000    -1.8471900000    -2.8575820000
   23      C       4.3859750000    -1.1351610000    -1.6157770000
   24      C       3.7939340000    -1.5400260000    -2.9740040000
   25      H       1.4482360000     1.6473700000    -0.8798390000
   26      H      -4.1372620000    -0.2432610000     1.5470380000
   27      H      -4.6864430000     2.5432830000     0.8442520000
   28      H      -6.4220020000     0.4731090000     2.2504260000
   29      H      -6.6915890000     1.1485260000     0.6470030000
   30      H      -8.1352280000     2.2724290000     2.3979150000
   31      H      -7.0452900000     3.4059950000     1.6098070000
   32      H      -6.6227070000     2.1181130000     4.3533670000
   33      H      -7.0261890000     3.8058040000     4.0533390000
   34      H      -4.5698140000     3.4929360000     4.5134450000
   35      H      -4.8487180000     4.1499600000     2.9055560000
   36      H      -4.2561480000     1.2051480000     3.5552670000
   37      H      -3.1573840000     2.3228900000     2.7728090000
   38      H       1.9966640000    -1.1393360000    -0.1772840000
   39      H       4.0022400000     0.2546000000     0.0209870000
   40      H       3.7334730000     0.9305200000    -1.5823610000
   41      H       1.5677950000     0.1995700000    -2.8881430000
   42      H       0.4683390000    -0.9179280000    -2.1063210000
   43      H       1.8809360000    -2.0880920000    -3.8467600000
   44      H       2.1590510000    -2.7456110000    -2.2389350000
   45      H       4.3554430000    -2.0027590000    -0.9422550000
   46      H       5.4460780000    -0.8694130000    -1.7297150000
   47      H       4.3370380000    -2.4019640000    -3.3858950000
   48      H       3.9342730000    -0.7140540000    -3.6856470000
 ----------------------------------------------------------------

   25   -6109.1405507360      3.15e-09  Convergence criterion met
 Total energy in the final basis set =    -6109.1405507360

                    Orbital Energies (a.u.)
 --------------------------------------------------------------

 Alpha MOs
 -- Occupied --
********-482.8045 -62.4574 -62.4574 -56.2776 -56.2776 -56.2743 -56.2743
-56.2740 -56.2740 -19.0297 -19.0297 -14.2829 -14.2829 -10.1854 -10.1854
-10.1815 -10.1815 -10.1786 -10.1786 -10.1682 -10.1682 -10.1534 -10.1534
-10.1526 -10.1526 -10.1524 -10.1524 -10.1496 -10.1496 -10.1457 -10.1457
 -8.6661  -8.6661  -6.4965  -6.4965  -6.4855  -6.4855  -6.4848  -6.4848
 -2.6077  -2.6077  -2.6045  -2.6045  -2.6039  -2.6039  -2.5953  -2.5953
 -2.5953  -2.5953  -0.9579  -0.9528  -0.8933  -0.8919  -0.8160  -0.8101
 -0.7956  -0.7789  -0.7452  -0.7296  -0.7287  -0.7221  -0.7083  -0.6599
 -0.6433  -0.6022  -0.5984  -0.5947  -0.5850  -0.5541  -0.5476  -0.5399
 -0.5260  -0.4882  -0.4695  -0.4610  -0.4554  -0.4526  -0.4348  -0.4297
 -0.4271  -0.4269  -0.4100  -0.4064  -0.3936  -0.3892  -0.3847  -0.3803
 -0.3733  -0.3697  -0.3670  -0.3662  -0.3635  -0.3588  -0.3394  -0.3384
 -0.3324  -0.3323  -0.3315  -0.3259  -0.3112  -0.3101  -0.3064  -0.3037
 -0.3033  -0.2951  -0.2908  -0.2837  -0.2677  -0.2669  -0.2509  -0.2488
 -0.2183  -0.2133  -0.2112  -0.1841  -0.1218

          Ground-State Mulliken Net Atomic Charges

     Atom                 Charge (a.u.)
  ----------------------------------------
      1 C                    -0.528617
      2 C                    -0.431205
      3 C                     0.815046
      4 C                    -0.528764
      5 C                    -0.431346
      6 C                     0.814706
      7 O                    -0.631947
      8 O                    -0.631953
      9 Br                   -0.166097
     10 Br                   -0.166088
     11 N                     0.207016
     12 N                     0.206975
     13 C                    -0.585336
     14 C                    -0.176321
     15 C                    -0.331924
     16 C                    -0.437285
     17 C                    -0.497981
     18 C                    -0.111111
     19 C                    -0.585412
     20 C                    -0.176266
     21 C                    -0.111207
     22 C                    -0.497906
     23 C                    -0.331787
     24 C                    -0.437343
     25 H                     0.260223
     26 H                     0.260210
     27 H                     0.071737
     28 H                     0.133176
     29 H                     0.163174
     30 H                     0.179098
     31 H                     0.135526
     32 H                     0.125333
     33 H                     0.172277
     34 H                     0.170057
     35 H                     0.142482
     36 H                     0.158225
     37 H                     0.164797
     38 H                     0.071704
     39 H                     0.163170
     40 H                     0.133168
     41 H                     0.158235
     42 H                     0.164786
     43 H                     0.170056
     44 H                     0.142487
     45 H                     0.135520
     46 H                     0.179099
     47 H                     0.172278
     48 H                     0.125335
  ----------------------------------------
  Sum of atomic charges =    -2.000000

                    Cartesian Multipole Moments
 -----------------------------------------------------------------
    Charge (ESU x 10^10)
                -9.6064
    Dipole Moment (Debye)
         X      12.9160      Y      -6.7453      Z      -3.2054
       Tot      14.9196
    Quadrupole Moments (Debye-Ang)
        XX    -221.5745     XY       2.1107     YY    -210.8236
        XZ       1.2739     YZ      26.8377     ZZ    -215.5761

 Total job time:  789.55s(wall), 5694.97s(cpu)
        *  Thank you very much for using Q-Chem.  Have a nice day.  *
