 Q-Chem 5.4, Q-Chem, Inc., Pleasanton, CA (2021)
 Q-Chem 5.4.0 for Intel X86 EM64T Linux

User input:
--------------------------------------------------------------
$molecule
-1 2
C                 -1.8391490000      1.7251060000     -0.7986380000
C                 -2.5618970000      0.8793390000     -1.6136100000
C                 -2.0700200000     -0.4118320000     -1.9022100000
C                 -0.6113920000      1.3200700000     -0.2461340000
C                 -0.1183300000      0.0248630000     -0.5360420000
C                 -0.8672670000     -0.8247750000     -1.3688370000
C                  0.1333670000      2.2452750000      0.6185300000
C                  1.3933240000      1.7604800000      1.1509370000
C                  1.8714330000      0.4852010000      0.8725930000
C                  1.1585640000     -0.4420610000      0.0171680000
O                 -0.3175420000      3.3954040000      0.8706960000
O                  1.5998870000     -1.5939070000     -0.2463200000
C                  2.1534090000      2.7186080000      2.0386840000
C                  3.1845480000     -0.0174280000      1.4284960000
C                  4.3637070000      0.1565170000      0.4509470000
C                  5.6835490000     -0.4017660000      0.9940800000
C                  6.8628970000     -0.2438650000      0.0273910000
C                  8.1830670000     -0.8093640000      0.5639560000
C                  9.3615560000     -0.6523970000     -0.4039110000
C                 10.6807950000     -1.2211230000      0.1312600000
C                 11.8586990000     -1.0647990000     -0.8370280000
C                 13.1780160000     -1.6342150000     -0.3030080000
C                 14.3483890000     -1.4735560000     -1.2780980000
Cl                -2.9719250000     -1.5182380000     -2.9417290000
Cl                -4.0979110000      1.4382450000     -2.2818210000
H                 -2.2006560000      2.7186540000     -0.5658420000
H                 -0.4730970000     -1.8109210000     -1.5792940000
H                  1.6642020000      3.6923660000      2.0131590000
H                  3.1949200000      2.8348340000      1.7213360000
H                  2.1710100000      2.3767370000      3.0814360000
H                  3.0762970000     -1.0861050000      1.6374860000
H                  3.4206810000      0.4850490000      2.3718890000
H                  4.4871450000      1.2204150000      0.2117490000
H                  4.1084030000     -0.3502720000     -0.4850040000
H                  5.5507830000     -1.4656010000      1.2305350000
H                  5.9273500000      0.0936950000      1.9443000000
H                  6.9959600000      0.8199480000     -0.2104260000
H                  6.6172740000     -0.7376400000     -0.9216070000
H                  8.0496730000     -1.8732150000      0.8005970000
H                  8.4283240000     -0.3164620000      1.5142600000
H                  9.4961110000      0.4114630000     -0.6398680000
H                  9.1155400000     -1.1438850000     -1.3542570000
H                 10.5459940000     -2.2849930000      0.3669130000
H                 10.9271200000     -0.7296590000      1.0818140000
H                 11.9949360000     -0.0010490000     -1.0729910000
H                 11.6132280000     -1.5560040000     -1.7878820000
H                 13.0426370000     -2.6971270000     -0.0678750000
H                 13.4243940000     -1.1430950000      0.6465230000
H                 14.1461650000     -1.9839050000     -2.2253600000
H                 15.2734540000     -1.8894760000     -0.8677800000
H                 14.5308960000     -0.4183050000     -1.5058230000
$end

$rem
BASIS  =  6-311++G(d,p)
GUI  =  2
JOB_TYPE  =  SP
METHOD  =  B3LYP
SCF_CONVERGENCE  = 8
SOLVENT_METHOD = sm12
$end

$smx
solvent dimethylformamide
charges CM5
$end

--------------------------------------------------------------

             Standard Nuclear Orientation (Angstroms)
    I     Atom           X                Y                Z
 ----------------------------------------------------------------
    1      C      -1.8391490000     1.7251060000    -0.7986380000
    2      C      -2.5618970000     0.8793390000    -1.6136100000
    3      C      -2.0700200000    -0.4118320000    -1.9022100000
    4      C      -0.6113920000     1.3200700000    -0.2461340000
    5      C      -0.1183300000     0.0248630000    -0.5360420000
    6      C      -0.8672670000    -0.8247750000    -1.3688370000
    7      C       0.1333670000     2.2452750000     0.6185300000
    8      C       1.3933240000     1.7604800000     1.1509370000
    9      C       1.8714330000     0.4852010000     0.8725930000
   10      C       1.1585640000    -0.4420610000     0.0171680000
   11      O      -0.3175420000     3.3954040000     0.8706960000
   12      O       1.5998870000    -1.5939070000    -0.2463200000
   13      C       2.1534090000     2.7186080000     2.0386840000
   14      C       3.1845480000    -0.0174280000     1.4284960000
   15      C       4.3637070000     0.1565170000     0.4509470000
   16      C       5.6835490000    -0.4017660000     0.9940800000
   17      C       6.8628970000    -0.2438650000     0.0273910000
   18      C       8.1830670000    -0.8093640000     0.5639560000
   19      C       9.3615560000    -0.6523970000    -0.4039110000
   20      C      10.6807950000    -1.2211230000     0.1312600000
   21      C      11.8586990000    -1.0647990000    -0.8370280000
   22      C      13.1780160000    -1.6342150000    -0.3030080000
   23      C      14.3483890000    -1.4735560000    -1.2780980000
   24      Cl     -2.9719250000    -1.5182380000    -2.9417290000
   25      Cl     -4.0979110000     1.4382450000    -2.2818210000
   26      H      -2.2006560000     2.7186540000    -0.5658420000
   27      H      -0.4730970000    -1.8109210000    -1.5792940000
   28      H       1.6642020000     3.6923660000     2.0131590000
   29      H       3.1949200000     2.8348340000     1.7213360000
   30      H       2.1710100000     2.3767370000     3.0814360000
   31      H       3.0762970000    -1.0861050000     1.6374860000
   32      H       3.4206810000     0.4850490000     2.3718890000
   33      H       4.4871450000     1.2204150000     0.2117490000
   34      H       4.1084030000    -0.3502720000    -0.4850040000
   35      H       5.5507830000    -1.4656010000     1.2305350000
   36      H       5.9273500000     0.0936950000     1.9443000000
   37      H       6.9959600000     0.8199480000    -0.2104260000
   38      H       6.6172740000    -0.7376400000    -0.9216070000
   39      H       8.0496730000    -1.8732150000     0.8005970000
   40      H       8.4283240000    -0.3164620000     1.5142600000
   41      H       9.4961110000     0.4114630000    -0.6398680000
   42      H       9.1155400000    -1.1438850000    -1.3542570000
   43      H      10.5459940000    -2.2849930000     0.3669130000
   44      H      10.9271200000    -0.7296590000     1.0818140000
   45      H      11.9949360000    -0.0010490000    -1.0729910000
   46      H      11.6132280000    -1.5560040000    -1.7878820000
   47      H      13.0426370000    -2.6971270000    -0.0678750000
   48      H      13.4243940000    -1.1430950000     0.6465230000
   49      H      14.1461650000    -1.9839050000    -2.2253600000
   50      H      15.2734540000    -1.8894760000    -0.8677800000
   51      H      14.5308960000    -0.4183050000    -1.5058230000
 ----------------------------------------------------------------

   16   -1887.1536105237      6.34e-09  Convergence criterion met
 Total energy in the final basis set =    -1887.2359551605

                    Orbital Energies (a.u.)
 --------------------------------------------------------------

 Alpha MOs
 -- Occupied --
********-101.5622 -19.0759 -19.0751 -10.2490 -10.2486 -10.2230 -10.2218
-10.1908 -10.1907 -10.1849 -10.1843 -10.1752 -10.1716 -10.1649 -10.1646
-10.1639 -10.1631 -10.1629 -10.1626 -10.1626 -10.1624 -10.1622 -10.1622
-10.1574  -9.4761  -9.4761  -7.2409  -7.2407  -7.2310  -7.2310  -7.2306
 -7.2305  -1.0015  -0.9988  -0.9169  -0.8615  -0.8497  -0.8234  -0.8132
 -0.7970  -0.7735  -0.7595  -0.7515  -0.7409  -0.7123  -0.6860  -0.6642
 -0.6504  -0.6248  -0.6096  -0.5879  -0.5809  -0.5763  -0.5746  -0.5592
 -0.5229  -0.4953  -0.4905  -0.4871  -0.4747  -0.4641  -0.4480  -0.4462
 -0.4411  -0.4348  -0.4328  -0.4249  -0.4215  -0.4186  -0.4163  -0.4107
 -0.4000  -0.3987  -0.3915  -0.3893  -0.3875  -0.3814  -0.3754  -0.3684
 -0.3634  -0.3585  -0.3529  -0.3503  -0.3429  -0.3390  -0.3378  -0.3330
 -0.3299  -0.3284  -0.3254  -0.3242  -0.3229  -0.3219  -0.3129  -0.3030
 -0.2665  -0.2648  -0.2467  -0.2445  -0.2355  -0.1537

 Beta MOs
 -- Occupied --
********-101.5622 -19.0693 -19.0686 -10.2486 -10.2481 -10.2216 -10.2204
-10.1908 -10.1908 -10.1841 -10.1836 -10.1739 -10.1703 -10.1649 -10.1647
-10.1638 -10.1631 -10.1629 -10.1626 -10.1626 -10.1624 -10.1623 -10.1622
-10.1574  -9.4761  -9.4761  -7.2409  -7.2407  -7.2309  -7.2309  -7.2305
 -7.2305  -0.9903  -0.9873  -0.9161  -0.8611  -0.8468  -0.8217  -0.8126
 -0.7963  -0.7727  -0.7579  -0.7499  -0.7396  -0.7106  -0.6849  -0.6598
 -0.6476  -0.6243  -0.6087  -0.5860  -0.5804  -0.5756  -0.5745  -0.5565
 -0.5216  -0.4934  -0.4892  -0.4864  -0.4742  -0.4634  -0.4475  -0.4457
 -0.4378  -0.4316  -0.4304  -0.4233  -0.4199  -0.4174  -0.4145  -0.4086
 -0.3964  -0.3949  -0.3910  -0.3883  -0.3811  -0.3789  -0.3678  -0.3644
 -0.3591  -0.3540  -0.3512  -0.3456  -0.3410  -0.3381  -0.3368  -0.3328
 -0.3296  -0.3273  -0.3253  -0.3234  -0.3229  -0.3147  -0.3127  -0.3018
 -0.2586  -0.2454  -0.2406  -0.2349  -0.2295

          Ground-State Mulliken Net Atomic Charges

     Atom                 Charge (a.u.)    Spin (a.u.)
  --------------------------------------------------------
      1 C                    -0.595999       0.016711
      2 C                     1.658262       0.029210
      3 C                     1.510069       0.030056
      4 C                    -1.992071       0.025773
      5 C                    -1.367726       0.068410
      6 C                    -0.416709       0.028287
      7 C                    -1.945283       0.073608
      8 C                    -0.563924       0.056582
      9 C                     0.318780       0.096008
     10 C                    -2.085561       0.051949
     11 O                    -0.350962       0.244440
     12 O                    -0.284606       0.245663
     13 C                     0.521178       0.003646
     14 C                    -0.366387       0.018656
     15 C                    -2.579122       0.001134
     16 C                    -0.832018       0.005906
     17 C                     0.056910      -0.006496
     18 C                     1.056089      -0.000713
     19 C                     0.987039      -0.000137
     20 C                     0.820903       0.000210
     21 C                     0.298437       0.000020
     22 C                     0.032673       0.000018
     23 C                    -0.414715      -0.000011
     24 Cl                    0.893171       0.002347
     25 Cl                    0.860250       0.002403
     26 H                     0.219852      -0.001865
     27 H                     0.220179      -0.002113
     28 H                     0.185864      -0.001717
     29 H                     0.232472       0.004316
     30 H                     0.202881       0.005687
     31 H                     0.120987       0.003153
     32 H                     0.254056       0.000484
     33 H                     0.036123      -0.000972
     34 H                     0.101016      -0.000439
     35 H                     0.162331       0.000289
     36 H                     0.169349      -0.000510
     37 H                     0.149431       0.000171
     38 H                     0.111514      -0.000162
     39 H                     0.105404      -0.000003
     40 H                     0.111124       0.000004
     41 H                     0.110957      -0.000005
     42 H                     0.109967       0.000005
     43 H                     0.119938       0.000000
     44 H                     0.123772      -0.000001
     45 H                     0.106716       0.000000
     46 H                     0.104704      -0.000001
     47 H                     0.123662      -0.000000
     48 H                     0.125167      -0.000000
     49 H                     0.139360       0.000000
     50 H                     0.194332      -0.000002
     51 H                     0.140164       0.000000
  --------------------------------------------------------
  Sum of atomic charges =    -1.000000

                    Cartesian Multipole Moments
 -----------------------------------------------------------------
    Charge (ESU x 10^10)
                -4.8032
    Dipole Moment (Debye)
         X       0.7739      Y      -3.6023      Z       1.2521
       Tot       3.8914
    Quadrupole Moments (Debye-Ang)
        XX    -195.6548     XY       8.0909     YY    -202.8776
        XZ      -6.7662     YZ      -6.5573     ZZ    -182.2374

 Total job time:  2681.00s(wall), 19803.87s(cpu)
        *  Thank you very much for using Q-Chem.  Have a nice day.  *
