 Gaussian 16, Revision A.03,
 Gaussian 16:  ES64L-G16RevA.03 25-Dec-2016

 ----------------------------------------------------------------------
 #P UB3LYP/6-311++G(d,p) nosym opt freq SCRF=(PCM,Solvent=n,n-DiMethylF
 ormamide)
 ----------------------------------------------------------------------

 -------
 Radical
 -------
 Symbolic Z-matrix:
 Charge = -1 Multiplicity = 2

 SCF Done:  E(UB3LYP) =  -2019.87866022     A.U. after   24 cycles
 SCF Done:  E(UB3LYP) =  -2019.87783705     A.U. after   23 cycles
 SCF Done:  E(UB3LYP) =  -2019.87990921     A.U. after   20 cycles
 SCF Done:  E(UB3LYP) =  -2019.88049559     A.U. after   20 cycles
 SCF Done:  E(UB3LYP) =  -2019.88039693     A.U. after   23 cycles
 SCF Done:  E(UB3LYP) =  -2019.88040499     A.U. after   23 cycles
 SCF Done:  E(UB3LYP) =  -2019.88063374     A.U. after   23 cycles
 SCF Done:  E(UB3LYP) =  -2019.88071786     A.U. after   19 cycles
 SCF Done:  E(UB3LYP) =  -2019.88073675     A.U. after   19 cycles
 SCF Done:  E(UB3LYP) =  -2019.88074394     A.U. after   16 cycles
 SCF Done:  E(UB3LYP) =  -2019.88074501     A.U. after   14 cycles
 SCF Done:  E(UB3LYP) =  -2019.88074440     A.U. after   14 cycles
 SCF Done:  E(UB3LYP) =  -2019.88074978     A.U. after   17 cycles
 SCF Done:  E(UB3LYP) =  -2019.88074869     A.U. after   15 cycles
 SCF Done:  E(UB3LYP) =  -2019.88075293     A.U. after   17 cycles
 SCF Done:  E(UB3LYP) =  -2019.88075355     A.U. after   14 cycles
 SCF Done:  E(UB3LYP) =  -2019.88075375     A.U. after   12 cycles
 SCF Done:  E(UB3LYP) =  -2019.88075377     A.U. after   12 cycles
 Optimization completed.
    -- Stationary point found.
 Normal termination of Gaussian 16 at Sat Feb 10 16:08:35 2024.

 ----------------------------------------------------------------------
 #P Geom=AllCheck Guess=TCheck SCRF=Check GenChk UB3LYP/6-311++G(d,p) F
 req
 ----------------------------------------------------------------------

 Structure from the checkpoint file:  "073-rad.chk"
 -------
 Radical
 -------
 Charge = -1 Multiplicity = 2

                          Input orientation:
 ---------------------------------------------------------------------
 Center     Atomic      Atomic             Coordinates (Angstroms)
 Number     Number       Type             X           Y           Z
 ---------------------------------------------------------------------
      1          6           0        0.847045    1.233126   -1.402435
      2          6           0       -0.548842    1.138429   -1.849883
      3          6           0       -1.430221    0.428205   -1.063607
      4          6           0       -1.050717   -0.302885    0.132406
      5          6           0        0.335527   -0.175034    0.601400
      6          6           0        1.198510    0.599231   -0.143923
      7          8           0        1.704520    1.849655   -2.083301
      8          8           0       -1.880625   -1.015639    0.750665
      9         16           0        2.935014    0.837980    0.339563
     10          6           0        3.254202    2.614231    0.245661
     11          6           0        4.278833    3.077882   -0.572135
     12          6           0        2.530356    3.470675    1.072624
     13          6           0        2.833337    4.830880    1.061988
     14          6           0        4.583559    4.437947   -0.562273
     15          6           0        3.859631    5.312992    0.248257
     16          8           0        3.824406    0.145123   -0.614415
     17          8           0        3.086759    0.481747    1.766246
     18          1           0        4.817653    2.387197   -1.207275
     19          1           0        1.743038    3.090325    1.712442
     20          1           0        5.381222    4.813039   -1.192709
     21          1           0        2.272950    5.510133    1.693511
     22          1           0        4.095383    6.370916    0.246949
     23         16           0       -3.186797    0.260541   -1.502163
     24          6           0       -4.125459    0.651330   -0.008057
     25          6           0       -3.991172    1.917444    0.557694
     26          6           0       -5.035817   -0.278033    0.483294
     27          6           0       -5.830529    0.071302    1.573860
     28          6           0       -4.779939    2.249591    1.657412
     29          6           0       -5.699656    1.329390    2.162693
     30          1           0       -3.284272    2.633143    0.155155
     31          1           0       -5.111531   -1.255137    0.024493
     32          1           0       -6.545920   -0.642028    1.966039
     33          1           0       -4.680025    3.227614    2.113167
     34          1           0       -6.314838    1.593907    3.014960
     35          8           0       -3.481444   -1.131908   -1.896566
     36          8           0       -3.536783    1.313734   -2.478908
     37          6           0       -0.859144    1.828263   -3.152043
     38          6           0        0.666345   -0.934121    1.859322
     39          1           0        0.078298    2.129567   -3.614942
     40          1           0       -1.472699    2.717862   -2.991008
     41          1           0       -1.413553    1.183254   -3.832935
     42          1           0       -0.180714   -1.567688    2.113467
     43          1           0        0.861586   -0.254110    2.691464
     44          1           0        1.558650   -1.548608    1.740361
 ---------------------------------------------------------------------

 SCF Done:  E(UB3LYP) =  -2019.88075377     A.U. after    2 cycles

 Alpha  occ. eigenvalues --  -89.05524 -89.05520 -19.12010 -19.12005 -19.11705
 Alpha  occ. eigenvalues --  -19.11705 -19.09687 -19.09678 -10.24893 -10.24887
 Alpha  occ. eigenvalues --  -10.21728 -10.21717 -10.21228 -10.21225 -10.21033
 Alpha  occ. eigenvalues --  -10.21032 -10.19792 -10.19787 -10.19522 -10.19518
 Alpha  occ. eigenvalues --  -10.19114 -10.19112 -10.19059 -10.19059 -10.18995
 Alpha  occ. eigenvalues --  -10.18990 -10.16147 -10.16132  -8.11903  -8.11899
 Alpha  occ. eigenvalues --   -6.08176  -6.08173  -6.08075  -6.08071  -6.08005
 Alpha  occ. eigenvalues --   -6.08000  -1.11094  -1.11084  -1.02762  -1.02510
 Alpha  occ. eigenvalues --   -1.00435  -1.00419  -0.88040  -0.88038  -0.85945
 Alpha  occ. eigenvalues --   -0.81481  -0.78546  -0.78288  -0.76754  -0.76749
 Alpha  occ. eigenvalues --   -0.74075  -0.73483  -0.69824  -0.66622  -0.65679
 Alpha  occ. eigenvalues --   -0.63233  -0.62656  -0.62494  -0.59894  -0.57784
 Alpha  occ. eigenvalues --   -0.57238  -0.54866  -0.53822  -0.52411  -0.50774
 Alpha  occ. eigenvalues --   -0.49746  -0.48693  -0.48534  -0.47676  -0.47562
 Alpha  occ. eigenvalues --   -0.46098  -0.45945  -0.45445  -0.45300  -0.44722
 Alpha  occ. eigenvalues --   -0.44170  -0.44112  -0.43818  -0.43213  -0.42278
 Alpha  occ. eigenvalues --   -0.41202  -0.39977  -0.39950  -0.39762  -0.38857
 Alpha  occ. eigenvalues --   -0.38644  -0.38243  -0.38178  -0.37916  -0.37899
 Alpha  occ. eigenvalues --   -0.36563  -0.36559  -0.34396  -0.34078  -0.33148
 Alpha  occ. eigenvalues --   -0.33044  -0.31578  -0.31386  -0.30385  -0.29983
 Alpha  occ. eigenvalues --   -0.29885  -0.28217  -0.27623  -0.27620  -0.27369
 Alpha  occ. eigenvalues --   -0.27023  -0.26260  -0.24974  -0.18302
 Alpha virt. eigenvalues --   -0.06150  -0.04519  -0.03986  -0.02878  -0.02832
 Alpha virt. eigenvalues --   -0.00838  -0.00053   0.00266   0.00749   0.00810
 Alpha virt. eigenvalues --    0.01172   0.01752   0.02522   0.02744   0.03251

  Beta  occ. eigenvalues --  -89.05525 -89.05521 -19.12007 -19.12002 -19.11706
  Beta  occ. eigenvalues --  -19.11706 -19.08996 -19.08987 -10.24788 -10.24782
  Beta  occ. eigenvalues --  -10.21727 -10.21717 -10.21205 -10.21202 -10.20802
  Beta  occ. eigenvalues --  -10.20801 -10.19793 -10.19788 -10.19523 -10.19518
  Beta  occ. eigenvalues --  -10.19114 -10.19112 -10.19059 -10.19059 -10.18994
  Beta  occ. eigenvalues --  -10.18989 -10.16162 -10.16147  -8.11904  -8.11900
  Beta  occ. eigenvalues --   -6.08177  -6.08173  -6.08076  -6.08072  -6.08007
  Beta  occ. eigenvalues --   -6.08002  -1.11087  -1.11078  -1.01616  -1.01350
  Beta  occ. eigenvalues --   -1.00416  -1.00379  -0.88037  -0.88035  -0.85344
  Beta  occ. eigenvalues --   -0.81231  -0.78522  -0.78201  -0.76753  -0.76749
  Beta  occ. eigenvalues --   -0.73619  -0.73338  -0.69703  -0.66458  -0.65207
  Beta  occ. eigenvalues --   -0.63148  -0.62652  -0.62463  -0.59844  -0.57676
  Beta  occ. eigenvalues --   -0.56837  -0.54821  -0.53733  -0.52228  -0.50712
  Beta  occ. eigenvalues --   -0.49558  -0.48637  -0.48517  -0.47655  -0.47503
  Beta  occ. eigenvalues --   -0.46009  -0.45939  -0.45403  -0.45293  -0.44201
  Beta  occ. eigenvalues --   -0.44163  -0.43573  -0.43440  -0.42567  -0.41662
  Beta  occ. eigenvalues --   -0.40963  -0.39795  -0.39553  -0.39391  -0.38366
  Beta  occ. eigenvalues --   -0.38267  -0.38146  -0.37844  -0.37649  -0.36742
  Beta  occ. eigenvalues --   -0.36561  -0.36545  -0.34298  -0.33989  -0.33015
  Beta  occ. eigenvalues --   -0.32903  -0.31487  -0.31317  -0.30349  -0.29884
  Beta  occ. eigenvalues --   -0.27892  -0.27607  -0.27494  -0.27380  -0.26856
  Beta  occ. eigenvalues --   -0.26612  -0.25740  -0.24456
  Beta virt. eigenvalues --   -0.11154  -0.05262  -0.04512  -0.03494  -0.02870
  Beta virt. eigenvalues --   -0.02690  -0.00825  -0.00051   0.00763   0.00785
  Beta virt. eigenvalues --    0.01179   0.01765   0.02378   0.02664   0.02762

 Mulliken charges and spin densities:
               1          2
     1  C   -0.888009  -0.000815
     2  C    0.378819   0.175986
     3  C    0.205980   0.077594
     4  C   -0.893899  -0.000915
     5  C    0.390993   0.176094
     6  C    0.197984   0.077776
     7  O   -0.274894   0.260149
     8  O   -0.272311   0.260014
     9  S    0.414046  -0.028313
    10  C    0.183954  -0.003867
    11  C   -0.134490   0.016769
    12  C   -0.027815  -0.006966
    13  C   -0.414771   0.001584
    14  C   -0.357383  -0.002577
    15  C   -0.309673   0.001543
    16  O   -0.222667   0.004255
    17  O   -0.168120  -0.001608
    18  H    0.244087   0.000481
    19  H    0.240620   0.000021
    20  H    0.215695  -0.000080
    21  H    0.220963  -0.000003
    22  H    0.193952   0.000100
    23  S    0.416379  -0.028132
    24  C    0.172985  -0.002555
    25  C   -0.041544  -0.007321
    26  C   -0.127600   0.015823
    27  C   -0.350127  -0.002505
    28  C   -0.408003   0.001500
    29  C   -0.314915   0.001758
    30  H    0.239878  -0.000015
    31  H    0.243608   0.000455
    32  H    0.215651  -0.000081
    33  H    0.221270  -0.000010
    34  H    0.193904   0.000107
    35  O   -0.224533   0.004162
    36  O   -0.170794  -0.001649
    37  C   -0.567109  -0.007298
    38  C   -0.570617  -0.007156
    39  H    0.183121  -0.001530
    40  H    0.199903   0.008958
    41  H    0.191896   0.005510
    42  H    0.183668  -0.001785
    43  H    0.198719   0.008710
    44  H    0.191201   0.005833
 Sum of Mulliken charges =  -1.00000   1.00000

 Dipole moment (field-independent basis, Debye):
    X=             -1.4158    Y=              4.4703    Z=              7.3783  Tot=              8.7423
 Quadrupole moment (field-independent basis, Debye-Ang):
   XX=           -220.7469   YY=           -165.2807   ZZ=           -202.0614
   XY=              0.7819   XZ=            -28.5374   YZ=             11.3694

  Exact polarizability: 486.835  70.442 417.969 -58.294 -34.343 404.545
 Approx polarizability: 503.716  76.273 494.489 -89.799 -45.010 475.526

                      1                      2                      3
                      A                      A                      A
 Frequencies --     12.7489                22.0866                28.2077
 Red. masses --      5.7843                 5.6936                 3.9496
 Frc consts  --      0.0006                 0.0016                 0.0019
 IR Inten    --      1.0155                 0.7596                 0.6668

                      4                      5                      6
                      A                      A                      A
 Frequencies --     33.8875                35.7177                40.6837
 Red. masses --      4.3252                 5.3039                 4.8254
 Frc consts  --      0.0029                 0.0040                 0.0047
 IR Inten    --      0.3070                 1.4976                 4.0354

                      7                      8                      9
                      A                      A                      A
 Frequencies --     66.7937                88.7955                89.4149
 Red. masses --      4.0068                 5.6110                 5.8746
 Frc consts  --      0.0105                 0.0261                 0.0277
 IR Inten    --      2.4360                12.0100                 0.3912

                     10                     11                     12
                      A                      A                      A
 Frequencies --    144.7876               147.6112               151.7914
 Red. masses --      2.3519                 1.7131                 1.1351
 Frc consts  --      0.0290                 0.0220                 0.0154
 IR Inten    --      2.4984                 1.4568                 0.2542

                     13                     14                     15
                      A                      A                      A
 Frequencies --    161.8964               169.4724               181.7690
 Red. masses --      5.3876                 6.3266                 7.3156
 Frc consts  --      0.0832                 0.1071                 0.1424
 IR Inten    --      7.5545                 0.8314                 1.0531

                     16                     17                     18
                      A                      A                      A
 Frequencies --    186.8035               210.1389               217.2419
 Red. masses --      6.2743                 7.2100                 6.6597
 Frc consts  --      0.1290                 0.1876                 0.1852
 IR Inten    --      9.4384                14.6802                 2.0676

                     19                     20                     21
                      A                      A                      A
 Frequencies --    241.2700               242.3835               273.5900
 Red. masses --      6.9649                 7.3947                 8.7268
 Frc consts  --      0.2389                 0.2560                 0.3849
 IR Inten    --      1.6523                 0.9428                 0.0366

                     22                     23                     24
                      A                      A                      A
 Frequencies --    299.3369               304.7016               309.0158
 Red. masses --      8.5926                 8.0867                 8.1540
 Frc consts  --      0.4536                 0.4424                 0.4588
 IR Inten    --      1.5817                 4.8141                 9.0871

                     25                     26                     27
                      A                      A                      A
 Frequencies --    331.1685               372.7669               378.5849
 Red. masses --      5.9898                 6.1474                 4.2443
 Frc consts  --      0.3870                 0.5033                 0.3584
 IR Inten    --      3.0835                 4.2533                 3.1530

                     28                     29                     30
                      A                      A                      A
 Frequencies --    386.4749               397.5520               409.3442
 Red. masses --      4.3719                 4.3672                 2.8927
 Frc consts  --      0.3847                 0.4067                 0.2856
 IR Inten    --     11.3773                 0.5917                 2.3380

                     31                     32                     33
                      A                      A                      A
 Frequencies --    409.7582               416.4147               428.9228
 Red. masses --      2.8941                 9.0553                 6.1903
 Frc consts  --      0.2863                 0.9251                 0.6710
 IR Inten    --      1.9667                77.6668                 1.1350

                     34                     35                     36
                      A                      A                      A
 Frequencies --    454.7952               475.2275               484.5255
 Red. masses --      9.2471                 5.3296                 4.8105
 Frc consts  --      1.1269                 0.7092                 0.6654
 IR Inten    --     11.3578                 0.9255                40.2718

                     37                     38                     39
                      A                      A                      A
 Frequencies --    496.3133               517.0457               537.1615
 Red. masses --      9.7079                 7.7041                11.3352
 Frc consts  --      1.4089                 1.2135                 1.9270
 IR Inten    --     68.9430                 2.6919               100.6268

                     40                     41                     42
                      A                      A                      A
 Frequencies --    571.2785               581.7777               585.7895
 Red. masses --      6.4927                 9.4325                 7.9150
 Frc consts  --      1.2485                 1.8810                 1.6002
 IR Inten    --     13.2747               782.8840                99.0851

                     43                     44                     45
                      A                      A                      A
 Frequencies --    625.9304               626.0852               698.6307
 Red. masses --      6.4676                 6.4738                 4.8221
 Frc consts  --      1.4930                 1.4951                 1.3867
 IR Inten    --      1.2974                 1.4926                 0.5454

                     46                     47                     48
                      A                      A                      A
 Frequencies --    700.4981               701.2750               709.9307
 Red. masses --      2.2242                 2.2654                 6.1860
 Frc consts  --      0.6430                 0.6564                 1.8369
 IR Inten    --    132.7630                 9.5325                25.3165

                     49                     50                     51
                      A                      A                      A
 Frequencies --    711.7781               728.7268               747.3569
 Red. masses --      6.0396                 5.6416                 4.0505
 Frc consts  --      1.8028                 1.7652                 1.3330
 IR Inten    --     77.3752                72.7066                93.0873

                     52                     53                     54
                      A                      A                      A
 Frequencies --    755.4667               761.2312               764.9328
 Red. masses --      5.3311                 1.6579                 2.1136
 Frc consts  --      1.7927                 0.5660                 0.7287
 IR Inten    --     12.2473                 4.1805                38.1465

                     55                     56                     57
                      A                      A                      A
 Frequencies --    845.2532               852.5257               853.0221
 Red. masses --      9.3789                 1.2489                 1.2494
 Frc consts  --      3.9480                 0.5348                 0.5356
 IR Inten    --     19.6596                 0.1108                 0.0779

                     58                     59                     60
                      A                      A                      A
 Frequencies --    903.5374               938.6452               939.1936
 Red. masses --      2.5642                 1.3432                 1.3442
 Frc consts  --      1.2334                 0.6972                 0.6986
 IR Inten    --      1.2435                 1.5150                 0.7135

                     61                     62                     63
                      A                      A                      A
 Frequencies --    995.1371               995.6191              1010.9696
 Red. masses --      1.3907                 1.3890                 5.7367
 Frc consts  --      0.8115                 0.8112                 3.4545
 IR Inten    --      0.7283                 0.5982                40.7260

                     64                     65                     66
                      A                      A                      A
 Frequencies --   1011.8542              1015.9594              1016.0217
 Red. masses --      5.5797                 1.3283                 1.3350
 Frc consts  --      3.3659                 0.8078                 0.8120
 IR Inten    --     14.9003                 0.3280                 0.0346

                     67                     68                     69
                      A                      A                      A
 Frequencies --   1027.9252              1034.7521              1037.8036
 Red. masses --      5.4541                 4.1765                 1.4986
 Frc consts  --      3.3954                 2.6347                 0.9510
 IR Inten    --    183.0473                59.7722                 2.7878

                     70                     71                     72
                      A                      A                      A
 Frequencies --   1042.7792              1043.3451              1052.7859
 Red. masses --      2.6901                 1.5292                 3.7223
 Frc consts  --      1.7235                 0.9808                 2.4307
 IR Inten    --     34.8534                 1.6663               314.4105

                     73                     74                     75
                      A                      A                      A
 Frequencies --   1054.7869              1055.9951              1095.9962
 Red. masses --      3.4252                 1.7418                 1.7248
 Frc consts  --      2.2453                 1.1444                 1.2207
 IR Inten    --     72.0202                 1.2273                45.6146

                     76                     77                     78
                      A                      A                      A
 Frequencies --   1097.6326              1100.8446              1101.6984
 Red. masses --      1.7915                 3.4537                 3.0019
 Frc consts  --      1.2717                 2.4660                 2.1467
 IR Inten    --     34.9726                69.2348                73.8409

                     79                     80                     81
                      A                      A                      A
 Frequencies --   1104.0040              1155.7633              1179.0477
 Red. masses --      4.4466                 7.7383                 1.1151
 Frc consts  --      3.1932                 6.0903                 0.9133
 IR Inten    --    119.1793                38.2136                 0.0619

                     82                     83                     84
                      A                      A                      A
 Frequencies --   1179.5569              1191.5903              1193.7508
 Red. masses --      1.1148                 1.1835                 1.2131
 Frc consts  --      0.9139                 0.9901                 1.0186
 IR Inten    --      0.0713                10.6685                17.3284

                     85                     86                     87
                      A                      A                      A
 Frequencies --   1197.3626              1200.6745              1226.8717
 Red. masses --      8.8754                12.7624                 4.5201
 Frc consts  --      7.4970                10.8401                 4.0086
 IR Inten    --    168.9277               385.8343               371.2551

                     88                     89                     90
                      A                      A                      A
 Frequencies --   1327.3617              1327.5648              1341.3406
 Red. masses --      3.0371                 3.4140                 1.7973
 Frc consts  --      3.1527                 3.5451                 1.9052
 IR Inten    --      0.5727                 0.3288                 6.0494

                     91                     92                     93
                      A                      A                      A
 Frequencies --   1343.6407              1370.6222              1394.5999
 Red. masses --      1.6686                 4.5351                 1.2396
 Frc consts  --      1.7749                 5.0196                 1.4204
 IR Inten    --      6.3165                 0.7436                60.4339

                     94                     95                     96
                      A                      A                      A
 Frequencies --   1397.4168              1456.3176              1466.5017
 Red. masses --      1.2339                 1.2829                 1.2453
 Frc consts  --      1.4196                 1.6031                 1.5779
 IR Inten    --      1.0376               258.6017                 4.5862

                     97                     98                     99
                      A                      A                      A
 Frequencies --   1473.3075              1473.8264              1476.9072
 Red. masses --      2.0682                 2.0956                 1.4612
 Frc consts  --      2.6450                 2.6820                 1.8779
 IR Inten    --     37.4796                22.2825                34.1610

                    100                    101                    102
                      A                      A                      A
 Frequencies --   1482.2482              1490.5274              1505.5368
 Red. masses --      1.0656                 1.9996                 2.0452
 Frc consts  --      1.3794                 2.6175                 2.7313
 IR Inten    --     22.5777                69.2562                 7.0209

                    103                    104                    105
                      A                      A                      A
 Frequencies --   1506.4882              1515.2606              1517.8935
 Red. masses --      2.0340                 7.1648                 7.4549
 Frc consts  --      2.7198                 9.6924                10.1199
 IR Inten    --      6.9176                 4.8844              1045.0777

                    106                    107                    108
                      A                      A                      A
 Frequencies --   1597.1979              1618.1650              1618.4496
 Red. masses --      9.9539                 5.4226                 5.3979
 Frc consts  --     14.9610                 8.3658                 8.3305
 IR Inten    --      0.0666                 0.7540                 0.5675

                    109                    110                    111
                      A                      A                      A
 Frequencies --   1623.7794              1623.8216              3050.0826
 Red. masses --      5.8935                 5.9098                 1.0396
 Frc consts  --      9.1554                 9.1813                 5.6984
 IR Inten    --      0.8676                 0.2651                25.0795

                    112                    113                    114
                      A                      A                      A
 Frequencies --   3051.8059              3106.5428              3107.0251
 Red. masses --      1.0385                 1.0968                 1.0951
 Frc consts  --      5.6987                 6.2365                 6.2284
 IR Inten    --     21.2136                15.8843                21.5714

                    115                    116                    117
                      A                      A                      A
 Frequencies --   3143.4916              3144.6427              3172.7436
 Red. masses --      1.1023                 1.1015                 1.0864
 Frc consts  --      6.4176                 6.4178                 6.4433
 IR Inten    --     10.0522                 9.1529                 0.2996

                    118                    119                    120
                      A                      A                      A
 Frequencies --   3172.9368              3181.2678              3181.3381
 Red. masses --      1.0864                 1.0889                 1.0889
 Frc consts  --      6.4439                 6.4932                 6.4930
 IR Inten    --      0.3030                 8.5219                 8.6422

                    121                    122                    123
                      A                      A                      A
 Frequencies --   3188.7502              3188.8226              3196.7074
 Red. masses --      1.0930                 1.0930                 1.0970
 Frc consts  --      6.5478                 6.5483                 6.6050
 IR Inten    --     19.1334                12.3396                12.5518

                    124                    125                    126
                      A                      A                      A
 Frequencies --   3196.7808              3208.6309              3209.2239
 Red. masses --      1.0970                 1.0936                 1.0935
 Frc consts  --      6.6052                 6.6338                 6.6355
 IR Inten    --     17.6523                 7.6756                 7.1089

 - Thermochemistry -
 -------------------
 Temperature   298.150 Kelvin.  Pressure   1.00000 Atm.
 Atom     1 has atomic number  6 and mass  12.00000

 Molecular mass:   416.03883 amu.
 Principal axes and moments of inertia in atomic units:
                           1         2         3
     Eigenvalues --  5994.32435********************
           X            0.96221  -0.21332   0.16928
           Y            0.27219   0.73402  -0.62219
           Z            0.00847   0.64475   0.76435
 This molecule is an asymmetric top.
 Rotational symmetry number  1.
 Warning -- assumption of classical behavior for rotation
           may cause significant error
 Rotational temperatures (Kelvin)      0.01445     0.00433     0.00432
 Rotational constants (GHZ):           0.30108     0.09028     0.08997
 Zero-point vibrational energy     835167.9 (Joules/Mol)
                                  199.60991 (Kcal/Mol)
 Warning -- explicit consideration of  42 degrees of freedom as
           vibrations may cause significant error
 Vibrational temperatures:     18.34    31.78    40.58    48.76    51.39
          (Kelvin)             58.53    96.10   127.76   128.65   208.32
                              212.38   218.39   232.93   243.83   261.53
                              268.77   302.34   312.56   347.13   348.74
                              393.64   430.68   438.40   444.60   476.48
                              536.33   544.70   556.05   571.99   588.96
                              589.55   599.13   617.12   654.35   683.75
                              697.12   714.08   743.91   772.86   821.94
                              837.05   842.82   900.57   900.80  1005.17
                             1007.86  1008.98  1021.43  1024.09  1048.48
                             1075.28  1086.95  1095.24  1100.57  1216.13
                             1226.59  1227.31  1299.99  1350.50  1351.29
                             1431.78  1432.47  1454.56  1455.83  1461.74
                             1461.83  1478.96  1488.78  1493.17  1500.33
                             1501.14  1514.72  1517.60  1519.34  1576.89
                             1579.25  1583.87  1585.10  1588.42  1662.89
                             1696.39  1697.12  1714.43  1717.54  1722.74
                             1727.50  1765.19  1909.78  1910.07  1929.89
                             1933.20  1972.02  2006.52  2010.57  2095.32
                             2109.97  2119.76  2120.51  2124.94  2132.62
                             2144.54  2166.13  2167.50  2180.12  2183.91
                             2298.01  2328.18  2328.59  2336.26  2336.32
                             4388.39  4390.87  4469.62  4470.32  4522.78
                             4524.44  4564.87  4565.15  4577.13  4577.24
                             4587.90  4588.00  4599.35  4599.45  4616.50
                             4617.36

 Zero-point correction=                           0.318099 (Hartree/Particle)
 Thermal correction to Energy=                    0.343912
 Thermal correction to Enthalpy=                  0.344856
 Thermal correction to Gibbs Free Energy=         0.258675
 Sum of electronic and zero-point Energies=          -2019.562655
 Sum of electronic and thermal Energies=             -2019.536841
 Sum of electronic and thermal Enthalpies=           -2019.535897
 Sum of electronic and thermal Free Energies=        -2019.622079

                     E (Thermal)             CV                S
                      KCal/Mol        Cal/Mol-Kelvin    Cal/Mol-Kelvin
 Total                  215.808             97.808            181.384
 Electronic               0.000              0.000              1.377
 Translational            0.889              2.981             43.967
 Rotational               0.889              2.981             36.128
 Vibrational            214.031             91.847             99.911
 Vibration     1          0.593              1.987              7.529
 Vibration     2          0.593              1.985              6.437
 Vibration     3          0.593              1.984              5.952
 Vibration     4          0.594              1.983              5.588
 Vibration     5          0.594              1.982              5.483
 Vibration     6          0.594              1.981              5.226
 Vibration     7          0.598              1.970              4.246
 Vibration     8          0.602              1.957              3.686
 Vibration     9          0.602              1.957              3.673
 Vibration    10          0.616              1.908              2.740
 Vibration    11          0.617              1.905              2.703
 Vibration    12          0.619              1.901              2.650
 Vibration    13          0.622              1.889              2.528
 Vibration    14          0.625              1.880              2.441
 Vibration    15          0.630              1.865              2.310
 Vibration    16          0.632              1.858              2.259
 Vibration    17          0.642              1.825              2.042
 Vibration    18          0.646              1.815              1.982
 Vibration    19          0.658              1.777              1.793
 Vibration    20          0.659              1.775              1.785
 Vibration    21          0.676              1.722              1.573
 Vibration    22          0.692              1.675              1.421
 Vibration    23          0.696              1.665              1.391
 Vibration    24          0.698              1.657              1.368
 Vibration    25          0.714              1.613              1.254
 Vibration    26          0.744              1.528              1.068
 Vibration    27          0.749              1.516              1.045
 Vibration    28          0.755              1.499              1.014
 Vibration    29          0.764              1.475              0.972
 Vibration    30          0.774              1.450              0.929
 Vibration    31          0.774              1.449              0.927
 Vibration    32          0.780              1.435              0.904
 Vibration    33          0.790              1.407              0.862
 Vibration    34          0.813              1.350              0.781
 Vibration    35          0.832              1.305              0.723
 Vibration    36          0.841              1.284              0.698
 Vibration    37          0.852              1.258              0.667
 Vibration    38          0.872              1.212              0.617
 Vibration    39          0.892              1.168              0.571
 Vibration    40          0.927              1.093              0.502
 Vibration    41          0.939              1.071              0.482
 Vibration    42          0.943              1.062              0.475

                           ! Non-Optimized Parameters !
 Normal termination of Gaussian 16 at Sat Feb 10 19:40:59 2024.
