 Q-Chem 5.4, Q-Chem, Inc., Pleasanton, CA (2021)
 Q-Chem 5.4.0 for Intel X86 EM64T Linux

User input:
--------------------------------------------------------------
$molecule
-2 1
O                 -1.3310070000     -2.6169420000      0.8440890000
C                 -1.1533770000     -1.4172400000      0.4306170000
C                 -2.3706430000     -0.6204920000      0.0835230000
O                 -2.5271770000     -0.1355500000     -1.2810310000
C                 -2.2744870000      0.8365060000     -0.2232560000
C                 -0.9575030000      1.5431750000     -0.1970050000
O                 -0.9650910000      2.8169220000     -0.3381710000
C                  0.1789950000      0.7150270000      0.0023190000
C                  1.4859240000      1.2858410000     -0.0761510000
C                  2.6303810000      0.5688270000      0.1723880000
C                  2.5340850000     -0.8188330000      0.5359790000
C                  1.3005080000     -1.4191020000      0.6021560000
C                  0.0835240000     -0.7279300000      0.3200120000
H                 -3.2977840000     -1.0277410000      0.4930590000
H                 -3.1325800000      1.4875460000     -0.0426090000
H                  1.5396780000      2.3385700000     -0.3396700000
H                  3.6083350000      1.0437780000      0.1067750000
H                  3.4391250000     -1.3857420000      0.7478070000
H                  1.2090960000     -2.4666200000      0.8751590000
$end

$rem
Scf_algorithm RCA_DIIS
BASIS  =  6-311++G(d,p)
GUI  =  2
JOB_TYPE  =  SP
METHOD  =  B3LYP
SCF_CONVERGENCE  = 8
SOLVENT_METHOD = sm12
$end

$smx
solvent dimethylformamide
charges CM5
$end

--------------------------------------------------------------

             Standard Nuclear Orientation (Angstroms)
    I     Atom           X                Y                Z
 ----------------------------------------------------------------
    1      O      -1.3310070000    -2.6169420000     0.8440890000
    2      C      -1.1533770000    -1.4172400000     0.4306170000
    3      C      -2.3706430000    -0.6204920000     0.0835230000
    4      O      -2.5271770000    -0.1355500000    -1.2810310000
    5      C      -2.2744870000     0.8365060000    -0.2232560000
    6      C      -0.9575030000     1.5431750000    -0.1970050000
    7      O      -0.9650910000     2.8169220000    -0.3381710000
    8      C       0.1789950000     0.7150270000     0.0023190000
    9      C       1.4859240000     1.2858410000    -0.0761510000
   10      C       2.6303810000     0.5688270000     0.1723880000
   11      C       2.5340850000    -0.8188330000     0.5359790000
   12      C       1.3005080000    -1.4191020000     0.6021560000
   13      C       0.0835240000    -0.7279300000     0.3200120000
   14      H      -3.2977840000    -1.0277410000     0.4930590000
   15      H      -3.1325800000     1.4875460000    -0.0426090000
   16      H       1.5396780000     2.3385700000    -0.3396700000
   17      H       3.6083350000     1.0437780000     0.1067750000
   18      H       3.4391250000    -1.3857420000     0.7478070000
   19      H       1.2090960000    -2.4666200000     0.8751590000
 ----------------------------------------------------------------

   28    -610.4130001148      6.27E-09 Convergence criterion met
   20    -610.0931385694      2.82E-09 Convergence criterion met
 Total energy in the final basis set = -610.70877262

                    Orbital Energies (a.u.)
 --------------------------------------------------------------

 Alpha MOs
 -- Occupied --
-19.2616 -19.2557 -19.2557 -10.4047 -10.4012 -10.3986 -10.3901 -10.3848
-10.3816 -10.3813 -10.3692 -10.3489 -10.3477  -1.1911  -1.1499  -1.1479
 -1.0546  -0.9698  -0.9585  -0.8676  -0.8608  -0.7980  -0.7886  -0.7476
 -0.7130  -0.6879  -0.6625  -0.6302  -0.6212  -0.6062  -0.6005  -0.5833
 -0.5708  -0.5651  -0.5431  -0.5282  -0.5258  -0.5234  -0.4787  -0.4501
 -0.4439  -0.4318  -0.4101  -0.4072  -0.3923  -0.3772

          Ground-State Mulliken Net Atomic Charges

     Atom                 Charge (a.u.)
  ----------------------------------------
      1 O                     0.019044
      2 C                     3.664123
      3 C                     4.911841
      4 O                     0.048663
      5 C                     5.371021
      6 C                     3.376046
      7 O                    -0.156541
      8 C                     1.155821
      9 C                    -5.612644
     10 C                    -7.860920
     11 C                    -1.970127
     12 C                     3.804610
     13 C                     1.884358
     14 H                     0.761805
     15 H                     0.732830
     16 H                     2.061279
     17 H                   -17.150528
     18 H                     2.200657
     19 H                     0.758664
  ----------------------------------------
  Sum of atomic charges =    -2.000000

                    Cartesian Multipole Moments
 -----------------------------------------------------------------
    Charge (ESU x 10^10)
                -9.6064
    Dipole Moment (Debye)
         X     -56.6433      Y     -19.6945      Z       1.4461
       Tot      59.9869
    Quadrupole Moments (Debye-Ang)
        XX    -401.8524     XY    -108.6981     YY    -155.6911
        XZ      -1.8584     YZ      -1.8189     ZZ    -123.9523

 Total job time:  335.21s(wall), 945.01s(cpu)
        *  Thank you very much for using Q-Chem.  Have a nice day.  *
