 Gaussian 16, Revision A.03,
 Gaussian 16:  ES64L-G16RevA.03 25-Dec-2016

 --------------------------------------
 #P UB3LYP/6-311++G(d,p) nosym opt freq
 --------------------------------------

 --------
 Oxidized
 --------
 Symbolic Z-matrix:
 Charge =  0 Multiplicity = 1

 SCF Done:  E(UB3LYP) =  -1079.97750015     A.U. after   17 cycles
 SCF Done:  E(UB3LYP) =  -1079.98263663     A.U. after   15 cycles
 SCF Done:  E(UB3LYP) =  -1079.98355150     A.U. after   14 cycles
 SCF Done:  E(UB3LYP) =  -1079.98363517     A.U. after   16 cycles
 SCF Done:  E(UB3LYP) =  -1079.98440242     A.U. after   13 cycles
 SCF Done:  E(UB3LYP) =  -1079.98460088     A.U. after   14 cycles
 SCF Done:  E(UB3LYP) =  -1079.98471575     A.U. after   14 cycles
 SCF Done:  E(UB3LYP) =  -1079.98476362     A.U. after   12 cycles
 SCF Done:  E(UB3LYP) =  -1079.98476756     A.U. after   13 cycles
 SCF Done:  E(UB3LYP) =  -1079.98477674     A.U. after   11 cycles
 SCF Done:  E(UB3LYP) =  -1079.98477717     A.U. after   11 cycles
 SCF Done:  E(UB3LYP) =  -1079.98477729     A.U. after    9 cycles
 SCF Done:  E(UB3LYP) =  -1079.98477720     A.U. after   11 cycles
 SCF Done:  E(UB3LYP) =  -1079.98477741     A.U. after    9 cycles
 Optimization completed.
    -- Stationary point found.
 Normal termination of Gaussian 16 at Thu Dec 28 22:32:04 2023.

 ----------------------------------------------------------------------
 #P Geom=AllCheck Guess=TCheck SCRF=Check GenChk UB3LYP/6-311++G(d,p) F
 req
 ----------------------------------------------------------------------

 Structure from the checkpoint file:  "296.chk"
 --------
 Oxidized
 --------
 Charge =  0 Multiplicity = 1

                          Input orientation:
 ---------------------------------------------------------------------
 Center     Atomic      Atomic             Coordinates (Angstroms)
 Number     Number       Type             X           Y           Z
 ---------------------------------------------------------------------
      1          6           0       -1.648145    3.403062   -0.320774
      2          6           0       -2.651780    3.435172    0.642126
      3          6           0       -2.651429    2.502489    1.681192
      4          6           0       -0.643883    2.435129   -0.240790
      5          6           0       -0.640181    1.496129    0.802111
      6          6           0       -1.650356    1.536376    1.761986
      7          6           0        0.426919    2.384069   -1.249656
      8          6           0        1.478685    1.333745   -1.118054
      9          6           0        1.510065    0.411897   -0.121192
     10          6           0        0.434804    0.449565    0.900407
     11          8           0        0.511207    3.156287   -2.198837
     12          8           0        0.407282   -0.355311    1.820886
     13          8           0        2.401827    1.384212   -2.093264
     14          6           0        2.579408   -0.646620    0.010647
     15          6           0        2.575606   -1.654718   -1.176464
     16          6           0        3.997019   -0.068314    0.202901
     17          6           0        4.985871   -1.184199    0.604655
     18          6           0        4.685160   -2.560227   -0.055513
     19          6           0        3.952665   -2.319396   -1.387256
     20          6           0        5.961304   -3.429130   -0.185998
     21          6           0        5.686317   -4.818191   -0.798919
     22          6           0        6.676261   -3.604961    1.171081
     23          6           0        7.944443   -4.464875    1.070652
     24          6           0        7.653625   -5.836243    0.450865
     25          6           0        6.951831   -5.682918   -0.903153
     26          1           0       -1.626338    4.115305   -1.136461
     27          1           0       -3.433152    4.184102    0.584899
     28          1           0       -3.434314    2.529000    2.430679
     29          1           0       -1.635622    0.805980    2.561187
     30          1           0        2.141346    2.129425   -2.669096
     31          1           0        2.332691   -1.197209    0.920750
     32          1           0        2.278366   -1.153397   -2.100051
     33          1           0        1.821154   -2.422182   -0.975022
     34          1           0        3.986613    0.708050    0.973812
     35          1           0        4.319823    0.415835   -0.721732
     36          1           0        4.981797   -1.294367    1.692821
     37          1           0        5.998511   -0.865566    0.330727
     38          1           0        3.994631   -3.109707    0.601199
     39          1           0        3.805667   -3.251580   -1.935941
     40          1           0        4.579484   -1.683949   -2.025104
     41          1           0        6.651719   -2.897209   -0.860147
     42          1           0        5.242317   -4.719516   -1.792607
     43          1           0        4.944076   -5.337481   -0.176262
     44          1           0        5.976609   -4.075863    1.876297
     45          1           0        6.934220   -2.631630    1.596087
     46          1           0        8.393405   -4.581982    2.062812
     47          1           0        8.687193   -3.940974    0.454484
     48          1           0        7.009922   -6.411240    1.129615
     49          1           0        8.579720   -6.409991    0.338491
     50          1           0        6.696330   -6.665628   -1.313805
     51          1           0        7.645399   -5.219867   -1.617511
 ---------------------------------------------------------------------

 SCF Done:  E(UB3LYP) =  -1079.98477741     A.U. after    1 cycles

 Alpha  occ. eigenvalues --  -19.17753 -19.14941 -19.12586 -10.29298 -10.27832
 Alpha  occ. eigenvalues --  -10.26689 -10.21501 -10.21353 -10.20753 -10.20735
 Alpha  occ. eigenvalues --  -10.20615 -10.20402 -10.20258 -10.17816 -10.16690
 Alpha  occ. eigenvalues --  -10.16649 -10.16345 -10.16236 -10.16018 -10.15958
 Alpha  occ. eigenvalues --  -10.15921 -10.15891 -10.15864 -10.15788 -10.15739
 Alpha  occ. eigenvalues --   -1.10905  -1.06635  -1.05898  -0.89749  -0.85229
 Alpha  occ. eigenvalues --   -0.83683  -0.81796  -0.78793  -0.78475  -0.75692
 Alpha  occ. eigenvalues --   -0.74115  -0.73305  -0.71750  -0.69300  -0.66002
 Alpha  occ. eigenvalues --   -0.64885  -0.62121  -0.61540  -0.60814  -0.59622
 Alpha  occ. eigenvalues --   -0.58591  -0.57410  -0.55044  -0.54440  -0.53638
 Alpha  occ. eigenvalues --   -0.51346  -0.49928  -0.48747  -0.48341  -0.47369
 Alpha  occ. eigenvalues --   -0.47068  -0.46683  -0.45830  -0.45569  -0.44398
 Alpha  occ. eigenvalues --   -0.43770  -0.43421  -0.43211  -0.42292  -0.41832
 Alpha  occ. eigenvalues --   -0.41240  -0.41174  -0.39462  -0.39316  -0.38810
 Alpha  occ. eigenvalues --   -0.38043  -0.37878  -0.37792  -0.37142  -0.36660
 Alpha  occ. eigenvalues --   -0.36278  -0.35297  -0.34548  -0.33810  -0.33141
 Alpha  occ. eigenvalues --   -0.32456  -0.31374  -0.31256  -0.30339  -0.29836
 Alpha  occ. eigenvalues --   -0.29348  -0.28863  -0.28485  -0.28358  -0.27281
 Alpha  occ. eigenvalues --   -0.25573
 Alpha virt. eigenvalues --   -0.12584  -0.06028  -0.03100  -0.01311  -0.00673
 Alpha virt. eigenvalues --   -0.00210   0.00163   0.00695   0.00947   0.01428
 Alpha virt. eigenvalues --    0.01908   0.02081   0.02393   0.02972   0.03242

  Beta  occ. eigenvalues --  -19.17753 -19.14941 -19.12586 -10.29298 -10.27832
  Beta  occ. eigenvalues --  -10.26689 -10.21501 -10.21353 -10.20753 -10.20735
  Beta  occ. eigenvalues --  -10.20615 -10.20402 -10.20258 -10.17816 -10.16690
  Beta  occ. eigenvalues --  -10.16649 -10.16345 -10.16236 -10.16018 -10.15958
  Beta  occ. eigenvalues --  -10.15921 -10.15891 -10.15864 -10.15788 -10.15739
  Beta  occ. eigenvalues --   -1.10905  -1.06635  -1.05898  -0.89749  -0.85229
  Beta  occ. eigenvalues --   -0.83683  -0.81796  -0.78793  -0.78475  -0.75692
  Beta  occ. eigenvalues --   -0.74115  -0.73305  -0.71750  -0.69300  -0.66002
  Beta  occ. eigenvalues --   -0.64885  -0.62121  -0.61540  -0.60814  -0.59622
  Beta  occ. eigenvalues --   -0.58591  -0.57410  -0.55044  -0.54440  -0.53638
  Beta  occ. eigenvalues --   -0.51346  -0.49928  -0.48747  -0.48341  -0.47369
  Beta  occ. eigenvalues --   -0.47068  -0.46683  -0.45830  -0.45569  -0.44398
  Beta  occ. eigenvalues --   -0.43770  -0.43421  -0.43211  -0.42292  -0.41832
  Beta  occ. eigenvalues --   -0.41240  -0.41174  -0.39462  -0.39316  -0.38810
  Beta  occ. eigenvalues --   -0.38043  -0.37878  -0.37792  -0.37142  -0.36660
  Beta  occ. eigenvalues --   -0.36278  -0.35297  -0.34548  -0.33810  -0.33141
  Beta  occ. eigenvalues --   -0.32456  -0.31374  -0.31256  -0.30339  -0.29836
  Beta  occ. eigenvalues --   -0.29348  -0.28863  -0.28485  -0.28358  -0.27281
  Beta  occ. eigenvalues --   -0.25573
  Beta virt. eigenvalues --   -0.12584  -0.06028  -0.03100  -0.01311  -0.00673
  Beta virt. eigenvalues --   -0.00210   0.00163   0.00695   0.00947   0.01428
  Beta virt. eigenvalues --    0.01908   0.02081   0.02393   0.02972   0.03242

 Mulliken charges and spin densities:
               1          2
     1  C    0.108917  -0.000000
     2  C   -0.355302   0.000000
     3  C   -0.428384  -0.000000
     4  C    0.511451   0.000000
     5  C    0.260871  -0.000000
     6  C    0.077098   0.000000
     7  C   -0.566584  -0.000000
     8  C   -0.438702  -0.000000
     9  C    0.852415   0.000000
    10  C   -0.691201  -0.000000
    11  O   -0.272796   0.000000
    12  O   -0.199801   0.000000
    13  O   -0.162797   0.000000
    14  C    0.838630   0.000000
    15  C   -0.875984   0.000000
    16  C   -1.140206   0.000000
    17  C   -0.328510   0.000000
    18  C    0.507192  -0.000000
    19  C   -0.593943  -0.000000
    20  C    0.137077   0.000000
    21  C   -0.304252   0.000000
    22  C   -0.245507   0.000000
    23  C   -0.360571  -0.000000
    24  C   -0.398804   0.000000
    25  C   -0.472545  -0.000000
    26  H    0.186899  -0.000000
    27  H    0.175146   0.000000
    28  H    0.181531  -0.000000
    29  H    0.195110   0.000000
    30  H    0.290253   0.000000
    31  H    0.291648  -0.000000
    32  H    0.190698  -0.000000
    33  H    0.188105   0.000000
    34  H    0.190590   0.000000
    35  H    0.191820  -0.000000
    36  H    0.148534   0.000000
    37  H    0.167039   0.000000
    38  H    0.161075   0.000000
    39  H    0.130718   0.000000
    40  H    0.177880   0.000000
    41  H    0.156897   0.000000
    42  H    0.131558  -0.000000
    43  H    0.164023   0.000000
    44  H    0.165498   0.000000
    45  H    0.156580  -0.000000
    46  H    0.170032   0.000000
    47  H    0.137705  -0.000000
    48  H    0.120290   0.000000
    49  H    0.171101  -0.000000
    50  H    0.169777   0.000000
    51  H    0.131733   0.000000
 Sum of Mulliken charges =  -0.00000   0.00000

 Dipole moment (field-independent basis, Debye):
    X=             -1.5515    Y=              1.3143    Z=              0.1163  Tot=              2.0367
 Quadrupole moment (field-independent basis, Debye-Ang):
   XX=           -143.6637   YY=           -149.3829   ZZ=           -155.0041
   XY=             -7.0098   XZ=             -4.1978   YZ=              5.6813

  Exact polarizability: 296.019 -81.435 277.322 -23.746 -24.826 240.084
 Approx polarizability: 391.772 -48.915 411.681 -51.987 -93.452 437.876

                      1                      2                      3
                      A                      A                      A
 Frequencies --     17.1832                29.1876                33.3838
 Red. masses --      4.2306                 4.1830                 5.0282
 Frc consts  --      0.0007                 0.0021                 0.0033
 IR Inten    --      0.0991                 0.5563                 0.8343

                      4                      5                      6
                      A                      A                      A
 Frequencies --     58.1273                68.8644                80.8400
 Red. masses --      2.9573                 6.1071                 3.9730
 Frc consts  --      0.0059                 0.0171                 0.0153
 IR Inten    --      0.0941                 2.4991                 0.5038

                      7                      8                      9
                      A                      A                      A
 Frequencies --    110.5629               125.6566               134.7609
 Red. masses --      4.5843                 5.7627                 4.0651
 Frc consts  --      0.0330                 0.0536                 0.0435
 IR Inten    --      0.0434                 0.0278                 0.1058

                     10                     11                     12
                      A                      A                      A
 Frequencies --    156.1889               163.6960               191.0139
 Red. masses --      3.4135                 5.3709                 2.6406
 Frc consts  --      0.0491                 0.0848                 0.0568
 IR Inten    --      0.1243                 0.5913                 0.0318

                     13                     14                     15
                      A                      A                      A
 Frequencies --    203.2591               215.1607               229.7304
 Red. masses --      2.9976                 2.3383                 1.8288
 Frc consts  --      0.0730                 0.0638                 0.0569
 IR Inten    --      0.0581                 0.4910                 0.0270

                     16                     17                     18
                      A                      A                      A
 Frequencies --    270.6549               305.4892               323.1777
 Red. masses --      5.4838                 2.2336                 3.2396
 Frc consts  --      0.2367                 0.1228                 0.1994
 IR Inten    --      0.9056                 0.0194                 0.1848

                     19                     20                     21
                      A                      A                      A
 Frequencies --    348.2894               364.5035               380.8617
 Red. masses --      4.6369                 5.2168                 3.0632
 Frc consts  --      0.3314                 0.4084                 0.2618
 IR Inten    --      0.4227                 7.2462                 0.2836

                     22                     23                     24
                      A                      A                      A
 Frequencies --    392.7282               395.7194               412.5251
 Red. masses --      2.2936                 5.9451                 7.3467
 Frc consts  --      0.2084                 0.5485                 0.7366
 IR Inten    --      3.8566                22.9058                 7.7206

                     25                     26                     27
                      A                      A                      A
 Frequencies --    437.3814               444.3899               447.5475
 Red. masses --      3.0756                 3.5074                 3.5267
 Frc consts  --      0.3467                 0.4081                 0.4162
 IR Inten    --      0.9629                 1.5869                 1.3486

                     28                     29                     30
                      A                      A                      A
 Frequencies --    455.3026               468.5626               480.7896
 Red. masses --      3.4648                 3.9778                 3.7490
 Frc consts  --      0.4232                 0.5146                 0.5106
 IR Inten    --      1.3965                 5.7752                 1.2700

                     31                     32                     33
                      A                      A                      A
 Frequencies --    504.9512               505.6129               550.9444
 Red. masses --      2.0914                 3.8946                 4.8354
 Frc consts  --      0.3142                 0.5866                 0.8648
 IR Inten    --      0.7906                 0.5653                 2.2126

                     34                     35                     36
                      A                      A                      A
 Frequencies --    592.1778               607.4760               666.1843
 Red. masses --      5.9365                 2.5094                 2.0708
 Frc consts  --      1.2265                 0.5456                 0.5415
 IR Inten    --      5.4432                 0.8548                27.6364

                     37                     38                     39
                      A                      A                      A
 Frequencies --    666.7961               683.5639               709.3494
 Red. masses --      1.7250                 3.0735                 4.6039
 Frc consts  --      0.4519                 0.8461                 1.3649
 IR Inten    --     40.3460                 2.0204                 5.6151

                     40                     41                     42
                      A                      A                      A
 Frequencies --    728.3628               735.8921               763.0195
 Red. masses --      6.1100                 2.4206                 7.0774
 Frc consts  --      1.9098                 0.7723                 2.4277
 IR Inten    --      2.9088                77.8429                 1.1753

                     43                     44                     45
                      A                      A                      A
 Frequencies --    782.4854               789.0408               793.0365
 Red. masses --      1.8440                 2.6597                 1.5139
 Frc consts  --      0.6652                 0.9756                 0.5609
 IR Inten    --      3.9460                 2.9354                 0.1188

                     46                     47                     48
                      A                      A                      A
 Frequencies --    804.8310               812.3624               852.2403
 Red. masses --      1.8530                 2.5739                 1.9336
 Frc consts  --      0.7072                 1.0008                 0.8274
 IR Inten    --     13.7110                 7.1543                 2.5875

                     49                     50                     51
                      A                      A                      A
 Frequencies --    863.9634               880.7376               899.4701
 Red. masses --      2.7380                 2.2345                 1.8996
 Frc consts  --      1.2041                 1.0212                 0.9055
 IR Inten    --      8.5059                 2.7099                 4.3883

                     52                     53                     54
                      A                      A                      A
 Frequencies --    912.7521               916.2311               922.1153
 Red. masses --      1.3271                 1.8012                 2.4157
 Frc consts  --      0.6514                 0.8909                 1.2102
 IR Inten    --      0.0174                 1.1354                19.3619

                     55                     56                     57
                      A                      A                      A
 Frequencies --    926.8723               934.3382               957.3436
 Red. masses --      1.7162                 1.7253                 2.4636
 Frc consts  --      0.8687                 0.8874                 1.3303
 IR Inten    --      5.2842                 0.4288                 2.8277

                     58                     59                     60
                      A                      A                      A
 Frequencies --    972.8006               988.5776               997.9171
 Red. masses --      4.0274                 2.5073                 1.3791
 Frc consts  --      2.2456                 1.4437                 0.8091
 IR Inten    --     25.2839                 7.4722                 1.2795

                     61                     62                     63
                      A                      A                      A
 Frequencies --   1016.2614              1034.5526              1045.0778
 Red. masses --      1.3257                 2.6911                 1.9384
 Frc consts  --      0.8067                 1.6970                 1.2474
 IR Inten    --      0.1056                26.0059                 2.3845

                     64                     65                     66
                      A                      A                      A
 Frequencies --   1054.8669              1058.1127              1071.2728
 Red. masses --      2.0178                 1.7408                 3.4897
 Frc consts  --      1.3229                 1.1483                 2.3596
 IR Inten    --      0.4241                 0.9115                37.7486

                     67                     68                     69
                      A                      A                      A
 Frequencies --   1084.2438              1089.0872              1097.7354
 Red. masses --      4.0045                 1.4199                 2.0953
 Frc consts  --      2.7737                 0.9923                 1.4876
 IR Inten    --      1.0192                 0.0266                 0.0157

                     70                     71                     72
                      A                      A                      A
 Frequencies --   1107.1612              1109.0956              1114.5515
 Red. masses --      2.1714                 2.7170                 2.0554
 Frc consts  --      1.5682                 1.9692                 1.5043
 IR Inten    --      2.3461                 6.7225                 2.7244

                     73                     74                     75
                      A                      A                      A
 Frequencies --   1121.7839              1137.4371              1155.7219
 Red. masses --      2.0233                 1.0452                 2.2397
 Frc consts  --      1.5001                 0.7967                 1.7626
 IR Inten    --      0.6082                 0.0344                 4.3022

                     76                     77                     78
                      A                      A                      A
 Frequencies --   1172.8949              1185.2401              1208.6615
 Red. masses --      2.3659                 1.2115                 1.4252
 Frc consts  --      1.9177                 1.0028                 1.2267
 IR Inten    --     10.1062                 4.3698                 0.4968

                     79                     80                     81
                      A                      A                      A
 Frequencies --   1225.1200              1232.5931              1261.3892
 Red. masses --      1.8102                 1.8300                 1.3096
 Frc consts  --      1.6008                 1.6381                 1.2276
 IR Inten    --     11.0398                39.6940                 1.2654

                     82                     83                     84
                      A                      A                      A
 Frequencies --   1265.4865              1277.2910              1287.5525
 Red. masses --      1.2401                 2.1376                 1.6483
 Frc consts  --      1.1701                 2.0547                 1.6100
 IR Inten    --      8.1633               175.1900                14.6551

                     85                     86                     87
                      A                      A                      A
 Frequencies --   1290.8750              1293.8510              1300.7943
 Red. masses --      1.2613                 1.2075                 2.0973
 Frc consts  --      1.2384                 1.1910                 2.0909
 IR Inten    --      3.9128                 5.9681                72.0930

                     88                     89                     90
                      A                      A                      A
 Frequencies --   1312.3583              1316.6562              1331.4242
 Red. masses --      1.6271                 1.7216                 1.3364
 Frc consts  --      1.6511                 1.7585                 1.3958
 IR Inten    --    171.8016               146.7997                 9.6689

                     91                     92                     93
                      A                      A                      A
 Frequencies --   1337.3250              1346.9708              1351.9241
 Red. masses --      1.2797                 1.2667                 1.3102
 Frc consts  --      1.3484                 1.3540                 1.4108
 IR Inten    --      2.3713                14.7335                 5.1089

                     94                     95                     96
                      A                      A                      A
 Frequencies --   1354.5529              1365.0913              1366.1126
 Red. masses --      1.3868                 2.9087                 1.7119
 Frc consts  --      1.4991                 3.1935                 1.8824
 IR Inten    --     16.6424                39.8826                17.4983

                     97                     98                     99
                      A                      A                      A
 Frequencies --   1367.6258              1372.4174              1378.7616
 Red. masses --      1.3611                 1.4256                 1.4546
 Frc consts  --      1.4999                 1.5820                 1.6291
 IR Inten    --      0.2433                 5.2385                 4.1197

                    100                    101                    102
                      A                      A                      A
 Frequencies --   1380.0209              1381.8477              1387.4431
 Red. masses --      1.4972                 1.3285                 1.4725
 Frc consts  --      1.6800                 1.4946                 1.6701
 IR Inten    --      5.4916                 4.6635                36.7267

                    103                    104                    105
                      A                      A                      A
 Frequencies --   1394.0768              1405.1293              1420.8909
 Red. masses --      1.5343                 1.4749                 1.6343
 Frc consts  --      1.7569                 1.7157                 1.9440
 IR Inten    --     36.3586                 1.3014               169.5174

                    106                    107                    108
                      A                      A                      A
 Frequencies --   1484.2011              1485.3990              1487.5264
 Red. masses --      1.0865                 2.4067                 1.0916
 Frc consts  --      1.4101                 3.1287                 1.4231
 IR Inten    --      0.1387                 7.9355                 2.7545

                    109                    110                    111
                      A                      A                      A
 Frequencies --   1488.6170              1492.3498              1493.1771
 Red. masses --      1.0927                 1.0807                 1.0802
 Frc consts  --      1.4267                 1.4180                 1.4189
 IR Inten    --      4.0918                 0.3843                 1.6246

                    112                    113                    114
                      A                      A                      A
 Frequencies --   1494.3717              1500.4124              1507.3748
 Red. masses --      1.0820                 1.0923                 1.1870
 Frc consts  --      1.4236                 1.4488                 1.5891
 IR Inten    --     11.8529                 3.1933                 0.5966

                    115                    116                    117
                      A                      A                      A
 Frequencies --   1507.5218              1519.5624              1614.1950
 Red. masses --      2.2571                 1.0885                 6.7542
 Frc consts  --      3.0222                 1.4808                10.3690
 IR Inten    --      5.1493                 3.0992                 2.7062

                    118                    119                    120
                      A                      A                      A
 Frequencies --   1627.9188              1681.8388              1700.0220
 Red. masses --      5.9430                 7.4813                11.3767
 Frc consts  --      9.2794                12.4679                19.3720
 IR Inten    --     76.3990                53.6094                47.0947

                    121                    122                    123
                      A                      A                      A
 Frequencies --   1702.6686              2954.9139              2972.0839
 Red. masses --     11.2400                 1.0794                 1.0824
 Frc consts  --     19.1990                 5.5531                 5.6333
 IR Inten    --    378.1486                 3.8838                 7.9375

                    124                    125                    126
                      A                      A                      A
 Frequencies --   2985.5407              2992.8452              2996.0699
 Red. masses --      1.0714                 1.0740                 1.0690
 Frc consts  --      5.6266                 5.6679                 5.6536
 IR Inten    --     12.6024                 7.8985                30.0689

                    127                    128                    129
                      A                      A                      A
 Frequencies --   2998.6562              3003.0999              3010.4961
 Red. masses --      1.0634                 1.0604                 1.0669
 Frc consts  --      5.6339                 5.6348                 5.6973
 IR Inten    --     13.2476                69.9298                23.3904

                    130                    131                    132
                      A                      A                      A
 Frequencies --   3012.5894              3027.8449              3038.4768
 Red. masses --      1.0681                 1.0660                 1.0656
 Frc consts  --      5.7111                 5.7579                 5.7965
 IR Inten    --     55.0377                35.3525                34.1825

                    133                    134                    135
                      A                      A                      A
 Frequencies --   3041.3252              3042.9085              3048.0151
 Red. masses --      1.0977                 1.0902                 1.1027
 Frc consts  --      5.9821                 5.9475                 6.0358
 IR Inten    --     55.0003                93.3863                62.8707

                    136                    137                    138
                      A                      A                      A
 Frequencies --   3051.3688              3061.1070              3062.7787
 Red. masses --      1.0971                 1.0884                 1.0914
 Frc consts  --      6.0187                 6.0087                 6.0320
 IR Inten    --     19.6533                10.1924                39.4672

                    139                    140                    141
                      A                      A                      A
 Frequencies --   3067.2392              3079.5840              3083.3519
 Red. masses --      1.0911                 1.0956                 1.0928
 Frc consts  --      6.0481                 6.1218                 6.1211
 IR Inten    --     44.0272                11.0646                54.7972

                    142                    143                    144
                      A                      A                      A
 Frequencies --   3090.4887              3171.6658              3185.8215
 Red. masses --      1.0972                 1.0871                 1.0916
 Frc consts  --      6.1744                 6.4430                 6.5278
 IR Inten    --     30.7434                 3.2044                 9.0979

                    145                    146                    147
                      A                      A                      A
 Frequencies --   3199.9797              3203.9830              3599.2648
 Red. masses --      1.0936                 1.0943                 1.0641
 Frc consts  --      6.5979                 6.6187                 8.1218
 IR Inten    --      2.5960                 7.9901               173.2885

 - Thermochemistry -
 -------------------
 Temperature   298.150 Kelvin.  Pressure   1.00000 Atm.
 Atom     1 has atomic number  6 and mass  12.00000

 Molecular mass:   338.18819 amu.
 Principal axes and moments of inertia in atomic units:
                           1         2         3
     Eigenvalues --  2718.38573********************
           X            0.74702  -0.31203   0.58703
           Y           -0.66474  -0.36258   0.65319
           Z           -0.00903   0.87816   0.47828
 This molecule is an asymmetric top.
 Rotational symmetry number  1.
 Warning -- assumption of classical behavior for rotation
           may cause significant error
 Rotational temperatures (Kelvin)      0.03186     0.00389     0.00366
 Rotational constants (GHZ):           0.66390     0.08103     0.07635
 Zero-point vibrational energy    1149042.9 (Joules/Mol)
                                  274.62786 (Kcal/Mol)
 Warning -- explicit consideration of  35 degrees of freedom as
           vibrations may cause significant error
 Vibrational temperatures:     24.72    41.99    48.03    83.63    99.08
          (Kelvin)            116.31   159.08   180.79   193.89   224.72
                              235.52   274.83   292.44   309.57   330.53
                              389.41   439.53   464.98   501.11   524.44
                              547.98   565.05   569.35   593.53   629.29
                              639.38   643.92   655.08   674.16   691.75
                              726.51   727.46   792.69   852.01   874.02
                              958.49   959.37   983.50  1020.60  1047.95
                             1058.78  1097.81  1125.82  1135.25  1141.00
                             1157.97  1168.81  1226.18  1243.05  1267.18
                             1294.14  1313.25  1318.25  1326.72  1333.56
                             1344.30  1377.40  1399.64  1422.34  1435.78
                             1462.17  1488.49  1503.63  1517.72  1522.39
                             1541.32  1559.98  1566.95  1579.40  1592.96
                             1595.74  1603.59  1614.00  1636.52  1662.83
                             1687.53  1705.30  1738.99  1762.67  1773.43
                             1814.86  1820.75  1837.74  1852.50  1857.28
                             1861.56  1871.55  1888.19  1894.37  1915.62
                             1924.11  1937.99  1945.12  1948.90  1964.06
                             1965.53  1967.71  1974.60  1983.73  1985.54
                             1988.17  1996.22  2005.77  2021.67  2044.35
                             2135.43  2137.16  2140.22  2141.79  2147.16
                             2148.35  2150.07  2158.76  2168.78  2168.99
                             2186.31  2322.47  2342.21  2419.79  2445.95
                             2449.76  4251.46  4276.17  4295.53  4306.04
                             4310.68  4314.40  4320.79  4331.43  4334.44
                             4356.39  4371.69  4375.79  4378.07  4385.41
                             4390.24  4404.25  4406.66  4413.07  4430.83
                             4436.26  4446.52  4563.32  4583.69  4604.06
                             4609.82  5178.54

 Zero-point correction=                           0.437647 (Hartree/Particle)
 Thermal correction to Energy=                    0.459367
 Thermal correction to Enthalpy=                  0.460311
 Thermal correction to Gibbs Free Energy=         0.385679
 Sum of electronic and zero-point Energies=          -1079.547130
 Sum of electronic and thermal Energies=             -1079.525410
 Sum of electronic and thermal Enthalpies=           -1079.524466
 Sum of electronic and thermal Free Energies=        -1079.599098

                     E (Thermal)             CV                S
                      KCal/Mol        Cal/Mol-Kelvin    Cal/Mol-Kelvin
 Total                  288.257             87.335            157.077
 Electronic               0.000              0.000              0.000
 Translational            0.889              2.981             43.350
 Rotational               0.889              2.981             35.613
 Vibrational            286.480             81.373             78.114
 Vibration     1          0.593              1.986              6.936
 Vibration     2          0.593              1.984              5.884
 Vibration     3          0.594              1.983              5.617
 Vibration     4          0.596              1.974              4.520
 Vibration     5          0.598              1.969              4.186
 Vibration     6          0.600              1.962              3.870
 Vibration     7          0.606              1.941              3.259
 Vibration     8          0.611              1.927              3.011
 Vibration     9          0.613              1.919              2.877
 Vibration    10          0.620              1.896              2.595
 Vibration    11          0.623              1.887              2.507
 Vibration    12          0.634              1.852              2.218
 Vibration    13          0.639              1.835              2.103
 Vibration    14          0.645              1.818              1.999
 Vibration    15          0.652              1.796              1.881
 Vibration    16          0.674              1.727              1.592
 Vibration    17          0.696              1.663              1.387
 Vibration    18          0.708              1.629              1.294
 Vibration    19          0.726              1.579              1.174
 Vibration    20          0.738              1.545              1.103
 Vibration    21          0.751              1.511              1.036
 Vibration    22          0.760              1.486              0.990
 Vibration    23          0.762              1.479              0.979
 Vibration    24          0.776              1.443              0.918
 Vibration    25          0.798              1.389              0.835
 Vibration    26          0.804              1.373              0.813
 Vibration    27          0.807              1.366              0.803
 Vibration    28          0.814              1.349              0.780
 Vibration    29          0.826              1.320              0.742
 Vibration    30          0.837              1.293              0.708
 Vibration    31          0.860              1.239              0.646
 Vibration    32          0.861              1.238              0.644
 Vibration    33          0.906              1.138              0.542
 Vibration    34          0.950              1.048              0.463
 Vibration    35          0.966              1.016              0.437

 Optimization completed.
    -- Stationary point found.
 Normal termination of Gaussian 16 at Fri Dec 29 01:24:56 2023.
