 Q-Chem 5.4, Q-Chem, Inc., Pleasanton, CA (2021)
 Q-Chem 5.4.0 for Intel X86 EM64T Linux

User input:
--------------------------------------------------------------
$molecule
-2 1
C                  5.6179160000     -5.4006740000      1.2607230000
C                  6.5895830000     -5.2927990000      0.2830410000
C                  6.5585140000     -4.2202710000     -0.6501490000
C                  4.5570640000     -4.4745520000      1.3745400000
C                  4.5233520000     -3.3719490000      0.4459790000
C                  5.5397750000     -3.2894240000     -0.5370940000
C                  3.5470230000     -4.6496440000      2.4201760000
C                  2.5474880000     -3.6361670000      2.4243120000
C                  2.5135540000     -2.5642130000      1.5215610000
C                  3.4708810000     -2.3553260000      0.4877640000
O                  3.5766570000     -5.6302630000      3.2555200000
O                  3.4236750000     -1.3696690000     -0.3402050000
H                  5.6290410000     -6.2166930000      1.9775380000
H                  7.3850610000     -6.0347040000      0.2183520000
H                  1.7716980000     -3.7231190000      3.1856200000
H                  1.7074520000     -1.8327710000      1.5870010000
C                  7.6265910000     -4.1147960000     -1.7152250000
H                  5.4833380000     -2.4434300000     -1.2166900000
H                  8.6435970000     -4.0711250000     -1.2869940000
H                  7.4959340000     -3.2186120000     -2.3300930000
H                  7.6221250000     -4.9776960000     -2.3912250000
$end
$rem
MAX_SCF_CYCLES=200
BASIS  =  6-311++G(d,p)
GUI  =  2
JOB_TYPE  =  SP
METHOD  =  B3LYP
SOLVENT_METHOD = COSMO
$end
$solvent
dielectric 37.219
opticaldielectric 1.43
$end

--------------------------------------------------------------

             Standard Nuclear Orientation (Angstroms)
    I     Atom           X                Y                Z
 ----------------------------------------------------------------
    1      C      -0.6054270796    -1.7683616206    -0.0150412596
    2      C      -1.9508567658    -1.4499440840    -0.0069728282
    3      C      -2.3709549983    -0.0914469639     0.0043505687
    4      C       0.4033335896    -0.7792809587    -0.0014548363
    5      C      -0.0084886218     0.6025492672    -0.0080197698
    6      C      -1.3952870344     0.8909043574    -0.0076755024
    7      C       1.8125818765    -1.1769652667     0.0063638413
    8      C       2.7164425557    -0.0773022237     0.0062345302
    9      C       2.3169798126     1.2664212931     0.0004995672
   10      C       0.9602260113     1.7000635822    -0.0038002582
   11      O       2.1848811859    -2.4105310772     0.0064682194
   12      O       0.6068010764     2.9387589101    -0.0014565166
   13      H      -0.2718204746    -2.8020475555    -0.0209182619
   14      H      -2.7001063567    -2.2411516196    -0.0040350439
   15      H       3.7788710348    -0.3226795449     0.0122630001
   16      H       3.0738714422     2.0513653328     0.0087544416
   17      C      -3.8455320692     0.2429504898     0.0144076187
   18      H      -1.6672801042     1.9428976594    -0.0161353237
   19      H      -4.3820116649    -0.1987398576    -0.8438985214
   20      H      -4.0141997381     1.3239748928    -0.0204797483
   21      H      -4.3488858959    -0.1369692020     0.9110058053
 ----------------------------------------------------------------

   18    -574.5579950248      9.93e-06  Convergence criterion met
 Total energy in the final basis set =     -574.5579950248
    6    -574.8512366220      4.01e-06  Convergence criterion met
 Total energy in the final basis set =     -574.8512366220

                    Orbital Energies (a.u.)
 --------------------------------------------------------------

 Alpha MOs
 -- Occupied --
-19.0229 -19.0220 -10.1733 -10.1724 -10.1591 -10.1524 -10.1480 -10.1470
-10.1429 -10.1396 -10.1385 -10.1211 -10.1203  -0.9399  -0.9369  -0.8305
 -0.7703  -0.7356  -0.7141  -0.6680  -0.6343  -0.5856  -0.5653  -0.5263
 -0.4726  -0.4582  -0.4402  -0.4114  -0.4037  -0.4020  -0.3900  -0.3756
 -0.3697  -0.3607  -0.3569  -0.3456  -0.3238  -0.3141  -0.3109  -0.3052
 -0.2306  -0.2287  -0.2135  -0.2048  -0.2002  -0.1155

          Ground-State Mulliken Net Atomic Charges

     Atom                 Charge (a.u.)
  ----------------------------------------
      1 C                     0.036162
      2 C                    -0.481510
      3 C                     0.457840
      4 C                     0.128584
      5 C                    -0.037317
      6 C                    -0.330630
      7 C                    -0.574993
      8 C                     0.012839
      9 C                    -0.095288
     10 C                    -0.361407
     11 O                    -0.757919
     12 O                    -0.757876
     13 H                     0.154087
     14 H                     0.179349
     15 H                     0.141022
     16 H                     0.143520
     17 C                    -0.465462
     18 H                     0.123932
     19 H                     0.157911
     20 H                     0.163883
     21 H                     0.163274
  ----------------------------------------
  Sum of atomic charges =    -2.000000

                    Cartesian Multipole Moments
 -----------------------------------------------------------------
    Charge (ESU x 10^10)
                -9.6064
    Dipole Moment (Debye)
         X     -12.2789      Y      -2.1352      Z       0.0069
       Tot      12.4631
    Quadrupole Moments (Debye-Ang)
        XX    -107.8013     XY      12.5798     YY    -141.5331
        XZ      -0.0914     YZ       0.0844     ZZ     -87.2618

 Total job time:  41.68s(wall), 314.38s(cpu)
        *  Thank you very much for using Q-Chem.  Have a nice day.  *
