 Gaussian 16, Revision A.03,
 Gaussian 16:  ES64L-G16RevA.03 25-Dec-2016

 --------------------------------------
 #P UB3LYP/6-311++G(d,p) nosym opt freq
 --------------------------------------

 -------
 Reduced
 -------
 Symbolic Z-matrix:
 Charge = -2 Multiplicity = 1

 SCF Done:  E(UB3LYP) =  -574.557167486     A.U. after   56 cycles
 SCF Done:  E(UB3LYP) =  -574.557167809     A.U. after   23 cycles
 SCF Done:  E(UB3LYP) =  -574.557168774     A.U. after   26 cycles
 SCF Done:  E(UB3LYP) =  -574.557170347     A.U. after   26 cycles
 SCF Done:  E(UB3LYP) =  -574.557175895     A.U. after   28 cycles
 SCF Done:  E(UB3LYP) =  -574.557301998     A.U. after   31 cycles
 SCF Done:  E(UB3LYP) =  -574.557668208     A.U. after   30 cycles
 SCF Done:  E(UB3LYP) =  -574.557765067     A.U. after   27 cycles
 SCF Done:  E(UB3LYP) =  -574.557773385     A.U. after   28 cycles
 SCF Done:  E(UB3LYP) =  -574.557728398     A.U. after   28 cycles
 SCF Done:  E(UB3LYP) =  -574.557811856     A.U. after   27 cycles
 SCF Done:  E(UB3LYP) =  -574.557802735     A.U. after   30 cycles
 SCF Done:  E(UB3LYP) =  -574.557826904     A.U. after   27 cycles
 SCF Done:  E(UB3LYP) =  -574.557829124     A.U. after   26 cycles
 SCF Done:  E(UB3LYP) =  -574.557827595     A.U. after   32 cycles
 SCF Done:  E(UB3LYP) =  -574.557829695     A.U. after   25 cycles
 Optimization completed.
    -- Stationary point found.
 Normal termination of Gaussian 16 at Sun Jan  7 21:10:27 2024.

 ----------------------------------------------------------------------
 #P Geom=AllCheck Guess=TCheck SCRF=Check GenChk UB3LYP/6-311++G(d,p) F
 req
 ----------------------------------------------------------------------

 Structure from the checkpoint file:  "238-an.chk"
 -------
 Reduced
 -------
 Charge = -2 Multiplicity = 1

                          Input orientation:
 ---------------------------------------------------------------------
 Center     Atomic      Atomic             Coordinates (Angstroms)
 Number     Number       Type             X           Y           Z
 ---------------------------------------------------------------------
      1          6           0        5.617916   -5.400674    1.260723
      2          6           0        6.589583   -5.292799    0.283041
      3          6           0        6.558514   -4.220271   -0.650149
      4          6           0        4.557064   -4.474552    1.374540
      5          6           0        4.523352   -3.371949    0.445979
      6          6           0        5.539775   -3.289424   -0.537094
      7          6           0        3.547023   -4.649644    2.420176
      8          6           0        2.547488   -3.636167    2.424312
      9          6           0        2.513554   -2.564213    1.521561
     10          6           0        3.470881   -2.355326    0.487764
     11          8           0        3.576657   -5.630263    3.255520
     12          8           0        3.423675   -1.369669   -0.340205
     13          1           0        5.629041   -6.216693    1.977538
     14          1           0        7.385061   -6.034704    0.218352
     15          1           0        1.771698   -3.723119    3.185620
     16          1           0        1.707452   -1.832771    1.587001
     17          6           0        7.626591   -4.114796   -1.715225
     18          1           0        5.483338   -2.443430   -1.216690
     19          1           0        8.643597   -4.071125   -1.286994
     20          1           0        7.495934   -3.218612   -2.330093
     21          1           0        7.622125   -4.977696   -2.391225
 ---------------------------------------------------------------------

 SCF Done:  E(UB3LYP) =  -574.557829695     A.U. after   11 cycles

 Alpha  occ. eigenvalues --  -18.77742 -18.77584  -9.94665  -9.93474  -9.93368
 Alpha  occ. eigenvalues --   -9.92955  -9.92015  -9.91507  -9.91095  -9.90127
 Alpha  occ. eigenvalues --   -9.90040  -9.88839  -9.88776  -0.69096  -0.68718
 Alpha  occ. eigenvalues --   -0.59747  -0.53774  -0.50695  -0.48071  -0.44291
 Alpha  occ. eigenvalues --   -0.39786  -0.35320  -0.33358  -0.29071  -0.24077
 Alpha  occ. eigenvalues --   -0.22843  -0.20640  -0.19419  -0.17895  -0.17128
 Alpha  occ. eigenvalues --   -0.16033  -0.14263  -0.13384  -0.12775  -0.11154
 Alpha  occ. eigenvalues --   -0.10795  -0.07892  -0.07415  -0.07246  -0.06665
 Alpha  occ. eigenvalues --    0.00795   0.02116   0.02262   0.04754   0.05074
 Alpha  occ. eigenvalues --    0.13574
 Alpha virt. eigenvalues --    0.15064   0.17690   0.18749   0.18799   0.19861
 Alpha virt. eigenvalues --    0.20619   0.21928   0.22299   0.22802   0.24340
 Alpha virt. eigenvalues --    0.25481   0.27446   0.27776   0.27926   0.28583

  Beta  occ. eigenvalues --  -18.77742 -18.77584  -9.94665  -9.93474  -9.93368
  Beta  occ. eigenvalues --   -9.92955  -9.92015  -9.91507  -9.91095  -9.90127
  Beta  occ. eigenvalues --   -9.90040  -9.88839  -9.88776  -0.69096  -0.68718
  Beta  occ. eigenvalues --   -0.59747  -0.53774  -0.50695  -0.48071  -0.44291
  Beta  occ. eigenvalues --   -0.39786  -0.35320  -0.33358  -0.29071  -0.24077
  Beta  occ. eigenvalues --   -0.22843  -0.20640  -0.19419  -0.17895  -0.17128
  Beta  occ. eigenvalues --   -0.16033  -0.14263  -0.13384  -0.12775  -0.11154
  Beta  occ. eigenvalues --   -0.10795  -0.07892  -0.07415  -0.07246  -0.06665
  Beta  occ. eigenvalues --    0.00795   0.02116   0.02262   0.04754   0.05074
  Beta  occ. eigenvalues --    0.13574
  Beta virt. eigenvalues --    0.15064   0.17690   0.18749   0.18799   0.19861
  Beta virt. eigenvalues --    0.20619   0.21928   0.22299   0.22802   0.24340
  Beta virt. eigenvalues --    0.25481   0.27446   0.27776   0.27926   0.28583

 Mulliken charges and spin densities:
               1          2
     1  C   -0.061145   0.000000
     2  C   -1.262008   0.000000
     3  C   -1.499695  -0.000000
     4  C    0.160008   0.000000
     5  C    0.352212  -0.000000
     6  C    0.646721  -0.000000
     7  C   -1.123667   0.000000
     8  C    0.283953  -0.000000
     9  C    0.120084   0.000000
    10  C   -0.737895  -0.000000
    11  O   -0.536084   0.000000
    12  O   -0.526099   0.000000
    13  H    0.130560  -0.000000
    14  H   -0.057675   0.000000
    15  H    0.065937   0.000000
    16  H    0.073896   0.000000
    17  C    2.889305   0.000000
    18  H    0.209676   0.000000
    19  H   -0.495015  -0.000000
    20  H   -0.580614   0.000000
    21  H   -0.052456  -0.000000
 Sum of Mulliken charges =  -2.00000   0.00000

 Dipole moment (field-independent basis, Debye):
    X=            -45.7273    Y=             35.5344    Z=             -6.7305  Tot=             58.3008
 Quadrupole moment (field-independent basis, Debye-Ang):
   XX=           -362.0646   YY=           -253.5748   ZZ=           -139.4800
   XY=            176.6890   XZ=             -1.6208   YZ=             46.4777

  Exact polarizability:1110.614-118.930 425.257-513.622-107.454 954.341
 Approx polarizability:4785.159-412.818 462.342********  76.7572444.631

                      1                      2                      3
                      A                      A                      A
 Frequencies --     96.8656               120.6140               142.8928
 Red. masses --      3.9717                 5.2825                 1.3729
 Frc consts  --      0.0220                 0.0453                 0.0165
 IR Inten    --      0.5791                 9.9570                16.6133

                      4                      5                      6
                      A                      A                      A
 Frequencies --    183.4747               210.0510               288.3596
 Red. masses --      2.5265                 4.5874                 3.7250
 Frc consts  --      0.0501                 0.1193                 0.1825
 IR Inten    --     17.9882                 7.5192                 1.2077

                      7                      8                      9
                      A                      A                      A
 Frequencies --    326.3083               356.6506               357.4431
 Red. masses --      6.9152                 5.4251                 4.5486
 Frc consts  --      0.4338                 0.4066                 0.3424
 IR Inten    --     52.5884                 0.8502                 4.6386

                     10                     11                     12
                      A                      A                      A
 Frequencies --    436.9574               444.6026               462.6589
 Red. masses --      3.1103                 8.9653                 6.0954
 Frc consts  --      0.3499                 1.0441                 0.7687
 IR Inten    --     28.7177               561.7589               165.7678

                     13                     14                     15
                      A                      A                      A
 Frequencies --    493.7274               535.4658               602.8541
 Red. masses --      3.8372                 7.1839                 4.6720
 Frc consts  --      0.5511                 1.2136                 1.0004
 IR Inten    --     13.0838                63.8749                 1.7888

                     16                     17                     18
                      A                      A                      A
 Frequencies --    627.6581               665.5220               685.1955
 Red. masses --      2.0331                 3.7015                 4.6206
 Frc consts  --      0.4719                 0.9659                 1.2781
 IR Inten    --      2.6212                29.5022                 8.1036

                     19                     20                     21
                      A                      A                      A
 Frequencies --    719.5892               772.7016               781.3254
 Red. masses --      6.5327                 1.4647                 6.5969
 Frc consts  --      1.9930                 0.5153                 2.3728
 IR Inten    --      6.6675                39.3843                57.3272

                     22                     23                     24
                      A                      A                      A
 Frequencies --    808.2405               818.3355               870.6051
 Red. masses --      2.2546                 3.0331                 1.4438
 Frc consts  --      0.8678                 1.1967                 0.6448
 IR Inten    --     57.5949                 6.5510                 1.2088

                     25                     26                     27
                      A                      A                      A
 Frequencies --    896.4710               929.2495               961.3152
 Red. masses --      3.6946                 1.3650                 1.3256
 Frc consts  --      1.7494                 0.6945                 0.7218
 IR Inten    --     25.6331                19.3357                21.6361

                     28                     29                     30
                      A                      A                      A
 Frequencies --    994.0383              1047.1424              1070.8184
 Red. masses --      1.5104                 1.9794                 2.0655
 Frc consts  --      0.8793                 1.2788                 1.3954
 IR Inten    --     43.6769                45.3627                56.8043

                     31                     32                     33
                      A                      A                      A
 Frequencies --   1073.6302              1119.7276              1152.5987
 Red. masses --      2.0502                 1.5085                 1.5490
 Frc consts  --      1.3924                 1.1143                 1.2125
 IR Inten    --     15.8506                93.9934               376.9885

                     34                     35                     36
                      A                      A                      A
 Frequencies --   1202.2282              1207.7718              1227.3411
 Red. masses --      2.3341                 5.2998                 1.7824
 Frc consts  --      1.9877                 4.5549                 1.5820
 IR Inten    --    590.1889               116.1637                96.4835

                     37                     38                     39
                      A                      A                      A
 Frequencies --   1295.5637              1330.6212              1381.8218
 Red. masses --      1.6854                 7.6247                 3.3576
 Frc consts  --      1.6668                 7.9539                 3.7773
 IR Inten    --     76.1017               884.8859               678.4863

                     40                     41                     42
                      A                      A                      A
 Frequencies --   1385.7330              1393.5439              1412.2170
 Red. masses --      2.5167                 2.2274                 3.6909
 Frc consts  --      2.8473                 2.5485                 4.3370
 IR Inten    --    273.7478                43.7117               547.0193

                     43                     44                     45
                      A                      A                      A
 Frequencies --   1465.5594              1476.2318              1485.7596
 Red. masses --      3.2730                 1.3422                 1.0713
 Frc consts  --      4.1419                 1.7234                 1.3934
 IR Inten    --    225.2306               367.9322               257.4955

                     46                     47                     48
                      A                      A                      A
 Frequencies --   1502.2477              1521.9165              1567.6948
 Red. masses --      2.5603                 4.4426                 6.5746
 Frc consts  --      3.4042                 6.0628                 9.5201
 IR Inten    --   1081.2166               473.5001              3694.8778

                     49                     50                     51
                      A                      A                      A
 Frequencies --   1608.5185              2918.2761              3007.9378
 Red. masses --      5.6661                 1.0617                 1.0744
 Frc consts  --      8.6374                 5.3275                 5.7276
 IR Inten    --     17.8483               183.9991               388.0757

                     52                     53                     54
                      A                      A                      A
 Frequencies --   3058.2543              3076.5207              3095.3053
 Red. masses --      1.0959                 1.0831                 1.0867
 Frc consts  --      6.0393                 6.0402                 6.1345
 IR Inten    --     23.4236                66.2744                65.9559

                     55                     56                     57
                      A                      A                      A
 Frequencies --   3103.7247              3145.6209              3152.5754
 Red. masses --      1.0912                 1.0883                 1.0905
 Frc consts  --      6.1932                 6.3445                 6.3856
 IR Inten    --    690.1688                52.7075                48.4414

 - Thermochemistry -
 -------------------
 Temperature   298.150 Kelvin.  Pressure   1.00000 Atm.
 Atom     1 has atomic number  6 and mass  12.00000

 Molecular mass:   172.05243 amu.
 Principal axes and moments of inertia in atomic units:
                           1         2         3
     Eigenvalues --  1467.230022484.764013940.81755
           X            0.78304  -0.27483   0.55796
           Y           -0.09874   0.83078   0.54778
           Z           -0.61408  -0.48402   0.62340
 This molecule is an asymmetric top.
 Rotational symmetry number  1.
 Warning -- assumption of classical behavior for rotation
           may cause significant error
 Rotational temperatures (Kelvin)      0.05903     0.03486     0.02198
 Rotational constants (GHZ):           1.23003     0.72632     0.45796
 Zero-point vibrational energy     407185.4 (Joules/Mol)
                                   97.31964 (Kcal/Mol)
 Warning -- explicit consideration of  15 degrees of freedom as
           vibrations may cause significant error
 Vibrational temperatures:    139.37   173.54   205.59   263.98   302.22
          (Kelvin)            414.89   469.48   513.14   514.28   628.68
                              639.68   665.66   710.36   770.42   867.37
                              903.06   957.54   985.84  1035.33  1111.75
                             1124.15  1162.88  1177.40  1252.61  1289.82
                             1336.98  1383.12  1430.20  1506.60  1540.67
                             1544.71  1611.04  1658.33  1729.74  1737.71
                             1765.87  1864.03  1914.47  1988.13  1993.76
                             2005.00  2031.87  2108.61  2123.97  2137.68
                             2161.40  2189.70  2255.56  2314.30  4198.75
                             4327.75  4400.15  4426.43  4453.45  4465.57
                             4525.85  4535.85

 Zero-point correction=                           0.155089 (Hartree/Particle)
 Thermal correction to Energy=                    0.165381
 Thermal correction to Enthalpy=                  0.166326
 Thermal correction to Gibbs Free Energy=         0.119430
 Sum of electronic and zero-point Energies=           -574.402741
 Sum of electronic and thermal Energies=              -574.392448
 Sum of electronic and thermal Enthalpies=            -574.391504
 Sum of electronic and thermal Free Energies=         -574.438400

                     E (Thermal)             CV                S
                      KCal/Mol        Cal/Mol-Kelvin    Cal/Mol-Kelvin
 Total                  103.778             41.157             98.701
 Electronic               0.000              0.000              0.000
 Translational            0.889              2.981             41.335
 Rotational               0.889              2.981             31.041
 Vibrational            102.001             35.195             26.324
 Vibration     1          0.603              1.951              3.516
 Vibration     2          0.609              1.932              3.091
 Vibration     3          0.616              1.910              2.765
 Vibration     4          0.631              1.862              2.293
 Vibration     5          0.642              1.825              2.043
 Vibration     6          0.685              1.695              1.484
 Vibration     7          0.710              1.623              1.278
 Vibration     8          0.732              1.562              1.137
 Vibration     9          0.733              1.560              1.133
 Vibration    10          0.797              1.390              0.836
 Vibration    11          0.804              1.373              0.812
 Vibration    12          0.820              1.333              0.758
 Vibration    13          0.849              1.264              0.674
 Vibration    14          0.890              1.172              0.575
 Vibration    15          0.961              1.026              0.445

 Optimization completed.
    -- Stationary point found.
 Normal termination of Gaussian 16 at Sun Jan  7 21:20:09 2024.
