 Q-Chem 5.4, Q-Chem, Inc., Pleasanton, CA (2021)
 Q-Chem 5.4.0 for Intel X86 EM64T Linux

User input:
--------------------------------------------------------------
$molecule
0 1
C                 -1.6481450000      3.4030620000     -0.3207740000
C                 -2.6517800000      3.4351720000      0.6421260000
C                 -2.6514290000      2.5024890000      1.6811920000
C                 -0.6438830000      2.4351290000     -0.2407900000
C                 -0.6401810000      1.4961290000      0.8021110000
C                 -1.6503560000      1.5363760000      1.7619860000
C                  0.4269190000      2.3840690000     -1.2496560000
C                  1.4786850000      1.3337450000     -1.1180540000
C                  1.5100650000      0.4118970000     -0.1211920000
C                  0.4348040000      0.4495650000      0.9004070000
O                  0.5112070000      3.1562870000     -2.1988370000
O                  0.4072820000     -0.3553110000      1.8208860000
O                  2.4018270000      1.3842120000     -2.0932640000
C                  2.5794080000     -0.6466200000      0.0106470000
C                  2.5756060000     -1.6547180000     -1.1764640000
C                  3.9970190000     -0.0683140000      0.2029010000
C                  4.9858710000     -1.1841990000      0.6046550000
C                  4.6851600000     -2.5602270000     -0.0555130000
C                  3.9526650000     -2.3193960000     -1.3872560000
C                  5.9613040000     -3.4291300000     -0.1859980000
C                  5.6863170000     -4.8181910000     -0.7989190000
C                  6.6762610000     -3.6049610000      1.1710810000
C                  7.9444430000     -4.4648750000      1.0706520000
C                  7.6536250000     -5.8362430000      0.4508650000
C                  6.9518310000     -5.6829180000     -0.9031530000
H                 -1.6263380000      4.1153050000     -1.1364610000
H                 -3.4331520000      4.1841020000      0.5848990000
H                 -3.4343140000      2.5290000000      2.4306790000
H                 -1.6356220000      0.8059800000      2.5611870000
H                  2.1413460000      2.1294250000     -2.6690960000
H                  2.3326910000     -1.1972090000      0.9207500000
H                  2.2783660000     -1.1533970000     -2.1000510000
H                  1.8211540000     -2.4221820000     -0.9750220000
H                  3.9866130000      0.7080500000      0.9738120000
H                  4.3198230000      0.4158350000     -0.7217320000
H                  4.9817970000     -1.2943670000      1.6928210000
H                  5.9985110000     -0.8655660000      0.3307270000
H                  3.9946310000     -3.1097070000      0.6011990000
H                  3.8056670000     -3.2515800000     -1.9359410000
H                  4.5794840000     -1.6839490000     -2.0251040000
H                  6.6517190000     -2.8972090000     -0.8601470000
H                  5.2423170000     -4.7195160000     -1.7926070000
H                  4.9440760000     -5.3374810000     -0.1762620000
H                  5.9766090000     -4.0758630000      1.8762970000
H                  6.9342200000     -2.6316300000      1.5960870000
H                  8.3934050000     -4.5819820000      2.0628120000
H                  8.6871930000     -3.9409740000      0.4544840000
H                  7.0099220000     -6.4112400000      1.1296150000
H                  8.5797200000     -6.4099910000      0.3384910000
H                  6.6963300000     -6.6656280000     -1.3138050000
H                  7.6453990000     -5.2198670000     -1.6175110000
$end

$rem
BASIS  =  6-311++G(d,p)
GUI  =  2
JOB_TYPE  =  SP
METHOD  =  B3LYP
SCF_CONVERGENCE  = 8
SOLVENT_METHOD = sm12
$end

$smx
solvent dimethylformamide
charges CM5
$end

--------------------------------------------------------------

             Standard Nuclear Orientation (Angstroms)
    I     Atom           X                Y                Z
 ----------------------------------------------------------------
    1      C      -1.6481450000     3.4030620000    -0.3207740000
    2      C      -2.6517800000     3.4351720000     0.6421260000
    3      C      -2.6514290000     2.5024890000     1.6811920000
    4      C      -0.6438830000     2.4351290000    -0.2407900000
    5      C      -0.6401810000     1.4961290000     0.8021110000
    6      C      -1.6503560000     1.5363760000     1.7619860000
    7      C       0.4269190000     2.3840690000    -1.2496560000
    8      C       1.4786850000     1.3337450000    -1.1180540000
    9      C       1.5100650000     0.4118970000    -0.1211920000
   10      C       0.4348040000     0.4495650000     0.9004070000
   11      O       0.5112070000     3.1562870000    -2.1988370000
   12      O       0.4072820000    -0.3553110000     1.8208860000
   13      O       2.4018270000     1.3842120000    -2.0932640000
   14      C       2.5794080000    -0.6466200000     0.0106470000
   15      C       2.5756060000    -1.6547180000    -1.1764640000
   16      C       3.9970190000    -0.0683140000     0.2029010000
   17      C       4.9858710000    -1.1841990000     0.6046550000
   18      C       4.6851600000    -2.5602270000    -0.0555130000
   19      C       3.9526650000    -2.3193960000    -1.3872560000
   20      C       5.9613040000    -3.4291300000    -0.1859980000
   21      C       5.6863170000    -4.8181910000    -0.7989190000
   22      C       6.6762610000    -3.6049610000     1.1710810000
   23      C       7.9444430000    -4.4648750000     1.0706520000
   24      C       7.6536250000    -5.8362430000     0.4508650000
   25      C       6.9518310000    -5.6829180000    -0.9031530000
   26      H      -1.6263380000     4.1153050000    -1.1364610000
   27      H      -3.4331520000     4.1841020000     0.5848990000
   28      H      -3.4343140000     2.5290000000     2.4306790000
   29      H      -1.6356220000     0.8059800000     2.5611870000
   30      H       2.1413460000     2.1294250000    -2.6690960000
   31      H       2.3326910000    -1.1972090000     0.9207500000
   32      H       2.2783660000    -1.1533970000    -2.1000510000
   33      H       1.8211540000    -2.4221820000    -0.9750220000
   34      H       3.9866130000     0.7080500000     0.9738120000
   35      H       4.3198230000     0.4158350000    -0.7217320000
   36      H       4.9817970000    -1.2943670000     1.6928210000
   37      H       5.9985110000    -0.8655660000     0.3307270000
   38      H       3.9946310000    -3.1097070000     0.6011990000
   39      H       3.8056670000    -3.2515800000    -1.9359410000
   40      H       4.5794840000    -1.6839490000    -2.0251040000
   41      H       6.6517190000    -2.8972090000    -0.8601470000
   42      H       5.2423170000    -4.7195160000    -1.7926070000
   43      H       4.9440760000    -5.3374810000    -0.1762620000
   44      H       5.9766090000    -4.0758630000     1.8762970000
   45      H       6.9342200000    -2.6316300000     1.5960870000
   46      H       8.3934050000    -4.5819820000     2.0628120000
   47      H       8.6871930000    -3.9409740000     0.4544840000
   48      H       7.0099220000    -6.4112400000     1.1296150000
   49      H       8.5797200000    -6.4099910000     0.3384910000
   50      H       6.6963300000    -6.6656280000    -1.3138050000
   51      H       7.6453990000    -5.2198670000    -1.6175110000
 ----------------------------------------------------------------

   15   -1079.9839196079      9.23e-09  Convergence criterion met
 Total energy in the final basis set =    -1080.0083165129

                    Orbital Energies (a.u.)
 --------------------------------------------------------------

 Alpha MOs
 -- Occupied --
-19.1775 -19.1479 -19.1260 -10.2914 -10.2786 -10.2670 -10.2099 -10.2089
-10.2037 -10.2002 -10.1983 -10.1966 -10.1963 -10.1807 -10.1700 -10.1698
-10.1663 -10.1652 -10.1628 -10.1624 -10.1623 -10.1619 -10.1616 -10.1612
-10.1606  -1.1086  -1.0654  -1.0596  -0.8917  -0.8534  -0.8382  -0.8186
 -0.7855  -0.7787  -0.7575  -0.7441  -0.7361  -0.7187  -0.6915  -0.6561
 -0.6470  -0.6238  -0.6160  -0.6045  -0.5992  -0.5871  -0.5719  -0.5541
 -0.5420  -0.5374  -0.5108  -0.4960  -0.4870  -0.4846  -0.4716  -0.4694
 -0.4644  -0.4567  -0.4516  -0.4454  -0.4388  -0.4367  -0.4348  -0.4235
 -0.4200  -0.4111  -0.4105  -0.3970  -0.3904  -0.3872  -0.3819  -0.3759
 -0.3742  -0.3704  -0.3675  -0.3654  -0.3560  -0.3484  -0.3418  -0.3354
 -0.3270  -0.3167  -0.3160  -0.3029  -0.3016  -0.2915  -0.2888  -0.2856
 -0.2787  -0.2740  -0.2553

          Ground-State Mulliken Net Atomic Charges

     Atom                 Charge (a.u.)
  ----------------------------------------
      1 C                     0.235534
      2 C                     0.395761
      3 C                     0.183425
      4 C                     0.892892
      5 C                    -0.326450
      6 C                    -0.052895
      7 C                    -0.821432
      8 C                    -0.444323
      9 C                     0.446637
     10 C                    -1.216408
     11 O                    -0.285686
     12 O                    -0.289348
     13 O                    -0.158359
     14 C                     0.688430
     15 C                    -0.894318
     16 C                    -1.265572
     17 C                    -0.101631
     18 C                     0.611899
     19 C                    -0.436434
     20 C                     0.219172
     21 C                    -0.283966
     22 C                    -0.197864
     23 C                    -0.379588
     24 C                    -0.435470
     25 C                    -0.489489
     26 H                     0.220547
     27 H                     0.329647
     28 H                     0.311701
     29 H                     0.204039
     30 H                     0.298043
     31 H                     0.153725
     32 H                     0.154985
     33 H                     0.174425
     34 H                     0.183771
     35 H                     0.139846
     36 H                     0.147772
     37 H                     0.166787
     38 H                     0.064578
     39 H                     0.156387
     40 H                     0.129625
     41 H                     0.068077
     42 H                     0.150185
     43 H                     0.125520
     44 H                     0.124653
     45 H                     0.177403
     46 H                     0.193914
     47 H                     0.122474
     48 H                     0.098986
     49 H                     0.197691
     50 H                     0.194311
     51 H                     0.116395
  ----------------------------------------
  Sum of atomic charges =     0.000000

                    Cartesian Multipole Moments
 -----------------------------------------------------------------
    Charge (ESU x 10^10)
                 0.0000
    Dipole Moment (Debye)
         X      -2.2479      Y       1.8932      Z       0.1782
       Tot       2.9443
    Quadrupole Moments (Debye-Ang)
        XX    -141.9005     XY      -9.0882     YY    -147.4493
        XZ      -4.9141     YZ       6.5617     ZZ    -154.9795

 Total job time:  3299.14s(wall), 21386.76s(cpu)
        *  Thank you very much for using Q-Chem.  Have a nice day.  *
