 Gaussian 16, Revision A.03,
 Gaussian 16:  ES64L-G16RevA.03 25-Dec-2016

 ----------------------------------------------------------------------
 #P UB3LYP/6-311++G(d,p) nosym opt freq SCRF=(PCM,Solvent=n,n-DiMethylF
 ormamide)
 ----------------------------------------------------------------------

 --------
 Oxidized
 --------
 Symbolic Z-matrix:
 Charge =  0 Multiplicity = 1

 SCF Done:  E(UB3LYP) =  -973.809505230     A.U. after   15 cycles
 SCF Done:  E(UB3LYP) =  -973.809606997     A.U. after   11 cycles
 SCF Done:  E(UB3LYP) =  -973.809618939     A.U. after   11 cycles
 SCF Done:  E(UB3LYP) =  -973.809621724     A.U. after    8 cycles
 Optimization completed.
    -- Stationary point found.
 Normal termination of Gaussian 16 at Sun Feb 11 15:16:50 2024.

 ----------------------------------------------------------------------
 #P Geom=AllCheck Guess=TCheck SCRF=Check GenChk UB3LYP/6-311++G(d,p) F
 req
 ----------------------------------------------------------------------

 Structure from the checkpoint file:  "337.chk"
 --------
 Oxidized
 --------
 Charge =  0 Multiplicity = 1

                          Input orientation:
 ---------------------------------------------------------------------
 Center     Atomic      Atomic             Coordinates (Angstroms)
 Number     Number       Type             X           Y           Z
 ---------------------------------------------------------------------
      1          8           0       -0.140077   -2.471000    0.314553
      2          6           0       -0.070935   -1.250114    0.158314
      3          6           0       -1.304442   -0.427052    0.179144
      4          6           0       -2.531797   -1.090987    0.381855
      5          6           0       -3.729187   -0.401849    0.416161
      6          6           0       -3.731347    0.990190    0.246030
      7          6           0       -2.542623    1.670139    0.044947
      8          6           0       -1.324051    0.969677    0.010054
      9         16           0        0.110299    1.952720   -0.253381
     10          6           0        1.423165    0.782560   -0.236213
     11          6           0        2.711591    1.312361   -0.425749
     12          6           0        3.814587    0.476169   -0.431211
     13          6           0        3.655310   -0.905008   -0.247629
     14          6           0        2.389182   -1.426409   -0.060586
     15          6           0        1.246066   -0.600848   -0.049865
     16          1           0       -2.506229   -2.165220    0.510615
     17          1           0       -4.660265   -0.932749    0.573403
     18          1           0       -4.663967    1.541691    0.271106
     19          1           0       -2.547521    2.746250   -0.086346
     20          1           0        2.837758    2.379667   -0.567667
     21          1           0        4.802421    0.896958   -0.578384
     22          1           0        4.519532   -1.558111   -0.252363
     23          1           0        2.242531   -2.489037    0.083215
 ---------------------------------------------------------------------

 SCF Done:  E(UB3LYP) =  -973.809621724     A.U. after    2 cycles

 Alpha  occ. eigenvalues --  -88.89016 -19.11375 -10.27457 -10.23938 -10.23938
 Alpha  occ. eigenvalues --  -10.20611 -10.20610 -10.19794 -10.19794 -10.19736
 Alpha  occ. eigenvalues --  -10.19735 -10.19379 -10.19376 -10.18961 -10.18960
 Alpha  occ. eigenvalues --   -7.97662  -5.94021  -5.93606  -5.93136  -1.04842
 Alpha  occ. eigenvalues --   -0.90413  -0.88195  -0.82821  -0.79016  -0.77681
 Alpha  occ. eigenvalues --   -0.77053  -0.72620  -0.66881  -0.64171  -0.61843
 Alpha  occ. eigenvalues --   -0.60915  -0.56436  -0.55373  -0.50800  -0.48722
 Alpha  occ. eigenvalues --   -0.48588  -0.47966  -0.45254  -0.44862  -0.44203
 Alpha  occ. eigenvalues --   -0.44054  -0.43588  -0.40486  -0.39433  -0.38653
 Alpha  occ. eigenvalues --   -0.38512  -0.37377  -0.36306  -0.34777  -0.33461
 Alpha  occ. eigenvalues --   -0.28442  -0.27780  -0.27703  -0.27352  -0.23141
 Alpha virt. eigenvalues --   -0.08879  -0.04546  -0.02949  -0.02828  -0.00622
 Alpha virt. eigenvalues --   -0.00430   0.00941   0.01245   0.01706   0.02300
 Alpha virt. eigenvalues --    0.03389   0.03584   0.03938   0.04214   0.04514

  Beta  occ. eigenvalues --  -88.89016 -19.11375 -10.27457 -10.23938 -10.23938
  Beta  occ. eigenvalues --  -10.20611 -10.20610 -10.19794 -10.19794 -10.19736
  Beta  occ. eigenvalues --  -10.19735 -10.19379 -10.19376 -10.18961 -10.18960
  Beta  occ. eigenvalues --   -7.97662  -5.94021  -5.93606  -5.93136  -1.04842
  Beta  occ. eigenvalues --   -0.90413  -0.88195  -0.82821  -0.79016  -0.77681
  Beta  occ. eigenvalues --   -0.77053  -0.72620  -0.66881  -0.64171  -0.61843
  Beta  occ. eigenvalues --   -0.60915  -0.56436  -0.55373  -0.50800  -0.48722
  Beta  occ. eigenvalues --   -0.48588  -0.47966  -0.45254  -0.44862  -0.44203
  Beta  occ. eigenvalues --   -0.44054  -0.43588  -0.40486  -0.39433  -0.38653
  Beta  occ. eigenvalues --   -0.38512  -0.37377  -0.36306  -0.34777  -0.33461
  Beta  occ. eigenvalues --   -0.28442  -0.27780  -0.27703  -0.27352  -0.23141
  Beta virt. eigenvalues --   -0.08879  -0.04546  -0.02949  -0.02828  -0.00622
  Beta virt. eigenvalues --   -0.00430   0.00941   0.01245   0.01706   0.02300
  Beta virt. eigenvalues --    0.03389   0.03584   0.03938   0.04214   0.04514

 Mulliken charges and spin densities:
               1          2
     1  O   -0.321713  -0.000000
     2  C   -0.063721   0.000000
     3  C    1.817092  -0.000000
     4  C    0.296692  -0.000000
     5  C   -0.433782   0.000000
     6  C   -0.189037   0.000000
     7  C   -0.521909  -0.000000
     8  C   -1.131053   0.000000
     9  S   -0.901879   0.000000
    10  C   -1.132383   0.000000
    11  C   -0.521622   0.000000
    12  C   -0.189005  -0.000000
    13  C   -0.433484   0.000000
    14  C    0.296299  -0.000000
    15  C    1.817007  -0.000000
    16  H    0.193741   0.000000
    17  H    0.201142  -0.000000
    18  H    0.200901   0.000000
    19  H    0.210302  -0.000000
    20  H    0.210531   0.000000
    21  H    0.200907  -0.000000
    22  H    0.201118   0.000000
    23  H    0.193856  -0.000000
 Sum of Mulliken charges =  -0.00000  -0.00000

 Dipole moment (field-independent basis, Debye):
    X=              0.2393    Y=              4.2216    Z=             -0.5360  Tot=              4.2622
 Quadrupole moment (field-independent basis, Debye-Ang):
   XX=            -66.9230   YY=            -96.1190   ZZ=            -98.6200
   XY=             -2.0245   XZ=             -2.8923   YZ=             -0.1451

  Exact polarizability: 359.367  -7.553 275.441 -22.710 -18.479 123.082
 Approx polarizability: 388.650  -4.693 356.788 -23.941 -26.229 144.452

                      1                      2                      3
                      A                      A                      A
 Frequencies --     35.1724               101.9723               130.2023
 Red. masses --      7.7824                 3.8696                 5.5757
 Frc consts  --      0.0057                 0.0237                 0.0557
 IR Inten    --      5.6812                 0.0014                 1.1510

                      4                      5                      6
                      A                      A                      A
 Frequencies --    198.0978               226.2005               229.9029
 Red. masses --      6.6184                 5.0983                 5.0344
 Frc consts  --      0.1530                 0.1537                 0.1568
 IR Inten    --      0.3488                 5.5180                 0.0016

                      7                      8                      9
                      A                      A                      A
 Frequencies --    329.8566               336.5642               411.9428
 Red. masses --      6.4177                 7.8061                 3.5513
 Frc consts  --      0.4114                 0.5210                 0.3551
 IR Inten    --     19.8335                15.7614                 1.0971

                     10                     11                     12
                      A                      A                      A
 Frequencies --    415.1907               449.9150               450.4006
 Red. masses --      9.6887                 3.2412                12.2481
 Frc consts  --      0.9840                 0.3866                 1.4639
 IR Inten    --      0.1230                 0.0023                 0.0153

                     13                     14                     15
                      A                      A                      A
 Frequencies --    480.9632               491.1307               500.4168
 Red. masses --     11.9153                 4.0602                 3.9249
 Frc consts  --      1.6240                 0.5770                 0.5791
 IR Inten    --      8.8742                12.5201                 0.0062

                     16                     17                     18
                      A                      A                      A
 Frequencies --    592.6483               640.4480               677.6911
 Red. masses --      7.1382                 6.9452                 4.3011
 Frc consts  --      1.4772                 1.6784                 1.1638
 IR Inten    --      0.7149                27.7596                20.8260

                     19                     20                     21
                      A                      A                      A
 Frequencies --    678.0003               717.9260               740.3831
 Red. masses --      6.3905                 4.3096                 7.3091
 Frc consts  --      1.7308                 1.3087                 2.3606
 IR Inten    --      0.6294                 0.0322                 2.5013

                     22                     23                     24
                      A                      A                      A
 Frequencies --    743.6846               773.3678               783.8009
 Red. masses --      1.5604                 1.2602                 6.6930
 Frc consts  --      0.5085                 0.4441                 2.4226
 IR Inten    --    196.0388                 0.0114                 3.5953

                     25                     26                     27
                      A                      A                      A
 Frequencies --    820.9196               880.9214               883.6564
 Red. masses --      2.6445                 1.3428                 1.4638
 Frc consts  --      1.0500                 0.6140                 0.6734
 IR Inten    --     21.1093                 0.0013                 0.0875

                     28                     29                     30
                      A                      A                      A
 Frequencies --    938.0409               989.4214               991.4319
 Red. masses --      6.9774                 1.3557                 1.3779
 Frc consts  --      3.6173                 0.7820                 0.7980
 IR Inten    --     56.4152                 0.1510                 2.9915

                     31                     32                     33
                      A                      A                      A
 Frequencies --   1014.9068              1015.5272              1049.7598
 Red. masses --      1.3173                 1.3168                 3.0107
 Frc consts  --      0.7994                 0.8001                 1.9548
 IR Inten    --      0.0426                 0.0253                23.4381

                     34                     35                     36
                      A                      A                      A
 Frequencies --   1053.2558              1085.3973              1093.1099
 Red. masses --      3.0616                 2.8774                 4.1090
 Frc consts  --      2.0011                 1.9972                 2.8928
 IR Inten    --     40.6700                22.8100                55.7332

                     37                     38                     39
                      A                      A                      A
 Frequencies --   1129.3338              1135.5372              1181.7699
 Red. masses --      1.8796                 2.0130                 1.3842
 Frc consts  --      1.4124                 1.5293                 1.1390
 IR Inten    --      5.0326                47.9486                39.7860

                     40                     41                     42
                      A                      A                      A
 Frequencies --   1184.4819              1187.7407              1244.6236
 Red. masses --      1.2462                 1.3677                 1.6177
 Frc consts  --      1.0301                 1.1368                 1.4765
 IR Inten    --     15.1815                 7.2276                 0.9166

                     43                     44                     45
                      A                      A                      A
 Frequencies --   1282.2684              1322.3485              1340.7136
 Red. masses --      1.6319                 2.9663                 8.8230
 Frc consts  --      1.5809                 3.0561                 9.3442
 IR Inten    --      0.1774               279.4557                87.1673

                     46                     47                     48
                      A                      A                      A
 Frequencies --   1344.6894              1460.7596              1464.0567
 Red. masses --      8.8301                 2.0888                 2.1951
 Frc consts  --      9.4072                 2.6260                 2.7721
 IR Inten    --     43.3079                 3.9740               156.0107

                     49                     50                     51
                      A                      A                      A
 Frequencies --   1486.1494              1494.8502              1582.8358
 Red. masses --      2.3103                 2.2641                 5.8043
 Frc consts  --      3.0064                 2.9809                 8.5678
 IR Inten    --     25.4646                46.5695                 4.1174

                     52                     53                     54
                      A                      A                      A
 Frequencies --   1597.4915              1618.2506              1626.6371
 Red. masses --      6.6141                 6.5976                 5.3554
 Frc consts  --      9.9448                10.1795                 8.3488
 IR Inten    --      0.8716               432.6980               179.9948

                     55                     56                     57
                      A                      A                      A
 Frequencies --   1652.4827              3173.0350              3173.4157
 Red. masses --      8.7258                 1.0875                 1.0873
 Frc consts  --     14.0388                 6.4508                 6.4516
 IR Inten    --    465.7558                 0.7470                 0.7711

                     58                     59                     60
                      A                      A                      A
 Frequencies --   3183.2001              3183.2928              3194.2265
 Red. masses --      1.0904                 1.0905                 1.0946
 Frc consts  --      6.5099                 6.5107                 6.5802
 IR Inten    --     14.8787                 6.0449                22.7565

                     61                     62                     63
                      A                      A                      A
 Frequencies --   3194.4451              3206.5558              3207.0549
 Red. masses --      1.0946                 1.0942                 1.0943
 Frc consts  --      6.5808                 6.6284                 6.6314
 IR Inten    --      8.1438                26.1102                 4.5134

 - Thermochemistry -
 -------------------
 Temperature   298.150 Kelvin.  Pressure   1.00000 Atm.
 Atom     1 has atomic number  8 and mass  15.99491

 Molecular mass:   212.02959 amu.
 Principal axes and moments of inertia in atomic units:
                           1         2         3
     Eigenvalues --  1474.948304258.998405733.94325
           X            0.99371   0.05608   0.09695
           Y           -0.06770   0.99033   0.12109
           Z           -0.08922  -0.12689   0.98790
 This molecule is an asymmetric top.
 Rotational symmetry number  1.
 Warning -- assumption of classical behavior for rotation
           may cause significant error
 Rotational temperatures (Kelvin)      0.05872     0.02034     0.01511
 Rotational constants (GHZ):           1.22360     0.42375     0.31475
 Zero-point vibrational energy     447430.1 (Joules/Mol)
                                  106.93836 (Kcal/Mol)
 Warning -- explicit consideration of  16 degrees of freedom as
           vibrations may cause significant error
 Vibrational temperatures:     50.61   146.72   187.33   285.02   325.45
          (Kelvin)            330.78   474.59   484.24   592.69   597.37
                              647.33   648.03   692.00   706.63   719.99
                              852.69   921.46   975.05   975.49  1032.94
                             1065.25  1070.00  1112.70  1127.71  1181.12
                             1267.45  1271.38  1349.63  1423.56  1426.45
                             1460.22  1461.12  1510.37  1515.40  1561.64
                             1572.74  1624.86  1633.78  1700.30  1704.21
                             1708.89  1790.74  1844.90  1902.56  1928.99
                             1934.71  2101.71  2106.45  2138.24  2150.76
                             2277.35  2298.43  2328.30  2340.37  2377.55
                             4565.29  4565.84  4579.91  4580.05  4595.78
                             4596.09  4613.52  4614.24

 Zero-point correction=                           0.170417 (Hartree/Particle)
 Thermal correction to Energy=                    0.181397
 Thermal correction to Enthalpy=                  0.182341
 Thermal correction to Gibbs Free Energy=         0.132844
 Sum of electronic and zero-point Energies=           -973.639205
 Sum of electronic and thermal Energies=              -973.628225
 Sum of electronic and thermal Enthalpies=            -973.627280
 Sum of electronic and thermal Free Energies=         -973.676778

                     E (Thermal)             CV                S
                      KCal/Mol        Cal/Mol-Kelvin    Cal/Mol-Kelvin
 Total                  113.828             44.593            104.177
 Electronic               0.000              0.000              0.000
 Translational            0.889              2.981             41.958
 Rotational               0.889              2.981             31.955
 Vibrational            112.051             38.631             30.264
 Vibration     1          0.594              1.982              5.514
 Vibration     2          0.604              1.948              3.416
 Vibration     3          0.612              1.923              2.943
 Vibration     4          0.637              1.843              2.151
 Vibration     5          0.650              1.801              1.909
 Vibration     6          0.652              1.795              1.880
 Vibration     7          0.713              1.616              1.261
 Vibration     8          0.717              1.602              1.228
 Vibration     9          0.776              1.444              0.920
 Vibration    10          0.779              1.437              0.908
 Vibration    11          0.809              1.361              0.796
 Vibration    12          0.809              1.360              0.795
 Vibration    13          0.837              1.292              0.707
 Vibration    14          0.847              1.270              0.681
 Vibration    15          0.856              1.249              0.657
 Vibration    16          0.950              1.047              0.462

 Optimization completed.
    -- Stationary point found.
 Normal termination of Gaussian 16 at Sun Feb 11 15:58:01 2024.
