 Q-Chem 5.4, Q-Chem, Inc., Pleasanton, CA (2021)
 Q-Chem 5.4.0 for Intel X86 EM64T Linux

User input:
--------------------------------------------------------------
$molecule
0 1
O                 -4.3298700000      0.9556830000     -1.5405240000
C                 -3.1797850000      0.5540840000     -0.9449530000
C                 -1.9149240000      0.9696140000     -1.3719420000
C                 -0.7658400000      0.5308590000     -0.7294360000
C                  0.5575470000      0.9970770000     -1.2158980000
O                  0.6607200000      1.7569250000     -2.1671940000
C                  1.7662890000      0.4974440000     -0.4917240000
C                  3.0314580000      0.9106500000     -0.9154550000
C                  4.1715700000      0.4599800000     -0.2582910000
C                  4.0575560000     -0.4088050000      0.8296510000
C                  2.8029800000     -0.8263720000      1.2597050000
C                  1.6525470000     -0.3777640000      0.6043660000
C                  0.3208460000     -0.8335600000      1.0767910000
O                  0.2230290000     -1.6060190000      2.0441840000
C                 -0.8620850000     -0.3486890000      0.3734570000
C                 -2.1395470000     -0.7626120000      0.7973750000
O                 -2.3418010000     -1.5972460000      1.8353670000
C                 -3.2987670000     -0.3160850000      0.1442660000
O                 -4.5189820000     -0.7197540000      0.5596860000
H                 -4.1269570000      1.5483350000     -2.2727490000
H                 -1.8123660000      1.6440550000     -2.2154290000
H                  3.0974740000      1.5843400000     -1.7607810000
H                  5.1506360000      0.7843950000     -0.5920530000
H                  4.9475300000     -0.7586120000      1.3401200000
H                  2.6918330000     -1.4993260000      2.1006690000
H                 -1.4465250000     -1.8272030000      2.1946970000
H                 -4.3945640000     -1.3113950000      1.3160950000
$end
$rem
MAX_SCF_CYCLES=200
BASIS  =  6-311++G(d,p)
GUI  =  2
JOB_TYPE  =  SP
METHOD  =  B3LYP
SOLVENT_METHOD = PCM
$end
$pcm
theory = CPCM
$end
$solvent
dielectric 37.219
opticaldielectric 1.43
$end

--------------------------------------------------------------

             Standard Nuclear Orientation (Angstroms)
    I     Atom           X                Y                Z
 ----------------------------------------------------------------
    1      O      -4.3298700000     0.9556830000    -1.5405240000
    2      C      -3.1797850000     0.5540840000    -0.9449530000
    3      C      -1.9149240000     0.9696140000    -1.3719420000
    4      C      -0.7658400000     0.5308590000    -0.7294360000
    5      C       0.5575470000     0.9970770000    -1.2158980000
    6      O       0.6607200000     1.7569250000    -2.1671940000
    7      C       1.7662890000     0.4974440000    -0.4917240000
    8      C       3.0314580000     0.9106500000    -0.9154550000
    9      C       4.1715700000     0.4599800000    -0.2582910000
   10      C       4.0575560000    -0.4088050000     0.8296510000
   11      C       2.8029800000    -0.8263720000     1.2597050000
   12      C       1.6525470000    -0.3777640000     0.6043660000
   13      C       0.3208460000    -0.8335600000     1.0767910000
   14      O       0.2230290000    -1.6060190000     2.0441840000
   15      C      -0.8620850000    -0.3486890000     0.3734570000
   16      C      -2.1395470000    -0.7626120000     0.7973750000
   17      O      -2.3418010000    -1.5972460000     1.8353670000
   18      C      -3.2987670000    -0.3160850000     0.1442660000
   19      O      -4.5189820000    -0.7197540000     0.5596860000
   20      H      -4.1269570000     1.5483350000    -2.2727490000
   21      H      -1.8123660000     1.6440550000    -2.2154290000
   22      H       3.0974740000     1.5843400000    -1.7607810000
   23      H       5.1506360000     0.7843950000    -0.5920530000
   24      H       4.9475300000    -0.7586120000     1.3401200000
   25      H       2.6918330000    -1.4993260000     2.1006690000
   26      H      -1.4465250000    -1.8272030000     2.1946970000
   27      H      -4.3945640000    -1.3113950000     1.3160950000
 ----------------------------------------------------------------

    8    -914.7310687471      9.75e-06  Convergence criterion met
 Total energy in the final basis set =     -914.7310687471

                    Orbital Energies (a.u.)
 --------------------------------------------------------------

 Alpha MOs
 -- Occupied --
-19.1766 -19.1762 -19.1714 -19.1397 -19.1299 -10.2895 -10.2832 -10.2691
-10.2670 -10.2598 -10.2099 -10.2097 -10.2087 -10.2074 -10.1981 -10.1977
-10.1974 -10.1968 -10.1965  -1.1095  -1.0919  -1.0778  -1.0648  -1.0605
 -0.8951  -0.8802  -0.8125  -0.7804  -0.7737  -0.7706  -0.6964  -0.6877
 -0.6576  -0.6366  -0.6024  -0.5914  -0.5819  -0.5570  -0.5357  -0.5276
 -0.5115  -0.4970  -0.4777  -0.4763  -0.4633  -0.4580  -0.4545  -0.4512
 -0.4480  -0.4350  -0.4287  -0.4104  -0.4019  -0.3988  -0.3932  -0.3897
 -0.3810  -0.3779  -0.3683  -0.3403  -0.2967  -0.2860  -0.2799  -0.2791
 -0.2539  -0.2404

          Ground-State Mulliken Net Atomic Charges

     Atom                 Charge (a.u.)
  ----------------------------------------
      1 O                    -0.284853
      2 C                    -0.457346
      3 C                     0.189386
      4 C                     0.847071
      5 C                    -0.609416
      6 O                    -0.295626
      7 C                    -0.076361
      8 C                     0.158360
      9 C                    -0.467715
     10 C                    -0.463263
     11 C                     0.164192
     12 C                     0.170973
     13 C                    -0.405951
     14 O                    -0.332548
     15 C                     0.678500
     16 C                     0.063561
     17 O                    -0.381814
     18 C                    -0.286593
     19 O                    -0.299274
     20 H                     0.337843
     21 H                     0.191112
     22 H                     0.193852
     23 H                     0.224702
     24 H                     0.223863
     25 H                     0.201875
     26 H                     0.378308
     27 H                     0.337162
  ----------------------------------------
  Sum of atomic charges =     0.000000

                    Cartesian Multipole Moments
 -----------------------------------------------------------------
    Charge (ESU x 10^10)
                 0.0000
    Dipole Moment (Debye)
         X       3.0556      Y       0.2994      Z      -0.1403
       Tot       3.0734
    Quadrupole Moments (Debye-Ang)
        XX     -97.6487     XY      -4.4643     YY    -110.0071
        XZ       6.6154     YZ      -0.8796     ZZ    -108.8029

 Total job time:  50.10s(wall), 342.13s(cpu)
        *  Thank you very much for using Q-Chem.  Have a nice day.  *
