 Gaussian 16, Revision A.03,
 Gaussian 16:  ES64L-G16RevA.03 25-Dec-2016

 ----------------------------------------------------------------
 #P UB3LYP/6-311++G(d,p) SCRF=(PCM,Solvent=n,n-DiMethylFormamide)
 ----------------------------------------------------------------

 ------------------
 Quinone PCM in DMF
 ------------------
 Symbolic Z-matrix:
 Charge =  0 Multiplicity = 1

                         Standard orientation:
 ---------------------------------------------------------------------
 Center     Atomic      Atomic             Coordinates (Angstroms)
 Number     Number       Type             X           Y           Z
 ---------------------------------------------------------------------
      1          8           0       -4.055409    1.747704    0.000177
      2          6           0       -2.891093    1.052686    0.000056
      3          6           0       -1.635843    1.668483   -0.000022
      4          6           0       -0.471430    0.913594   -0.000075
      5          6           0        0.840975    1.608542   -0.000157
      6          8           0        0.921963    2.827730   -0.000206
      7          6           0        2.066974    0.752947   -0.000078
      8          6           0        3.322615    1.364752    0.000030
      9          6           0        4.478402    0.590815    0.000170
     10          6           0        4.389759   -0.803297    0.000198
     11          6           0        3.144862   -1.422571    0.000090
     12          6           0        1.978794   -0.651533   -0.000038
     13          6           0        0.657741   -1.329162   -0.000104
     14          8           0        0.582480   -2.568697   -0.000201
     15          6           0       -0.541950   -0.498591   -0.000051
     16          6           0       -1.809878   -1.111214   -0.000016
     17          8           0       -1.987953   -2.446593   -0.000003
     18          6           0       -2.984677   -0.343376    0.000031
     19          8           0       -4.195540   -0.941923    0.000082
     20          1           0       -3.869530    2.693227    0.000321
     21          1           0       -1.552951    2.750142   -0.000043
     22          1           0        3.368912    2.446718    0.000031
     23          1           0        5.449958    1.071742    0.000265
     24          1           0        5.291910   -1.404229    0.000303
     25          1           0        3.053320   -2.501488    0.000122
     26          1           0       -1.084032   -2.854570   -0.000058
     27          1           0       -4.053426   -1.899774    0.000051
 ---------------------------------------------------------------------

 SCF Done:  E(UB3LYP) =  -914.723764713     A.U. after   15 cycles

 The electronic state is 1-A.
 Alpha  occ. eigenvalues --  -19.18087 -19.17908 -19.17392 -19.14174 -19.13098
 Alpha  occ. eigenvalues --  -10.29142 -10.28444 -10.27152 -10.26994 -10.26233
 Alpha  occ. eigenvalues --  -10.21225 -10.21221 -10.21098 -10.20982 -10.20145
 Alpha  occ. eigenvalues --  -10.20084 -10.20060 -10.20001 -10.19948  -1.11242
 Alpha  occ. eigenvalues --   -1.09552  -1.08087  -1.06574  -1.06265  -0.89758
 Alpha  occ. eigenvalues --   -0.88285  -0.81521  -0.78293  -0.77641  -0.77342
 Alpha  occ. eigenvalues --   -0.69900  -0.69075  -0.66030  -0.63963  -0.60553
 Alpha  occ. eigenvalues --   -0.59511  -0.58495  -0.55970  -0.53843  -0.53029
 Alpha  occ. eigenvalues --   -0.51456  -0.49946  -0.48005  -0.47913  -0.46481
 Alpha  occ. eigenvalues --   -0.46068  -0.45689  -0.45416  -0.45007  -0.43787
 Alpha  occ. eigenvalues --   -0.43060  -0.41272  -0.40457  -0.40162  -0.39620
 Alpha  occ. eigenvalues --   -0.39211  -0.38413  -0.38019  -0.37139  -0.34244
 Alpha  occ. eigenvalues --   -0.29833  -0.28826  -0.28145  -0.28107  -0.25655
 Alpha  occ. eigenvalues --   -0.24279
 Alpha virt. eigenvalues --   -0.12155  -0.07160  -0.03277  -0.02118  -0.01434
 Alpha virt. eigenvalues --   -0.00245   0.00237   0.01598   0.01683   0.03189
 Alpha virt. eigenvalues --    0.03518   0.03776   0.04208   0.04296   0.04469

  Beta  occ. eigenvalues --  -19.18087 -19.17908 -19.17392 -19.14174 -19.13098
  Beta  occ. eigenvalues --  -10.29142 -10.28444 -10.27152 -10.26994 -10.26233
  Beta  occ. eigenvalues --  -10.21225 -10.21221 -10.21098 -10.20982 -10.20145
  Beta  occ. eigenvalues --  -10.20084 -10.20060 -10.20001 -10.19948  -1.11242
  Beta  occ. eigenvalues --   -1.09552  -1.08087  -1.06574  -1.06265  -0.89758
  Beta  occ. eigenvalues --   -0.88285  -0.81521  -0.78293  -0.77641  -0.77342
  Beta  occ. eigenvalues --   -0.69900  -0.69075  -0.66030  -0.63963  -0.60553
  Beta  occ. eigenvalues --   -0.59511  -0.58495  -0.55970  -0.53843  -0.53029
  Beta  occ. eigenvalues --   -0.51456  -0.49946  -0.48005  -0.47913  -0.46481
  Beta  occ. eigenvalues --   -0.46068  -0.45689  -0.45416  -0.45007  -0.43787
  Beta  occ. eigenvalues --   -0.43060  -0.41272  -0.40457  -0.40162  -0.39620
  Beta  occ. eigenvalues --   -0.39211  -0.38413  -0.38019  -0.37139  -0.34244
  Beta  occ. eigenvalues --   -0.29833  -0.28826  -0.28145  -0.28107  -0.25655
  Beta  occ. eigenvalues --   -0.24279
  Beta virt. eigenvalues --   -0.12155  -0.07160  -0.03277  -0.02118  -0.01434
  Beta virt. eigenvalues --   -0.00245   0.00237   0.01598   0.01683   0.03189
  Beta virt. eigenvalues --    0.03518   0.03776   0.04208   0.04296   0.04469

 Mulliken charges and spin densities:
               1          2
     1  O   -0.265358   0.000000
     2  C   -0.417432  -0.000000
     3  C    0.188686  -0.000000
     4  C    0.842857   0.000000
     5  C   -0.643862  -0.000000
     6  O   -0.279652   0.000000
     7  C   -0.069424   0.000000
     8  C    0.167508  -0.000000
     9  C   -0.452076  -0.000000
    10  C   -0.453876  -0.000000
    11  C    0.179147  -0.000000
    12  C    0.185613  -0.000000
    13  C   -0.423585  -0.000000
    14  O   -0.319599   0.000000
    15  C    0.673224   0.000000
    16  C    0.054155   0.000000
    17  O   -0.372723  -0.000000
    18  C   -0.281402   0.000000
    19  O   -0.284437  -0.000000
    20  H    0.318503  -0.000000
    21  H    0.172859   0.000000
    22  H    0.183398   0.000000
    23  H    0.209141   0.000000
    24  H    0.208024  -0.000000
    25  H    0.191000   0.000000
    26  H    0.366800   0.000000
    27  H    0.322508   0.000000
 Sum of Mulliken charges =  -0.00000  -0.00000

 Dipole moment (field-independent basis, Debye):
    X=              3.0213    Y=              0.3149    Z=              0.0009  Tot=              3.0376
 Quadrupole moment (field-independent basis, Debye-Ang):
   XX=            -96.2147   YY=           -108.9535   ZZ=           -110.3189
   XY=             -7.2083   XZ=              0.0014   YZ=              0.0012

 Normal termination of Gaussian 16 at Tue Jan 16 05:07:47 2024.
