 Q-Chem 5.4, Q-Chem, Inc., Pleasanton, CA (2021)
 Q-Chem 5.4.0 for Intel X86 EM64T Linux

User input:
--------------------------------------------------------------
$molecule
0 1
C                 -0.2813380000      3.8277270000     -0.2049140000
C                 -1.5009200000      3.2198460000     -0.4864350000
C                 -1.5400720000      1.8765220000     -0.8646210000
C                  0.8997580000      3.0882560000     -0.3029590000
C                  0.8636270000      1.7366020000     -0.6829820000
C                 -0.3629890000      1.1367190000     -0.9624350000
C                  2.1997990000      3.7173910000     -0.0075430000
C                  3.4307270000      2.8850750000     -0.1329490000
C                  3.4206310000      1.5766590000     -0.4882910000
C                  2.1269150000      0.9294730000     -0.7915690000
O                  2.3341060000      4.8866400000      0.3359000000
O                  2.0753700000     -0.2466970000     -1.1235150000
H                 -0.2253940000      4.8681840000      0.0908860000
H                 -2.4196620000      3.7899910000     -0.4119590000
H                 -2.4912770000      1.4047620000     -1.0836670000
H                 -0.3754750000      0.0939320000     -1.2542270000
O                  4.5657480000      3.5464040000      0.1466590000
C                  4.6791100000      0.7656340000     -0.6178520000
C                  5.2488300000      0.7709920000     -2.0528590000
C                  6.5256330000     -0.0661040000     -2.1807230000
C                  7.1095400000     -0.0701350000     -3.5980000000
C                  8.3873180000     -0.9064920000     -3.7316810000
H                  4.2974540000      4.4540190000      0.3856990000
H                  4.4582660000     -0.2649000000     -0.3289120000
H                  5.4313590000      1.1592710000      0.0705050000
H                  5.4555290000      1.8044800000     -2.3532190000
H                  4.4877560000      0.3860090000     -2.7397860000
H                  6.3129610000     -1.0977860000     -1.8730840000
H                  7.2797360000      0.3134420000     -1.4791800000
H                  7.3193890000      0.9624430000     -3.9057270000
H                  6.3543780000     -0.4487840000     -4.2987050000
H                  8.1772250000     -1.9389630000     -3.4236830000
H                  9.1421400000     -0.5282620000     -3.0300210000
C                  8.9725800000     -0.9115720000     -5.1482150000
H                  9.1829830000      0.1208190000     -5.4571240000
H                  8.2182040000     -1.2898720000     -5.8505250000
C                 10.2503030000     -1.7475690000     -5.2840620000
C                 10.8273250000     -1.7464010000     -6.7027160000
H                 10.0403380000     -2.7792540000     -4.9763550000
H                 11.0045320000     -1.3696180000     -4.5830070000
H                 10.1088680000     -2.1519100000     -7.4222460000
H                 11.7366290000     -2.3507670000     -6.7656210000
H                 11.0802730000     -0.7315760000     -7.0260000000
$end
$rem
MAX_SCF_CYCLES=200
BASIS  =  6-311++G(d,p)
GUI  =  2
JOB_TYPE  =  SP
METHOD  =  B3LYP
SCF_ALGORITHM = DIIS_GDM
THRESH = 14
SOLVENT_METHOD = PCM
$end
$pcm
theory = CPCM
$end
$solvent
dielectric 37.219
opticaldielectric 1.43
$end

--------------------------------------------------------------

             Standard Nuclear Orientation (Angstroms)
    I     Atom           X                Y                Z
 ----------------------------------------------------------------
    1      C      -0.2813380000     3.8277270000    -0.2049140000
    2      C      -1.5009200000     3.2198460000    -0.4864350000
    3      C      -1.5400720000     1.8765220000    -0.8646210000
    4      C       0.8997580000     3.0882560000    -0.3029590000
    5      C       0.8636270000     1.7366020000    -0.6829820000
    6      C      -0.3629890000     1.1367190000    -0.9624350000
    7      C       2.1997990000     3.7173910000    -0.0075430000
    8      C       3.4307270000     2.8850750000    -0.1329490000
    9      C       3.4206310000     1.5766590000    -0.4882910000
   10      C       2.1269150000     0.9294730000    -0.7915690000
   11      O       2.3341060000     4.8866400000     0.3359000000
   12      O       2.0753700000    -0.2466970000    -1.1235150000
   13      H      -0.2253940000     4.8681840000     0.0908860000
   14      H      -2.4196620000     3.7899910000    -0.4119590000
   15      H      -2.4912770000     1.4047620000    -1.0836670000
   16      H      -0.3754750000     0.0939320000    -1.2542270000
   17      O       4.5657480000     3.5464040000     0.1466590000
   18      C       4.6791100000     0.7656340000    -0.6178520000
   19      C       5.2488300000     0.7709920000    -2.0528590000
   20      C       6.5256330000    -0.0661040000    -2.1807230000
   21      C       7.1095400000    -0.0701350000    -3.5980000000
   22      C       8.3873180000    -0.9064920000    -3.7316810000
   23      H       4.2974540000     4.4540190000     0.3856990000
   24      H       4.4582660000    -0.2649000000    -0.3289120000
   25      H       5.4313590000     1.1592710000     0.0705050000
   26      H       5.4555290000     1.8044800000    -2.3532190000
   27      H       4.4877560000     0.3860090000    -2.7397860000
   28      H       6.3129610000    -1.0977860000    -1.8730840000
   29      H       7.2797360000     0.3134420000    -1.4791800000
   30      H       7.3193890000     0.9624430000    -3.9057270000
   31      H       6.3543780000    -0.4487840000    -4.2987050000
   32      H       8.1772250000    -1.9389630000    -3.4236830000
   33      H       9.1421400000    -0.5282620000    -3.0300210000
   34      C       8.9725800000    -0.9115720000    -5.1482150000
   35      H       9.1829830000     0.1208190000    -5.4571240000
   36      H       8.2182040000    -1.2898720000    -5.8505250000
   37      C      10.2503030000    -1.7475690000    -5.2840620000
   38      C      10.8273250000    -1.7464010000    -6.7027160000
   39      H      10.0403380000    -2.7792540000    -4.9763550000
   40      H      11.0045320000    -1.3696180000    -4.5830070000
   41      H      10.1088680000    -2.1519100000    -7.4222460000
   42      H      11.7366290000    -2.3507670000    -6.7656210000
   43      H      11.0802730000    -0.7315760000    -7.0260000000
 ----------------------------------------------------------------

   16    -925.1331879429      7.07e-06  Convergence criterion met
 Total energy in the final basis set =     -925.1331879429

                    Orbital Energies (a.u.)
 --------------------------------------------------------------

 Alpha MOs
 -- Occupied --
-19.1779 -19.1494 -19.1298 -10.2934 -10.2811 -10.2668 -10.2104 -10.2092
-10.2032 -10.2004 -10.1984 -10.1968 -10.1967 -10.1748 -10.1654 -10.1590
-10.1584 -10.1572 -10.1563 -10.1559 -10.1520  -1.1081  -1.0671  -1.0636
 -0.8923  -0.8435  -0.8089  -0.7941  -0.7799  -0.7746  -0.7458  -0.7117
 -0.6883  -0.6605  -0.6492  -0.6224  -0.6047  -0.5924  -0.5745  -0.5733
 -0.5707  -0.5422  -0.5182  -0.4974  -0.4813  -0.4770  -0.4714  -0.4679
 -0.4616  -0.4521  -0.4478  -0.4373  -0.4284  -0.4250  -0.4209  -0.4188
 -0.4064  -0.4056  -0.3914  -0.3864  -0.3802  -0.3770  -0.3707  -0.3611
 -0.3559  -0.3551  -0.3330  -0.3329  -0.3217  -0.3207  -0.3169  -0.3086
 -0.3021  -0.2895  -0.2800  -0.2795  -0.2560

          Ground-State Mulliken Net Atomic Charges

     Atom                 Charge (a.u.)
  ----------------------------------------
      1 C                     0.156142
      2 C                    -0.393978
      3 C                    -0.422471
      4 C                     0.534446
      5 C                    -0.137850
      6 C                     0.157207
      7 C                    -0.810074
      8 C                    -0.433038
      9 C                     1.890275
     10 C                    -0.744542
     11 O                    -0.323257
     12 O                    -0.294415
     13 H                     0.202914
     14 H                     0.227167
     15 H                     0.223028
     16 H                     0.202377
     17 O                    -0.235260
     18 C                    -0.404236
     19 C                    -0.724032
     20 C                    -0.120774
     21 C                     0.009080
     22 C                    -0.131091
     23 H                     0.321280
     24 H                     0.222606
     25 H                     0.238409
     26 H                     0.182501
     27 H                     0.183111
     28 H                     0.126108
     29 H                     0.123292
     30 H                     0.131811
     31 H                     0.132242
     32 H                     0.134411
     33 H                     0.134164
     34 C                    -0.352616
     35 H                     0.129179
     36 H                     0.128895
     37 C                    -0.265937
     38 C                    -0.707483
     39 H                     0.135368
     40 H                     0.135337
     41 H                     0.144931
     42 H                     0.150042
     43 H                     0.144731
  ----------------------------------------
  Sum of atomic charges =     0.000000

                    Cartesian Multipole Moments
 -----------------------------------------------------------------
    Charge (ESU x 10^10)
                -0.0000
    Dipole Moment (Debye)
         X      -2.6508      Y       1.5327      Z       0.0390
       Tot       3.0622
    Quadrupole Moments (Debye-Ang)
        XX    -121.5200     XY      -4.1792     YY    -130.3905
        XZ       2.5909     YZ      -2.6323     ZZ    -131.1965

 Total job time:  269.53s(wall), 1931.10s(cpu)
        *  Thank you very much for using Q-Chem.  Have a nice day.  *
