 Gaussian 16, Revision A.03,
 Gaussian 16:  ES64L-G16RevA.03 25-Dec-2016

 ----------------------------------------------
 #P UB3LYP/6-311++G(d,p) nosym opt freq SCF=YQC
 ----------------------------------------------

 -------
 Reduced
 -------
 Symbolic Z-matrix:
 Charge = -2 Multiplicity = 1

 SCF Done:  E(UB3LYP) =  -918.004068901     a.u. after    9 cycles
 SCF Done:  E(UB3LYP) =  -918.010452189     A.U. after   33 cycles
 SCF Done:  E(UB3LYP) =  -918.011177450     a.u. after    8 cycles
 SCF Done:  E(UB3LYP) =  -918.062204644     a.u. after   25 cycles
 SCF Done:  E(UB3LYP) =  -918.062710377     A.U. after   33 cycles
 SCF Done:  E(UB3LYP) =  -918.062710377     a.u. after    1 cycles
 SCF Done:  E(UB3LYP) =  -918.107679006     a.u. after   37 cycles
 SCF Done:  E(UB3LYP) =  -918.109428510     A.U. after   25 cycles
 SCF Done:  E(UB3LYP) =  -918.120130280     a.u. after   25 cycles
 SCF Done:  E(UB3LYP) =  -918.120199107     A.U. after   16 cycles
 SCF Done:  E(UB3LYP) =  -918.126312941     a.u. after    2 cycles
 SCF Done:  E(UB3LYP) =  -918.126336204     A.U. after   15 cycles
 SCF Done:  E(UB3LYP) =  -918.126293731     a.u. after    1 cycles
 SCF Done:  E(UB3LYP) =  -918.126337157     A.U. after   14 cycles
 SCF Done:  E(UB3LYP) =  -918.126333717     a.u. after    1 cycles
 SCF Done:  E(UB3LYP) =  -918.126337399     A.U. after   14 cycles
 SCF Done:  E(UB3LYP) =  -918.126336341     a.u. after    1 cycles
 SCF Done:  E(UB3LYP) =  -918.126337449     A.U. after   13 cycles
 Optimization completed.
    -- Stationary point found.
 Normal termination of Gaussian 16 at Fri Dec 22 13:22:48 2023.

 ----------------------------------------------------------------------
 #P Geom=AllCheck Guess=TCheck SCRF=Check GenChk UB3LYP/6-311++G(d,p) F
 req
 ----------------------------------------------------------------------

 Structure from the checkpoint file:  "197-an.chk"
 -------
 Reduced
 -------
 Charge = -2 Multiplicity = 1

                          Input orientation:
 ---------------------------------------------------------------------
 Center     Atomic      Atomic             Coordinates (Angstroms)
 Number     Number       Type             X           Y           Z
 ---------------------------------------------------------------------
      1          6           0       -4.010595   -1.025921    0.241976
      2          6           0       -2.627487   -0.420350    0.247749
      3          6           0       -2.454528    0.997280    0.424625
      4          6           0       -3.653999    1.896126    0.606579
      5          6           0       -1.184099    1.546230    0.429216
      6          8           0       -1.005242    2.890063    0.596201
      7          6           0       -0.015667    0.720291    0.258671
      8          6           0        1.284125    1.323927    0.269048
      9          8           0        1.431671    2.626587    0.432392
     10          6           0        2.400416    0.453074    0.095314
     11          6           0        3.724035    0.972487    0.093511
     12          6           0        4.827731    0.165143   -0.071222
     13          6           0        4.656143   -1.241583   -0.247243
     14          6           0        3.388284   -1.779780   -0.250819
     15          6           0        2.225833   -0.978249   -0.083683
     16          6           0        0.930421   -1.575539   -0.093368
     17          8           0        0.760587   -2.875536   -0.255089
     18          6           0       -0.188612   -0.697320    0.081606
     19          6           0       -1.523952   -1.238832    0.081657
     20          8           0       -1.673719   -2.586192   -0.087009
     21          1           0       -3.939276   -2.104692    0.095546
     22          1           0       -4.644294   -0.614264   -0.558862
     23          1           0       -4.550670   -0.844781    1.184284
     24          1           0       -4.248899    1.625807    1.492830
     25          1           0       -3.324863    2.929757    0.723186
     26          1           0       -4.343541    1.852560   -0.250754
     27          1           0        0.037255    2.997628    0.555079
     28          1           0        3.826265    2.044572    0.229205
     29          1           0        5.827827    0.595148   -0.067649
     30          1           0        5.525443   -1.883749   -0.377820
     31          1           0        3.229719   -2.845480   -0.382624
     32          1           0       -0.686313   -2.924415   -0.184085
 ---------------------------------------------------------------------

 SCF Done:  E(UB3LYP) =  -918.126337449     a.u. after    1 cycles
 SCF Done:  E(UB3LYP) =  -918.126337449     A.U. after    1 cycles

 Alpha  occ. eigenvalues --  -18.85617 -18.85605 -18.80392 -18.80387  -9.96379
 Alpha  occ. eigenvalues --   -9.96377  -9.95067  -9.95064  -9.94535  -9.94534
 Alpha  occ. eigenvalues --   -9.93539  -9.93497  -9.92898  -9.92897  -9.91868
 Alpha  occ. eigenvalues --   -9.91829  -9.91216  -9.91179  -9.91134  -9.91094
 Alpha  occ. eigenvalues --   -0.77476  -0.77296  -0.70932  -0.70656  -0.60576
 Alpha  occ. eigenvalues --   -0.59092  -0.54762  -0.50947  -0.50409  -0.50270
 Alpha  occ. eigenvalues --   -0.45338  -0.44471  -0.40342  -0.37283  -0.36553
 Alpha  occ. eigenvalues --   -0.32869  -0.31483  -0.28553  -0.26383  -0.24844
 Alpha  occ. eigenvalues --   -0.24376  -0.21493  -0.21038  -0.20839  -0.20170
 Alpha  occ. eigenvalues --   -0.19240  -0.18067  -0.18011  -0.16991  -0.16052
 Alpha  occ. eigenvalues --   -0.15497  -0.14850  -0.14824  -0.13473  -0.12737
 Alpha  occ. eigenvalues --   -0.12456  -0.12238  -0.11037  -0.09622  -0.09425
 Alpha  occ. eigenvalues --   -0.08427  -0.08332  -0.07220  -0.03247  -0.00904
 Alpha  occ. eigenvalues --    0.00188   0.01253   0.01696   0.02415   0.05381
 Alpha  occ. eigenvalues --    0.11961
 Alpha virt. eigenvalues --    0.15587   0.15754   0.17504   0.17535   0.18887
 Alpha virt. eigenvalues --    0.19752   0.20423   0.20438   0.20927   0.21306
 Alpha virt. eigenvalues --    0.22244   0.22391   0.22655   0.24397   0.24974

  Beta  occ. eigenvalues --  -18.85617 -18.85605 -18.80392 -18.80387  -9.96379
  Beta  occ. eigenvalues --   -9.96377  -9.95067  -9.95064  -9.94535  -9.94534
  Beta  occ. eigenvalues --   -9.93539  -9.93497  -9.92898  -9.92897  -9.91868
  Beta  occ. eigenvalues --   -9.91829  -9.91216  -9.91179  -9.91134  -9.91094
  Beta  occ. eigenvalues --   -0.77476  -0.77296  -0.70932  -0.70656  -0.60576
  Beta  occ. eigenvalues --   -0.59092  -0.54762  -0.50947  -0.50409  -0.50270
  Beta  occ. eigenvalues --   -0.45338  -0.44471  -0.40342  -0.37283  -0.36553
  Beta  occ. eigenvalues --   -0.32869  -0.31483  -0.28553  -0.26383  -0.24844
  Beta  occ. eigenvalues --   -0.24376  -0.21493  -0.21038  -0.20839  -0.20170
  Beta  occ. eigenvalues --   -0.19240  -0.18067  -0.18011  -0.16991  -0.16052
  Beta  occ. eigenvalues --   -0.15497  -0.14850  -0.14824  -0.13473  -0.12737
  Beta  occ. eigenvalues --   -0.12456  -0.12238  -0.11037  -0.09622  -0.09425
  Beta  occ. eigenvalues --   -0.08427  -0.08332  -0.07220  -0.03247  -0.00904
  Beta  occ. eigenvalues --    0.00188   0.01253   0.01696   0.02415   0.05381
  Beta  occ. eigenvalues --    0.11961
  Beta virt. eigenvalues --    0.15587   0.15754   0.17504   0.17535   0.18887
  Beta virt. eigenvalues --    0.19752   0.20423   0.20438   0.20927   0.21306
  Beta virt. eigenvalues --    0.22244   0.22391   0.22655   0.24397   0.24974

 Mulliken charges and spin densities:
               1          2
     1  C   -0.629736  -0.000000
     2  C    0.617753  -0.000000
     3  C    0.617646  -0.000000
     4  C   -0.630097  -0.000000
     5  C   -0.657152   0.000000
     6  O   -0.497139  -0.000000
     7  C    0.427782  -0.000000
     8  C   -0.418297  -0.000000
     9  O   -0.570632   0.000000
    10  C    0.317996  -0.000000
    11  C   -0.121837   0.000000
    12  C   -0.458638  -0.000000
    13  C   -0.458777   0.000000
    14  C   -0.121592   0.000000
    15  C    0.318143   0.000000
    16  C   -0.419443  -0.000000
    17  O   -0.570386   0.000000
    18  C    0.428315   0.000000
    19  C   -0.656504   0.000000
    20  O   -0.496712   0.000000
    21  H    0.173289  -0.000000
    22  H    0.092121   0.000000
    23  H    0.092192   0.000000
    24  H    0.092169   0.000000
    25  H    0.173327  -0.000000
    26  H    0.092102   0.000000
    27  H    0.423805   0.000000
    28  H    0.131665   0.000000
    29  H    0.076832  -0.000000
    30  H    0.076828  -0.000000
    31  H    0.131663  -0.000000
    32  H    0.423313  -0.000000
 Sum of Mulliken charges =  -2.00000  -0.00000

 Dipole moment (field-independent basis, Debye):
    X=             -4.5598    Y=              0.5170    Z=             -1.2587  Tot=              4.7585
 Quadrupole moment (field-independent basis, Debye-Ang):
   XX=           -191.6491   YY=           -183.6846   ZZ=           -130.8719
   XY=              0.4577   XZ=              2.6159   YZ=             -7.0440

  Exact polarizability: 457.278 -22.043 256.614 -20.111  17.305 137.145
 Approx polarizability: 725.575 -26.631 474.235 -31.047  36.462 214.026

                      1                      2                      3
                      A                      A                      A
 Frequencies --     52.1634                65.1652                78.6311
 Red. masses --      4.9823                 1.1619                 3.1628
 Frc consts  --      0.0080                 0.0029                 0.0115
 IR Inten    --      2.6324                 0.0002                 0.0000

                      4                      5                      6
                      A                      A                      A
 Frequencies --    112.1215               128.5174               137.9862
 Red. masses --      7.1847                 3.5076                 1.1081
 Frc consts  --      0.0532                 0.0341                 0.0124
 IR Inten    --      0.0176                 0.0002                 0.8527

                      7                      8                      9
                      A                      A                      A
 Frequencies --    148.8560               172.3643               192.0968
 Red. masses --      5.0775                 6.4611                 4.4491
 Frc consts  --      0.0663                 0.1131                 0.0967
 IR Inten    --      0.0000                 1.2598                 1.7136

                     10                     11                     12
                      A                      A                      A
 Frequencies --    205.6253               295.1793               302.9023
 Red. masses --      4.5402                 4.1480                 2.7627
 Frc consts  --      0.1131                 0.2129                 0.1493
 IR Inten    --      0.5617                 0.8452                17.4026

                     13                     14                     15
                      A                      A                      A
 Frequencies --    312.8318               337.2699               367.7481
 Red. masses --      5.1673                 5.3749                 4.6199
 Frc consts  --      0.2979                 0.3602                 0.3681
 IR Inten    --      4.7586                 8.0513                15.6013

                     16                     17                     18
                      A                      A                      A
 Frequencies --    377.1760               380.1480               402.0847
 Red. masses --      8.3807                 8.6942                 7.3088
 Frc consts  --      0.7025                 0.7403                 0.6962
 IR Inten    --      0.3987                 0.0013                 0.7047

                     19                     20                     21
                      A                      A                      A
 Frequencies --    403.2836               428.8242               447.2758
 Red. masses --      7.0756                 7.1383                 3.2477
 Frc consts  --      0.6780                 0.7734                 0.3828
 IR Inten    --      0.0007                93.9785                 9.0329

                     22                     23                     24
                      A                      A                      A
 Frequencies --    490.9008               524.4443               524.4576
 Red. masses --     11.0410                 6.2885                 6.7915
 Frc consts  --      1.5676                 1.0191                 1.1006
 IR Inten    --      0.0332                 9.9394                12.6316

                     25                     26                     27
                      A                      A                      A
 Frequencies --    533.8700               542.3452               631.3792
 Red. masses --      5.3913                 7.2890                 4.2156
 Frc consts  --      0.9054                 1.2632                 0.9901
 IR Inten    --     33.8074                 3.4110                13.0987

                     28                     29                     30
                      A                      A                      A
 Frequencies --    635.0924               642.8127               699.5422
 Red. masses --      6.7409                 5.9028                 4.5909
 Frc consts  --      1.6019                 1.4371                 1.3237
 IR Inten    --      3.4704                 0.0000                 4.6000

                     31                     32                     33
                      A                      A                      A
 Frequencies --    711.6840               724.9730               732.1824
 Red. masses --      1.7399                 3.7230                 5.2589
 Frc consts  --      0.5192                 1.1529                 1.6611
 IR Inten    --     60.8079                 0.0000                 2.3696

                     34                     35                     36
                      A                      A                      A
 Frequencies --    758.4611               763.5456               773.2318
 Red. masses --      4.4604                 5.6545                 1.9785
 Frc consts  --      1.5118                 1.9423                 0.6970
 IR Inten    --      4.7910                 4.9089                 0.0000

                     37                     38                     39
                      A                      A                      A
 Frequencies --    819.2175               886.0017               922.9111
 Red. masses --      4.3567                 5.0859                 5.8949
 Frc consts  --      1.7227                 2.3523                 2.9583
 IR Inten    --      0.0000                 1.4733               134.8053

                     40                     41                     42
                      A                      A                      A
 Frequencies --    946.8890               950.0329               953.2586
 Red. masses --      2.3710                 1.2280                 1.3596
 Frc consts  --      1.2525                 0.6530                 0.7279
 IR Inten    --     42.3038                 0.0046                 3.9652

                     43                     44                     45
                      A                      A                      A
 Frequencies --   1005.3047              1034.1270              1034.8733
 Red. masses --      2.2834                 1.3839                 2.1060
 Frc consts  --      1.3597                 0.8719                 1.3289
 IR Inten    --     82.2988                 0.0169                 0.2914

                     46                     47                     48
                      A                      A                      A
 Frequencies --   1046.7415              1059.0397              1090.7369
 Red. masses --      1.4653                 6.5435                 1.0491
 Frc consts  --      0.9459                 4.3240                 0.7354
 IR Inten    --      0.0009               174.6352                30.1446

                     49                     50                     51
                      A                      A                      A
 Frequencies --   1092.3379              1092.8823              1112.4555
 Red. masses --      2.1454                 1.0545                 1.9855
 Frc consts  --      1.5083                 0.7420                 1.4477
 IR Inten    --     91.5943                88.1100                 0.0031

                     52                     53                     54
                      A                      A                      A
 Frequencies --   1114.5551              1135.5526              1177.0118
 Red. masses --      4.2581                 1.3973                 2.3028
 Frc consts  --      3.1165                 1.0616                 1.8796
 IR Inten    --     44.5787                59.3012               127.6333

                     55                     56                     57
                      A                      A                      A
 Frequencies --   1233.6462              1250.2261              1252.7733
 Red. masses --      4.7248                 2.8179                 5.5311
 Frc consts  --      4.2366                 2.5951                 5.1145
 IR Inten    --    376.6761                 7.9113                 3.8940

                     58                     59                     60
                      A                      A                      A
 Frequencies --   1292.3623              1297.4523              1365.2343
 Red. masses --      6.4667                 3.3067                 1.4627
 Frc consts  --      6.3635                 3.2796                 1.6063
 IR Inten    --    170.1749               147.6654               213.0161

                     61                     62                     63
                      A                      A                      A
 Frequencies --   1367.8982              1381.1773              1390.2183
 Red. masses --      7.4678                 2.5967                 1.6788
 Frc consts  --      8.2328                 2.9185                 1.9116
 IR Inten    --    159.3927                14.0345                 6.6434

                     64                     65                     66
                      A                      A                      A
 Frequencies --   1403.1807              1422.0214              1453.3770
 Red. masses --      2.4363                 7.1202                 4.6704
 Frc consts  --      2.8262                 8.4831                 5.8125
 IR Inten    --    292.6467                 3.8490               545.3885

                     67                     68                     69
                      A                      A                      A
 Frequencies --   1468.1799              1471.6510              1481.4722
 Red. masses --      2.4214                 1.1661                 1.0511
 Frc consts  --      3.0752                 1.4879                 1.3592
 IR Inten    --     14.6891                 1.1293                 0.0003

                     70                     71                     72
                      A                      A                      A
 Frequencies --   1490.6790              1497.8081              1506.9291
 Red. masses --      1.1986                 1.0489                 4.8598
 Frc consts  --      1.5692                 1.3864                 6.5021
 IR Inten    --      0.3732                 5.2570                54.7774

                     73                     74                     75
                      A                      A                      A
 Frequencies --   1527.3834              1573.5328              1586.6346
 Red. masses --      5.0209                 2.7200                 4.9929
 Frc consts  --      6.9013                 3.9679                 7.4055
 IR Inten    --     62.3367               128.3603                 7.2738

                     76                     77                     78
                      A                      A                      A
 Frequencies --   1587.9768              1674.1588              1682.7130
 Red. masses --      4.9394                 1.4735                 1.8602
 Frc consts  --      7.3385                 2.4333                 3.1034
 IR Inten    --    117.4483               355.4756                 5.7138

                     79                     80                     81
                      A                      A                      A
 Frequencies --   2277.1006              2309.6634              2938.7432
 Red. masses --      1.0993                 1.0938                 1.0972
 Frc consts  --      3.3585                 3.4380                 5.5828
 IR Inten    --     49.3541              1452.5437                 0.1935

                     82                     83                     84
                      A                      A                      A
 Frequencies --   2939.5077              2950.8194              2963.0181
 Red. masses --      1.0451                 1.0431                 1.0983
 Frc consts  --      5.3207                 5.3511                 5.6812
 IR Inten    --      7.7925               696.4471               199.4606

                     85                     86                     87
                      A                      A                      A
 Frequencies --   3093.2698              3097.5612              3098.1345
 Red. masses --      1.0827                 1.0894                 1.0898
 Frc consts  --      6.1036                 6.1583                 6.1631
 IR Inten    --     40.1111                30.9044                 2.1227

                     88                     89                     90
                      A                      A                      A
 Frequencies --   3116.6658              3160.7197              3163.2959
 Red. masses --      1.0902                 1.0905                 1.0916
 Frc consts  --      6.2393                 6.4186                 6.4358
 IR Inten    --    114.5529                28.1184                52.2828

 - Thermochemistry -
 -------------------
 Temperature   298.150 Kelvin.  Pressure   1.00000 Atm.
 Atom     1 has atomic number  6 and mass  12.00000

 Molecular mass:   268.07356 amu.
 Principal axes and moments of inertia in atomic units:
                           1         2         3
     Eigenvalues --  2865.392576632.632689475.70799
           X            0.99136   0.12019   0.05262
           Y           -0.11253   0.98510  -0.13006
           Z           -0.06747   0.12302   0.99011
 This molecule is an asymmetric top.
 Rotational symmetry number  1.
 Warning -- assumption of classical behavior for rotation
           may cause significant error
 Rotational temperatures (Kelvin)      0.03023     0.01306     0.00914
 Rotational constants (GHZ):           0.62984     0.27210     0.19046
 Zero-point vibrational energy     617741.3 (Joules/Mol)
                                  147.64372 (Kcal/Mol)
 Warning -- explicit consideration of  26 degrees of freedom as
           vibrations may cause significant error
 Vibrational temperatures:     75.05    93.76   113.13   161.32   184.91
          (Kelvin)            198.53   214.17   247.99   276.38   295.85
                              424.70   435.81   450.10   485.26   529.11
                              542.67   546.95   578.51   580.24   616.98
                              643.53   706.30   754.56   754.58   768.12
                              780.31   908.41   913.76   924.86  1006.49
                             1023.95  1043.07  1053.45  1091.26  1098.57
                             1112.51  1178.67  1274.76  1327.86  1362.36
                             1366.89  1371.53  1446.41  1487.88  1488.95
                             1506.03  1523.72  1569.33  1571.63  1572.41
                             1600.58  1603.60  1633.81  1693.46  1774.94
                             1798.80  1802.46  1859.42  1866.74  1964.27
                             1968.10  1987.21  2000.21  2018.86  2045.97
                             2091.09  2112.38  2117.38  2131.51  2144.75
                             2155.01  2168.13  2197.56  2263.96  2282.81
                             2284.74  2408.74  2421.05  3276.24  3323.09
                             4228.20  4229.30  4245.57  4263.12  4450.53
                             4456.70  4457.52  4484.19  4547.57  4551.28

 Zero-point correction=                           0.235285 (Hartree/Particle)
 Thermal correction to Energy=                    0.251711
 Thermal correction to Enthalpy=                  0.252655
 Thermal correction to Gibbs Free Energy=         0.191915
 Sum of electronic and zero-point Energies=           -917.891052
 Sum of electronic and thermal Energies=              -917.874627
 Sum of electronic and thermal Enthalpies=            -917.873683
 Sum of electronic and thermal Free Energies=         -917.934422

                     E (Thermal)             CV                S
                      KCal/Mol        Cal/Mol-Kelvin    Cal/Mol-Kelvin
 Total                  157.951             65.030            127.838
 Electronic               0.000              0.000              0.000
 Translational            0.889              2.981             42.657
 Rotational               0.889              2.981             33.554
 Vibrational            156.173             59.068             51.626
 Vibration     1          0.596              1.977              4.734
 Vibration     2          0.597              1.971              4.294
 Vibration     3          0.600              1.964              3.925
 Vibration     4          0.607              1.939              3.232
 Vibration     5          0.611              1.925              2.968
 Vibration     6          0.614              1.915              2.832
 Vibration     7          0.618              1.904              2.687
 Vibration     8          0.626              1.876              2.410
 Vibration     9          0.634              1.851              2.207
 Vibration    10          0.640              1.832              2.082
 Vibration    11          0.689              1.683              1.444
 Vibration    12          0.694              1.668              1.401
 Vibration    13          0.701              1.649              1.347
 Vibration    14          0.718              1.601              1.225
 Vibration    15          0.740              1.539              1.089
 Vibration    16          0.748              1.519              1.050
 Vibration    17          0.750              1.512              1.039
 Vibration    18          0.768              1.466              0.955
 Vibration    19          0.769              1.463              0.951
 Vibration    20          0.790              1.407              0.863
 Vibration    21          0.806              1.367              0.804
 Vibration    22          0.847              1.270              0.681
 Vibration    23          0.879              1.196              0.600
 Vibration    24          0.879              1.196              0.600
 Vibration    25          0.889              1.175              0.579
 Vibration    26          0.897              1.156              0.560

 Optimization completed.
    -- Stationary point found.
 Normal termination of Gaussian 16 at Fri Dec 22 14:58:35 2023.
