 Gaussian 16, Revision A.03,
 Gaussian 16:  ES64L-G16RevA.03 25-Dec-2016

 -------------------------------
 #P UB3LYP/genecp nosym opt freq
 -------------------------------

 -------
 Radical
 -------
 Symbolic Z-matrix:
 Charge = -1 Multiplicity = 2

 SCF Done:  E(UB3LYP) =  -986.213368229     A.U. after   24 cycles
 SCF Done:  E(UB3LYP) =  -986.221678761     A.U. after   16 cycles
 SCF Done:  E(UB3LYP) =  -986.222271102     A.U. after   16 cycles
 SCF Done:  E(UB3LYP) =  -986.222318244     A.U. after   15 cycles
 SCF Done:  E(UB3LYP) =  -986.222321843     A.U. after   12 cycles
 Optimization completed.
    -- Stationary point found.
 Normal termination of Gaussian 16 at Thu Dec 21 08:14:11 2023.

 ------------------------------------------------------------------
 #P Geom=AllCheck Guess=TCheck SCRF=Check GenChk UB3LYP/GenECP Freq
 ------------------------------------------------------------------

 Structure from the checkpoint file:  "119-rad.chk"
 -------
 Radical
 -------
 Charge = -1 Multiplicity = 2

                          Input orientation:
 ---------------------------------------------------------------------
 Center     Atomic      Atomic             Coordinates (Angstroms)
 Number     Number       Type             X           Y           Z
 ---------------------------------------------------------------------
      1          6           0        6.897382   -1.641138   -0.254262
      2          6           0        7.456576   -0.682771   -1.075474
      3          6           0        6.642021    0.322581   -1.640748
      4          6           0        5.288392    0.344217   -1.370498
      5          6           0        4.693361   -0.625116   -0.533699
      6          6           0        5.515366   -1.639656    0.036764
      7          6           0        4.971314   -2.679431    0.914402
      8          6           0        3.531724   -2.611039    1.168593
      9          6           0        2.708427   -1.596163    0.598194
     10          6           0        3.251867   -0.558738   -0.277647
     11          6           0        2.944327   -3.586276    2.008119
     12          6           0        1.594531   -3.547336    2.264975
     13          6           0        0.760001   -2.552290    1.711554
     14          6           0        1.328001   -1.598289    0.891629
     15          8           0        5.694140   -3.573644    1.417514
     16          8           0        2.526338    0.334537   -0.779497
     17          1           0        7.498406   -2.424375    0.193190
     18          1           0        4.638945    1.103791   -1.790306
     19          1           0        3.596523   -4.342883    2.425117
     20          1           0        0.721754   -0.817169    0.446873
     21         53           0        0.717417   -5.019754    3.530457
     22          1           0        8.521516   -0.700985   -1.287249
     23          1           0        7.080937    1.077002   -2.286860
     24          1           0       -0.301268   -2.539085    1.926318
 ---------------------------------------------------------------------

 SCF Done:  E(UB3LYP) =  -986.222321843     A.U. after    2 cycles

 Alpha  occ. eigenvalues --  -18.95567 -18.95553 -10.11301 -10.10585 -10.10579
 Alpha  occ. eigenvalues --  -10.07540 -10.06963 -10.06671 -10.06633 -10.06585
 Alpha  occ. eigenvalues --  -10.06404 -10.06122 -10.05955 -10.05940 -10.05906
 Alpha  occ. eigenvalues --  -10.05874  -6.74388  -4.76747  -4.75698  -4.75698
 Alpha  occ. eigenvalues --   -1.81571  -1.81220  -1.81209  -1.80309  -1.80308
 Alpha  occ. eigenvalues --   -0.88315  -0.88040  -0.75669  -0.74324  -0.68047
 Alpha  occ. eigenvalues --   -0.65146  -0.63874  -0.63643  -0.59132  -0.55216
 Alpha  occ. eigenvalues --   -0.52694  -0.50122  -0.48048  -0.44545  -0.42452
 Alpha  occ. eigenvalues --   -0.40856  -0.36113  -0.35894  -0.34894  -0.33399
 Alpha  occ. eigenvalues --   -0.31963  -0.31218  -0.30678  -0.29854  -0.29205
 Alpha  occ. eigenvalues --   -0.28569  -0.26485  -0.26209  -0.25953  -0.24121
 Alpha  occ. eigenvalues --   -0.23323  -0.23053  -0.22086  -0.18455  -0.16934
 Alpha  occ. eigenvalues --   -0.15308  -0.14635  -0.14291  -0.13273  -0.12538
 Alpha  occ. eigenvalues --   -0.11683  -0.02510
 Alpha virt. eigenvalues --    0.05628   0.05964   0.07904   0.08409   0.08878
 Alpha virt. eigenvalues --    0.09859   0.10336   0.11051   0.11330   0.13002
 Alpha virt. eigenvalues --    0.13527   0.14787   0.15386   0.15391   0.16425

  Beta  occ. eigenvalues --  -18.94959 -18.94956 -10.11237 -10.10456 -10.10454
  Beta  occ. eigenvalues --  -10.07475 -10.06978 -10.06693 -10.06587 -10.06538
  Beta  occ. eigenvalues --  -10.06291 -10.06012 -10.05946 -10.05937 -10.05848
  Beta  occ. eigenvalues --  -10.05796  -6.74388  -4.76748  -4.75698  -4.75695
  Beta  occ. eigenvalues --   -1.81572  -1.81222  -1.81208  -1.80307  -1.80306
  Beta  occ. eigenvalues --   -0.87294  -0.86989  -0.75444  -0.74177  -0.67648
  Beta  occ. eigenvalues --   -0.64974  -0.63698  -0.63460  -0.58994  -0.54540
  Beta  occ. eigenvalues --   -0.52529  -0.49868  -0.47991  -0.44326  -0.42249
  Beta  occ. eigenvalues --   -0.40684  -0.35855  -0.35783  -0.34741  -0.33292
  Beta  occ. eigenvalues --   -0.31909  -0.31190  -0.29696  -0.29535  -0.28793
  Beta  occ. eigenvalues --   -0.28067  -0.26090  -0.26057  -0.24040  -0.23646
  Beta  occ. eigenvalues --   -0.22952  -0.22322  -0.21897  -0.17913  -0.16930
  Beta  occ. eigenvalues --   -0.14562  -0.13470  -0.12986  -0.12525  -0.11979
  Beta  occ. eigenvalues --   -0.11122
  Beta virt. eigenvalues --    0.03447   0.06026   0.06413   0.07897   0.08877
  Beta virt. eigenvalues --    0.09510   0.09852   0.10528   0.11047   0.11329
  Beta virt. eigenvalues --    0.12989   0.13517   0.14900   0.15416   0.15871

 Mulliken charges and spin densities:
               1          2
     1  C    0.067867   0.019105
     2  C   -0.400486   0.034956
     3  C   -0.395139   0.038616
     4  C    0.063597   0.016454
     5  C    0.301225   0.042788
     6  C    0.344151   0.041018
     7  C   -0.531575   0.060633
     8  C    0.309858   0.082783
     9  C    0.180493   0.060374
    10  C   -0.643159   0.059534
    11  C    0.154785   0.007446
    12  C    0.241390   0.034511
    13  C   -0.750297   0.056795
    14  C    0.009109   0.009502
    15  O   -0.359300   0.226875
    16  O   -0.362627   0.222625
    17  H    0.157695  -0.001285
    18  H    0.158025  -0.001117
    19  H    0.126126  -0.000824
    20  H    0.167427  -0.000472
    21  I   -0.195449   0.000084
    22  H    0.127462  -0.002971
    23  H    0.127498  -0.003169
    24  H    0.101324  -0.004259
 Sum of Mulliken charges =  -1.00000   1.00000

 Dipole moment (field-independent basis, Debye):
    X=            -17.8612    Y=              9.9777    Z=             -3.5428  Tot=             20.7637
 Quadrupole moment (field-independent basis, Debye-Ang):
   XX=           -209.3880   YY=           -167.4022   ZZ=           -140.2255
   XY=             38.4838   XZ=            -10.6793   YZ=             21.9569

  Exact polarizability: 319.001  48.246 238.308 -78.743-101.437 204.981
 Approx polarizability: 505.944  11.799 397.252 -76.131-156.885 317.948

                      1                      2                      3
                      A                      A                      A
 Frequencies --     38.3082                82.0949               103.8593
 Red. masses --      8.2299                 6.7103                10.3002
 Frc consts  --      0.0071                 0.0266                 0.0655
 IR Inten    --      2.9632                 3.5479                 1.0124

                      4                      5                      6
                      A                      A                      A
 Frequencies --    128.1622               156.4500               182.4245
 Red. masses --      4.6067                 6.2575                16.1818
 Frc consts  --      0.0446                 0.0902                 0.3173
 IR Inten    --      0.3470                 1.2483                 1.0222

                      7                      8                      9
                      A                      A                      A
 Frequencies --    188.8763               264.1221               266.5754
 Red. masses --      6.4646                 5.7765                 6.2394
 Frc consts  --      0.1359                 0.2374                 0.2612
 IR Inten    --      1.3630                 2.7511                 1.1366

                     10                     11                     12
                      A                      A                      A
 Frequencies --    323.5534               378.7835               404.1584
 Red. masses --      6.7854                10.5540                 7.6553
 Frc consts  --      0.4185                 0.8922                 0.7367
 IR Inten    --      0.6623                 4.2308                 3.8288

                     13                     14                     15
                      A                      A                      A
 Frequencies --    416.7872               427.6891               452.0209
 Red. masses --      3.6163                 5.8980                 8.2355
 Frc consts  --      0.3701                 0.6356                 0.9914
 IR Inten    --      1.4825                 2.0061                 3.4851

                     16                     17                     18
                      A                      A                      A
 Frequencies --    464.6485               497.3897               514.6992
 Red. masses --      3.1938                11.2020                 4.6747
 Frc consts  --      0.4063                 1.6328                 0.7296
 IR Inten    --      0.0146                 1.7595                 3.6797

                     19                     20                     21
                      A                      A                      A
 Frequencies --    630.9926               635.3564               638.6599
 Red. masses --      6.9505                 4.7249                 7.2116
 Frc consts  --      1.6305                 1.1238                 1.7331
 IR Inten    --     32.5541                 2.5536                 1.8479

                     22                     23                     24
                      A                      A                      A
 Frequencies --    692.1024               695.6886               703.3981
 Red. masses --      7.2976                 6.6662                 2.3467
 Frc consts  --      2.0595                 1.9009                 0.6841
 IR Inten    --      7.5903                10.9916                69.2460

                     25                     26                     27
                      A                      A                      A
 Frequencies --    723.6411               777.1156               799.4545
 Red. masses --      4.5605                 1.5635                 2.0133
 Frc consts  --      1.4070                 0.5563                 0.7581
 IR Inten    --      0.1185                 7.6247                18.1325

                     28                     29                     30
                      A                      A                      A
 Frequencies --    811.4856               826.0546               874.9285
 Red. masses --      6.7980                 2.5016                 1.5838
 Frc consts  --      2.6375                 1.0057                 0.7143
 IR Inten    --     35.5194                 9.6957                 0.0903

                     31                     32                     33
                      A                      A                      A
 Frequencies --    931.3013               934.9751               945.6473
 Red. masses --      1.3989                 6.7054                 7.3702
 Frc consts  --      0.7148                 3.4536                 3.8832
 IR Inten    --      6.4376                41.1442                12.0580

                     34                     35                     36
                      A                      A                      A
 Frequencies --    979.9968               985.2875               986.6212
 Red. masses --      1.3118                 1.3683                 1.2720
 Frc consts  --      0.7423                 0.7827                 0.7295
 IR Inten    --      0.3856                 4.4764                 0.0046

                     37                     38                     39
                      A                      A                      A
 Frequencies --   1038.4129              1060.2237              1109.7529
 Red. masses --      2.0463                 2.0553                 2.2319
 Frc consts  --      1.3000                 1.3612                 1.6195
 IR Inten    --     27.9883                 3.6953                18.8797

                     40                     41                     42
                      A                      A                      A
 Frequencies --   1120.8998              1147.6445              1174.4792
 Red. masses --      2.0016                 1.4831                 2.8637
 Frc consts  --      1.4817                 1.1509                 2.3274
 IR Inten    --     34.6044                15.4959                 0.6016

                     43                     44                     45
                      A                      A                      A
 Frequencies --   1193.9973              1219.5558              1221.2600
 Red. masses --      2.1641                 2.4527                 1.6375
 Frc consts  --      1.8177                 2.1493                 1.4389
 IR Inten    --      1.7176                29.1873                 8.6658

                     46                     47                     48
                      A                      A                      A
 Frequencies --   1257.8098              1325.1150              1353.5480
 Red. masses --      1.7566                 2.1858                11.1463
 Frc consts  --      1.6374                 2.2613                12.0318
 IR Inten    --     76.2435                24.7911                20.3919

                     49                     50                     51
                      A                      A                      A
 Frequencies --   1358.9162              1399.5224              1452.6454
 Red. masses --     10.4310                 3.1650                 2.4521
 Frc consts  --     11.3492                 3.6524                 3.0487
 IR Inten    --      5.2854               199.8482               124.8809

                     52                     53                     54
                      A                      A                      A
 Frequencies --   1473.8635              1483.0397              1514.7628
 Red. masses --      3.5300                 2.6302                 5.2538
 Frc consts  --      4.5180                 3.4084                 7.1026
 IR Inten    --    110.5189                 6.2054               534.5245

                     55                     56                     57
                      A                      A                      A
 Frequencies --   1526.6774              1552.1453              1596.4679
 Red. masses --      8.1950                 6.1093                 6.6218
 Frc consts  --     11.2536                 8.6717                 9.9436
 IR Inten    --     43.7756                43.0482                70.4747

                     58                     59                     60
                      A                      A                      A
 Frequencies --   1614.7338              1629.7271              3136.3840
 Red. masses --      9.4687                 6.2249                 1.0848
 Frc consts  --     14.5460                 9.7413                 6.2871
 IR Inten    --      7.9986                15.9668                16.9990

                     61                     62                     63
                      A                      A                      A
 Frequencies --   3155.1551              3173.8946              3182.9336
 Red. masses --      1.0911                 1.0863                 1.0914
 Frc consts  --      6.3997                 6.4471                 6.5148
 IR Inten    --     50.4857                 1.3556                 8.9710

                     64                     65                     66
                      A                      A                      A
 Frequencies --   3185.4320              3190.0192              3199.3085
 Red. masses --      1.0931                 1.0944                 1.0905
 Frc consts  --      6.5348                 6.5614                 6.5765
 IR Inten    --     35.5902                10.6460                 5.5010

 - Thermochemistry -
 -------------------
 Temperature   298.150 Kelvin.  Pressure   1.00000 Atm.
 Atom     1 has atomic number  6 and mass  12.00000

 Molecular mass:   333.94500 amu.
 Principal axes and moments of inertia in atomic units:
                           1         2         3
     Eigenvalues --  1843.68505********************
           X            0.63346   0.75531   0.16804
           Y            0.55395  -0.59430   0.58305
           Z           -0.54025   0.27626   0.79487
 This molecule is an asymmetric top.
 Rotational symmetry number  1.
 Warning -- assumption of classical behavior for rotation
           may cause significant error
 Rotational temperatures (Kelvin)      0.04698     0.00655     0.00575
 Rotational constants (GHZ):           0.97888     0.13644     0.11975
 Zero-point vibrational energy     436108.4 (Joules/Mol)
                                  104.23242 (Kcal/Mol)
 Warning -- explicit consideration of  18 degrees of freedom as
           vibrations may cause significant error
 Vibrational temperatures:     55.12   118.12   149.43   184.40   225.10
          (Kelvin)            262.47   271.75   380.01   383.54   465.52
                              544.99   581.49   599.66   615.35   650.36
                              668.53   715.63   740.54   907.86   914.14
                              918.89   995.78  1000.94  1012.03  1041.16
                             1118.10  1150.24  1167.55  1188.51  1258.83
                             1339.93  1345.22  1360.58  1410.00  1417.61
                             1419.53  1494.04  1525.43  1596.69  1612.72
                             1651.20  1689.81  1717.90  1754.67  1757.12
                             1809.71  1906.54  1947.45  1955.18  2013.60
                             2090.03  2120.56  2133.76  2179.41  2196.55
                             2233.19  2296.96  2323.24  2344.81  4512.56
                             4539.56  4566.53  4579.53  4583.13  4589.73
                             4603.09

 Zero-point correction=                           0.166105 (Hartree/Particle)
 Thermal correction to Energy=                    0.179044
 Thermal correction to Enthalpy=                  0.179988
 Thermal correction to Gibbs Free Energy=         0.124169
 Sum of electronic and zero-point Energies=           -986.056217
 Sum of electronic and thermal Energies=              -986.043278
 Sum of electronic and thermal Enthalpies=            -986.042334
 Sum of electronic and thermal Free Energies=         -986.098153

                     E (Thermal)             CV                S
                      KCal/Mol        Cal/Mol-Kelvin    Cal/Mol-Kelvin
 Total                  112.352             50.794            117.480
 Electronic               0.000              0.000              1.377
 Translational            0.889              2.981             43.312
 Rotational               0.889              2.981             34.263
 Vibrational            110.574             44.833             38.528
 Vibration     1          0.594              1.982              5.345
 Vibration     2          0.600              1.961              3.840
 Vibration     3          0.605              1.946              3.381
 Vibration     4          0.611              1.925              2.973
 Vibration     5          0.620              1.895              2.592
 Vibration     6          0.630              1.864              2.303
 Vibration     7          0.633              1.855              2.239
 Vibration     8          0.671              1.739              1.634
 Vibration     9          0.672              1.734              1.618
 Vibration    10          0.708              1.628              1.292
 Vibration    11          0.749              1.515              1.044
 Vibration    12          0.769              1.461              0.947
 Vibration    13          0.780              1.434              0.903
 Vibration    14          0.789              1.410              0.866
 Vibration    15          0.811              1.356              0.790
 Vibration    16          0.822              1.328              0.753
 Vibration    17          0.853              1.256              0.665
 Vibration    18          0.870              1.217              0.622

 Optimization completed.
    -- Stationary point found.
 Normal termination of Gaussian 16 at Thu Dec 21 08:46:10 2023.
