 Gaussian 16, Revision A.03,
 Gaussian 16:  ES64L-G16RevA.03 25-Dec-2016

 ----------------------------------------------------------------------
 #P UB3LYP/6-311++G(d,p) nosym opt freq SCRF=(PCM,Solvent=n,n-DiMethylF
 ormamide)
 ----------------------------------------------------------------------

 -------
 Reduced
 -------
 Symbolic Z-matrix:
 Charge = -2 Multiplicity = 1

 SCF Done:  E(UB3LYP) =  -1065.45804504     A.U. after   16 cycles
 SCF Done:  E(UB3LYP) =  -1065.45875076     A.U. after   12 cycles
 SCF Done:  E(UB3LYP) =  -1065.45909829     A.U. after   13 cycles
 SCF Done:  E(UB3LYP) =  -1065.45982658     A.U. after   12 cycles
 SCF Done:  E(UB3LYP) =  -1065.45988729     A.U. after   12 cycles
 SCF Done:  E(UB3LYP) =  -1065.45995959     A.U. after   12 cycles
 SCF Done:  E(UB3LYP) =  -1065.45999819     A.U. after   11 cycles
 SCF Done:  E(UB3LYP) =  -1065.46003971     A.U. after   10 cycles
 SCF Done:  E(UB3LYP) =  -1065.46004212     A.U. after   11 cycles
 SCF Done:  E(UB3LYP) =  -1065.46006934     A.U. after   11 cycles
 SCF Done:  E(UB3LYP) =  -1065.46007509     A.U. after   10 cycles
 SCF Done:  E(UB3LYP) =  -1065.46007741     A.U. after   10 cycles
 SCF Done:  E(UB3LYP) =  -1065.46008055     A.U. after    9 cycles
 SCF Done:  E(UB3LYP) =  -1065.46008153     A.U. after    9 cycles
 SCF Done:  E(UB3LYP) =  -1065.46008183     A.U. after    9 cycles
 SCF Done:  E(UB3LYP) =  -1065.46008201     A.U. after    9 cycles
 SCF Done:  E(UB3LYP) =  -1065.46008209     A.U. after    8 cycles
 SCF Done:  E(UB3LYP) =  -1065.46008215     A.U. after    8 cycles
 SCF Done:  E(UB3LYP) =  -1065.46008218     A.U. after    8 cycles
 Optimization completed.
    -- Stationary point found.
 Normal termination of Gaussian 16 at Sun Feb 11 00:25:28 2024.

 ----------------------------------------------------------------------
 #P Geom=AllCheck Guess=TCheck SCRF=Check GenChk UB3LYP/6-311++G(d,p) F
 req
 ----------------------------------------------------------------------

 Structure from the checkpoint file:  "207-an.chk"
 -------
 Reduced
 -------
 Charge = -2 Multiplicity = 1

                          Input orientation:
 ---------------------------------------------------------------------
 Center     Atomic      Atomic             Coordinates (Angstroms)
 Number     Number       Type             X           Y           Z
 ---------------------------------------------------------------------
      1          8           0        4.544492   -1.440429   -0.872531
      2          6           0        3.409058   -0.702651   -0.552960
      3          6           0        3.497616    0.656013   -0.194377
      4          6           0        2.354152    1.382301    0.129254
      5          8           0        2.418323    2.648985    0.474956
      6          6           0        1.060649    0.690827    0.069920
      7          6           0       -0.119433    1.407947    0.392345
      8          8           0       -0.007527    2.718777    0.736389
      9          6           0       -1.393900    0.790697    0.359540
     10          6           0       -2.627923    1.453174    0.695172
     11          8           0       -2.609571    2.784631    1.103308
     12          6           0       -3.821473    0.781389    0.622368
     13          6           0       -3.898345   -0.574102    0.221667
     14          6           0       -2.759203   -1.295031   -0.114315
     15          8           0       -2.815232   -2.560852   -0.486256
     16          6           0       -1.465383   -0.602664   -0.042500
     17          6           0       -0.286583   -1.314792   -0.374200
     18          8           0       -0.394505   -2.616498   -0.763107
     19          6           0        0.990277   -0.705251   -0.314567
     20          6           0        2.218140   -1.386070   -0.613152
     21          8           0        2.250212   -2.735554   -0.951688
     22          1           0        5.333517   -0.942761   -0.632803
     23          1           0        4.464121    1.150025   -0.167985
     24          1           0        1.007715    2.901780    0.684803
     25          1           0       -3.522200    3.037687    1.284201
     26          1           0       -4.737314    1.307857    0.883348
     27          1           0       -4.861738   -1.071403    0.176025
     28          1           0       -1.413369   -2.800982   -0.710128
     29          1           0        3.185423   -2.963052   -1.042722
 ---------------------------------------------------------------------

 SCF Done:  E(UB3LYP) =  -1065.46008218     A.U. after    1 cycles

 Alpha  occ. eigenvalues --  -19.14992 -19.12956 -19.12712 -19.09302 -19.08881
 Alpha  occ. eigenvalues --  -19.05377 -19.04854 -10.21134 -10.20781 -10.20546
 Alpha  occ. eigenvalues --  -10.20538 -10.20349 -10.19995 -10.19690 -10.16497
 Alpha  occ. eigenvalues --  -10.16191 -10.15714 -10.15702 -10.14783 -10.13717
 Alpha  occ. eigenvalues --  -10.13137  -1.06111  -1.03695  -1.02692  -1.01754
 Alpha  occ. eigenvalues --   -1.01206  -0.95907  -0.95169  -0.83793  -0.81002
 Alpha  occ. eigenvalues --   -0.76697  -0.72804  -0.71553  -0.69900  -0.66199
 Alpha  occ. eigenvalues --   -0.62750  -0.61709  -0.58072  -0.55924  -0.54639
 Alpha  occ. eigenvalues --   -0.53476  -0.52236  -0.51081  -0.48398  -0.46539
 Alpha  occ. eigenvalues --   -0.45381  -0.44196  -0.43034  -0.42465  -0.41512
 Alpha  occ. eigenvalues --   -0.40932  -0.40539  -0.40324  -0.38972  -0.38322
 Alpha  occ. eigenvalues --   -0.37623  -0.37417  -0.36619  -0.36054  -0.35697
 Alpha  occ. eigenvalues --   -0.35141  -0.34013  -0.33540  -0.33145  -0.32049
 Alpha  occ. eigenvalues --   -0.31667  -0.28578  -0.26715  -0.24342  -0.23041
 Alpha  occ. eigenvalues --   -0.21982  -0.21931  -0.20175  -0.17096  -0.12447
 Alpha virt. eigenvalues --   -0.01543  -0.00476  -0.00284   0.00273   0.01367
 Alpha virt. eigenvalues --    0.01981   0.02178   0.03961   0.04544   0.04604
 Alpha virt. eigenvalues --    0.04639   0.05013   0.06340   0.06540   0.06723

  Beta  occ. eigenvalues --  -19.14992 -19.12956 -19.12712 -19.09302 -19.08881
  Beta  occ. eigenvalues --  -19.05377 -19.04854 -10.21134 -10.20781 -10.20546
  Beta  occ. eigenvalues --  -10.20538 -10.20349 -10.19995 -10.19690 -10.16497
  Beta  occ. eigenvalues --  -10.16191 -10.15714 -10.15702 -10.14783 -10.13717
  Beta  occ. eigenvalues --  -10.13137  -1.06111  -1.03695  -1.02692  -1.01754
  Beta  occ. eigenvalues --   -1.01206  -0.95907  -0.95169  -0.83793  -0.81002
  Beta  occ. eigenvalues --   -0.76697  -0.72804  -0.71553  -0.69900  -0.66199
  Beta  occ. eigenvalues --   -0.62750  -0.61709  -0.58072  -0.55924  -0.54639
  Beta  occ. eigenvalues --   -0.53476  -0.52236  -0.51081  -0.48398  -0.46539
  Beta  occ. eigenvalues --   -0.45381  -0.44196  -0.43034  -0.42465  -0.41512
  Beta  occ. eigenvalues --   -0.40932  -0.40539  -0.40324  -0.38972  -0.38322
  Beta  occ. eigenvalues --   -0.37623  -0.37417  -0.36619  -0.36054  -0.35697
  Beta  occ. eigenvalues --   -0.35141  -0.34013  -0.33540  -0.33145  -0.32049
  Beta  occ. eigenvalues --   -0.31667  -0.28578  -0.26715  -0.24342  -0.23041
  Beta  occ. eigenvalues --   -0.21982  -0.21931  -0.20175  -0.17096  -0.12447
  Beta virt. eigenvalues --   -0.01543  -0.00476  -0.00284   0.00273   0.01367
  Beta virt. eigenvalues --    0.01981   0.02178   0.03961   0.04544   0.04604
  Beta virt. eigenvalues --    0.04639   0.05013   0.06340   0.06540   0.06723

 Mulliken charges and spin densities:
               1          2
     1  O   -0.361864  -0.000000
     2  C   -0.426550   0.000000
     3  C    0.290451  -0.000000
     4  C   -0.621565   0.000000
     5  O   -0.658648  -0.000000
     6  C    0.560370  -0.000000
     7  C   -0.101737  -0.000000
     8  O   -0.580376   0.000000
     9  C    0.241780   0.000000
    10  C   -0.309876  -0.000000
    11  O   -0.327768   0.000000
    12  C   -0.133302   0.000000
    13  C   -0.127815   0.000000
    14  C   -0.555276  -0.000000
    15  O   -0.675121   0.000000
    16  C    0.553753   0.000000
    17  C   -0.138287   0.000000
    18  O   -0.584537  -0.000000
    19  C    0.553280   0.000000
    20  C   -0.599654  -0.000000
    21  O   -0.368867   0.000000
    22  H    0.306579  -0.000000
    23  H    0.155925   0.000000
    24  H    0.511774  -0.000000
    25  H    0.289061   0.000000
    26  H    0.138998   0.000000
    27  H    0.153068   0.000000
    28  H    0.511344   0.000000
    29  H    0.304862  -0.000000
 Sum of Mulliken charges =  -2.00000   0.00000

 Dipole moment (field-independent basis, Debye):
    X=              3.1599    Y=              1.7323    Z=              0.9375  Tot=              3.7236
 Quadrupole moment (field-independent basis, Debye-Ang):
   XX=           -152.7739   YY=           -190.8291   ZZ=           -135.3183
   XY=            -32.7998   XZ=             -5.0619   YZ=            -14.2953

  Exact polarizability: 551.858   8.290 358.304 -38.043  58.038 173.257
 Approx polarizability: 603.271   3.635 448.247 -42.903  78.913 199.636

                      1                      2                      3
                      A                      A                      A
 Frequencies --     39.8629                61.5679                88.2136
 Red. masses --      7.2130                 7.3777                 7.8885
 Frc consts  --      0.0068                 0.0165                 0.0362
 IR Inten    --     17.5027                 0.4273                 4.9952

                      4                      5                      6
                      A                      A                      A
 Frequencies --    102.9055               106.9429               136.8086
 Red. masses --     10.9943                 6.9905                 1.1480
 Frc consts  --      0.0686                 0.0471                 0.0127
 IR Inten    --      1.6197                 0.1867               208.6463

                      7                      8                      9
                      A                      A                      A
 Frequencies --    173.1737               191.1314               210.5578
 Red. masses --      7.6144                 8.2317                 4.3250
 Frc consts  --      0.1345                 0.1772                 0.1130
 IR Inten    --     15.4389                32.3360                16.0329

                     10                     11                     12
                      A                      A                      A
 Frequencies --    234.3596               275.0958               291.4943
 Red. masses --      1.3356                 8.6091                 4.3274
 Frc consts  --      0.0432                 0.3839                 0.2166
 IR Inten    --    119.3800                 7.5721                 4.4902

                     13                     14                     15
                      A                      A                      A
 Frequencies --    327.9311               332.7835               350.6017
 Red. masses --      8.4690                 6.5804                 2.5254
 Frc consts  --      0.5366                 0.4294                 0.1829
 IR Inten    --     10.5551                20.2623                18.8526

                     16                     17                     18
                      A                      A                      A
 Frequencies --    367.8161               375.4114               380.0353
 Red. masses --      5.1034                 3.5361                 3.7749
 Frc consts  --      0.4068                 0.2936                 0.3212
 IR Inten    --     25.7506                39.3607                27.1279

                     19                     20                     21
                      A                      A                      A
 Frequencies --    402.0937               408.2538               417.1552
 Red. masses --      6.3275                 4.2269                 7.3112
 Frc consts  --      0.6027                 0.4151                 0.7496
 IR Inten    --      7.1474                 5.8423                23.8604

                     22                     23                     24
                      A                      A                      A
 Frequencies --    434.1475               468.1215               481.7205
 Red. masses --      6.2007                11.8829                 9.0680
 Frc consts  --      0.6886                 1.5342                 1.2398
 IR Inten    --    187.8391                12.5007                63.3157

                     25                     26                     27
                      A                      A                      A
 Frequencies --    485.7410               517.7460               529.2921
 Red. masses --     10.9560                 4.2912                 6.9438
 Frc consts  --      1.5230                 0.6777                 1.1461
 IR Inten    --     19.1985                 0.4646                 1.7147

                     28                     29                     30
                      A                      A                      A
 Frequencies --    563.4763               564.0522               617.0498
 Red. masses --      6.6537                 4.8849                 5.9678
 Frc consts  --      1.2447                 0.9157                 1.3388
 IR Inten    --     14.4882                17.6147                94.8424

                     31                     32                     33
                      A                      A                      A
 Frequencies --    629.5538               666.8045               710.8048
 Red. masses --      3.1069                 5.4443                 4.9697
 Frc consts  --      0.7255                 1.4262                 1.4794
 IR Inten    --      1.0257                 0.8612                44.1995

                     34                     35                     36
                      A                      A                      A
 Frequencies --    712.1155               724.5779               729.3214
 Red. masses --      3.6891                 4.6626                 6.6853
 Frc consts  --      1.1022                 1.4423                 2.0951
 IR Inten    --     19.8166                30.3567               104.6365

                     37                     38                     39
                      A                      A                      A
 Frequencies --    751.4546               761.6234               766.6048
 Red. masses --      5.2878                 7.2142                 3.1690
 Frc consts  --      1.7593                 2.4656                 1.0973
 IR Inten    --      0.5654               126.1812                29.7052

                     40                     41                     42
                      A                      A                      A
 Frequencies --    788.3019               832.4525               845.3667
 Red. masses --      2.0842                 8.5414                 1.3558
 Frc consts  --      0.7631                 3.4874                 0.5709
 IR Inten    --     89.4807                10.3890                 2.4939

                     43                     44                     45
                      A                      A                      A
 Frequencies --    915.8379               919.9768              1002.2239
 Red. masses --      9.6541                 5.8145                 6.3729
 Frc consts  --      4.7709                 2.8995                 3.7715
 IR Inten    --    590.5447               293.7292                29.9634

                     46                     47                     48
                      A                      A                      A
 Frequencies --   1012.4347              1022.1619              1058.0748
 Red. masses --      1.0510                 1.0499                 3.5513
 Frc consts  --      0.6347                 0.6463                 2.3425
 IR Inten    --    126.2828               146.8093               609.8781

                     49                     50                     51
                      A                      A                      A
 Frequencies --   1121.3820              1145.1300              1171.5307
 Red. masses --      2.0289                 2.1927                 1.7198
 Frc consts  --      1.5032                 1.6941                 1.3907
 IR Inten    --     16.5906               414.1494                33.5550

                     52                     53                     54
                      A                      A                      A
 Frequencies --   1197.9843              1205.8880              1220.7990
 Red. masses --      4.9053                 2.5797                 2.8187
 Frc consts  --      4.1478                 2.2102                 2.4751
 IR Inten    --    742.6175               184.2849               160.5844

                     55                     56                     57
                      A                      A                      A
 Frequencies --   1228.5515              1257.4016              1276.2571
 Red. masses --      1.8975                 2.4685                 4.9581
 Frc consts  --      1.6874                 2.2995                 4.7582
 IR Inten    --      4.7847               297.9197               176.9626

                     58                     59                     60
                      A                      A                      A
 Frequencies --   1283.7082              1319.9674              1328.4251
 Red. masses --      3.7972                 4.2286                 3.9544
 Frc consts  --      3.6868                 4.3408                 4.1115
 IR Inten    --     13.7027                70.4874                66.5201

                     61                     62                     63
                      A                      A                      A
 Frequencies --   1335.8011              1368.6158              1399.5767
 Red. masses --      7.2748                 3.5659                 5.5731
 Frc consts  --      7.6481                 3.9353                 6.4320
 IR Inten    --    497.0129               429.5929               748.6401

                     64                     65                     66
                      A                      A                      A
 Frequencies --   1415.3526              1446.6825              1476.0340
 Red. masses --      3.1390                 2.7343                 3.8093
 Frc consts  --      3.7048                 3.3717                 4.8898
 IR Inten    --    212.0795              1104.7364                18.8229

                     67                     68                     69
                      A                      A                      A
 Frequencies --   1508.9333              1537.1443              1593.1348
 Red. masses --      3.3673                 3.3769                 7.7405
 Frc consts  --      4.5172                 4.7010                11.5751
 IR Inten    --      0.5048               296.4785               143.2486

                     70                     71                     72
                      A                      A                      A
 Frequencies --   1609.9273              1640.5306              1678.1172
 Red. masses --      5.9527                 6.9671                 1.5096
 Frc consts  --      9.0903                11.0476                 2.5047
 IR Inten    --    484.4487               574.1280               322.1666

                     73                     74                     75
                      A                      A                      A
 Frequencies --   1684.1340              2403.7831              2463.3312
 Red. masses --      1.5501                 1.0902                 1.0896
 Frc consts  --      2.5904                 3.7116                 3.8953
 IR Inten    --      0.0365              2103.1588              1515.7030

                     76                     77                     78
                      A                      A                      A
 Frequencies --   3121.5254              3151.9171              3158.2966
 Red. masses --      1.0879                 1.0901                 1.0914
 Frc consts  --      6.2458                 6.3804                 6.4141
 IR Inten    --     71.5061                38.6310                62.2584

                     79                     80                     81
                      A                      A                      A
 Frequencies --   3764.2901              3807.4615              3833.3129
 Red. masses --      1.0653                 1.0659                 1.0667
 Frc consts  --      8.8939                 9.1041                 9.2352
 IR Inten    --    161.9627                71.1639               184.2122

 - Thermochemistry -
 -------------------
 Temperature   298.150 Kelvin.  Pressure   1.00000 Atm.
 Atom     1 has atomic number  8 and mass  15.99491

 Molecular mass:   288.02700 amu.
 Principal axes and moments of inertia in atomic units:
                           1         2         3
     Eigenvalues --  3559.834176894.85051**********
           X            0.97872   0.18095   0.09675
           Y           -0.14870   0.95039  -0.27322
           Z           -0.14139   0.25302   0.95707
 This molecule is an asymmetric top.
 Rotational symmetry number  1.
 Warning -- assumption of classical behavior for rotation
           may cause significant error
 Rotational temperatures (Kelvin)      0.02433     0.01256     0.00829
 Rotational constants (GHZ):           0.50697     0.26175     0.17266
 Zero-point vibrational energy     508055.0 (Joules/Mol)
                                  121.42806 (Kcal/Mol)
 Warning -- explicit consideration of  30 degrees of freedom as
           vibrations may cause significant error
 Vibrational temperatures:     57.35    88.58   126.92   148.06   153.87
          (Kelvin)            196.84   249.16   275.00   302.95   337.19
                              395.80   419.40   471.82   478.80   504.44
                              529.21   540.13   546.79   578.52   587.39
                              600.19   624.64   673.52   693.09   698.87
                              744.92   761.53   810.72   811.55   887.80
                              905.79   959.38  1022.69  1024.58  1042.51
                             1049.33  1081.18  1095.81  1102.97  1134.19
                             1197.71  1216.29  1317.69  1323.64  1441.98
                             1456.67  1470.66  1522.33  1613.42  1647.59
                             1685.57  1723.63  1735.00  1756.46  1767.61
                             1809.12  1836.25  1846.97  1899.14  1911.31
                             1921.92  1969.13  2013.68  2036.38  2081.45
                             2123.68  2171.02  2211.61  2292.17  2316.33
                             2360.36  2414.44  2423.09  3458.51  3544.18
                             4491.18  4534.91  4544.08  5415.97  5478.09
                             5515.28

 Zero-point correction=                           0.193508 (Hartree/Particle)
 Thermal correction to Energy=                    0.210628
 Thermal correction to Enthalpy=                  0.211572
 Thermal correction to Gibbs Free Energy=         0.149351
 Sum of electronic and zero-point Energies=          -1065.266574
 Sum of electronic and thermal Energies=             -1065.249455
 Sum of electronic and thermal Enthalpies=           -1065.248510
 Sum of electronic and thermal Free Energies=        -1065.310731

                     E (Thermal)             CV                S
                      KCal/Mol        Cal/Mol-Kelvin    Cal/Mol-Kelvin
 Total                  132.171             67.735            130.954
 Electronic               0.000              0.000              0.000
 Translational            0.889              2.981             42.871
 Rotational               0.889              2.981             33.905
 Vibrational            130.393             61.774             54.177
 Vibration     1          0.594              1.981              5.266
 Vibration     2          0.597              1.973              4.406
 Vibration     3          0.601              1.957              3.699
 Vibration     4          0.605              1.947              3.399
 Vibration     5          0.606              1.944              3.324
 Vibration     6          0.614              1.917              2.848
 Vibration     7          0.627              1.875              2.401
 Vibration     8          0.634              1.852              2.217
 Vibration     9          0.643              1.825              2.039
 Vibration    10          0.654              1.788              1.845
 Vibration    11          0.677              1.719              1.564
 Vibration    12          0.687              1.690              1.465
 Vibration    13          0.711              1.620              1.270
 Vibration    14          0.715              1.610              1.247
 Vibration    15          0.728              1.574              1.163
 Vibration    16          0.740              1.538              1.089
 Vibration    17          0.746              1.522              1.058
 Vibration    18          0.750              1.513              1.039
 Vibration    19          0.768              1.466              0.955
 Vibration    20          0.773              1.452              0.933
 Vibration    21          0.780              1.433              0.902
 Vibration    22          0.795              1.396              0.845
 Vibration    23          0.825              1.321              0.743
 Vibration    24          0.838              1.291              0.705
 Vibration    25          0.842              1.282              0.695
 Vibration    26          0.873              1.211              0.615
 Vibration    27          0.884              1.185              0.589
 Vibration    28          0.919              1.110              0.517
 Vibration    29          0.920              1.109              0.516
 Vibration    30          0.977              0.996              0.421

 Optimization completed.
    -- Stationary point found.
 Normal termination of Gaussian 16 at Sun Feb 11 01:54:04 2024.
