 Gaussian 16, Revision A.03,
 Gaussian 16:  ES64L-G16RevA.03 25-Dec-2016

 ----------------------------------------------------------------------
 #P UB3LYP/6-311++G(d,p) nosym opt freq SCRF=(PCM,Solvent=n,n-DiMethylF
 ormamide)
 ----------------------------------------------------------------------

 --------
 Oxidized
 --------
 Symbolic Z-matrix:
 Charge =  0 Multiplicity = 1

 SCF Done:  E(UB3LYP) =  -573.589626957     A.U. after   15 cycles
 SCF Done:  E(UB3LYP) =  -573.589774129     A.U. after   13 cycles
 SCF Done:  E(UB3LYP) =  -573.589762028     A.U. after   13 cycles
 SCF Done:  E(UB3LYP) =  -573.589762937     A.U. after   13 cycles
 SCF Done:  E(UB3LYP) =  -573.589820661     A.U. after   12 cycles
 SCF Done:  E(UB3LYP) =  -573.589829079     A.U. after   11 cycles
 SCF Done:  E(UB3LYP) =  -573.589830754     A.U. after   11 cycles
 SCF Done:  E(UB3LYP) =  -573.589834388     A.U. after   11 cycles
 SCF Done:  E(UB3LYP) =  -573.589834548     A.U. after   10 cycles
 SCF Done:  E(UB3LYP) =  -573.589834945     A.U. after   11 cycles
 Optimization completed.
    -- Stationary point found.
 Normal termination of Gaussian 16 at Sat Feb 10 10:34:09 2024.

 ----------------------------------------------------------------------
 #P Geom=AllCheck Guess=TCheck SCRF=Check GenChk UB3LYP/6-311++G(d,p) F
 req
 ----------------------------------------------------------------------

 Structure from the checkpoint file:  "058.chk"
 --------
 Oxidized
 --------
 Charge =  0 Multiplicity = 1

                          Input orientation:
 ---------------------------------------------------------------------
 Center     Atomic      Atomic             Coordinates (Angstroms)
 Number     Number       Type             X           Y           Z
 ---------------------------------------------------------------------
      1          6           0       -0.351333    0.772678    0.373958
      2          6           0       -1.441361   -0.112033   -0.083428
      3          6           0       -1.234635   -1.293931   -0.691645
      4          6           0        0.173028   -1.737670   -0.919063
      5          6           0        1.274439   -0.859769   -0.454065
      6          6           0        1.057505    0.309417    0.170160
      7          8           0       -0.606111    1.860154    0.874476
      8          8           0        0.427160   -2.796304   -1.475253
      9          6           0        2.251128    1.112017    0.646028
     10          6           0        2.161147    1.846131    1.955112
     11          8           0        3.267111    1.103177   -0.024903
     12          1           0       -2.442268    0.267109    0.093112
     13          1           0        1.502460    2.710087    1.840968
     14          1           0        3.156448    2.170286    2.256102
     15          1           0        1.717593    1.211524    2.726912
     16          6           0       -2.331568   -2.192985   -1.166639
     17          1           0        2.280038   -1.222836   -0.634355
     18          1           0       -3.309232   -1.763302   -0.950073
     19          1           0       -2.258432   -3.172814   -0.686393
     20          1           0       -2.247816   -2.364218   -2.243451
 ---------------------------------------------------------------------

 SCF Done:  E(UB3LYP) =  -573.589834945     A.U. after    1 cycles

 Alpha  occ. eigenvalues --  -19.15207 -19.14873 -19.13954 -10.29736 -10.29532
 Alpha  occ. eigenvalues --  -10.29215 -10.22918 -10.22723 -10.22544 -10.21053
 Alpha  occ. eigenvalues --  -10.18216 -10.17942  -1.08137  -1.07906  -1.07205
 Alpha  occ. eigenvalues --   -0.87749  -0.82472  -0.76410  -0.73777  -0.70608
 Alpha  occ. eigenvalues --   -0.64053  -0.62350  -0.56137  -0.54065  -0.50783
 Alpha  occ. eigenvalues --   -0.49241  -0.47676  -0.47281  -0.45730  -0.45645
 Alpha  occ. eigenvalues --   -0.45535  -0.43365  -0.42981  -0.41585  -0.41500
 Alpha  occ. eigenvalues --   -0.40451  -0.39780  -0.38188  -0.32069  -0.30128
 Alpha  occ. eigenvalues --   -0.29943  -0.29534  -0.27588
 Alpha virt. eigenvalues --   -0.14644  -0.07007  -0.02229  -0.00662   0.00243
 Alpha virt. eigenvalues --    0.00459   0.01260   0.02490   0.02969   0.03260
 Alpha virt. eigenvalues --    0.04322   0.04601   0.05014   0.06223   0.06610

  Beta  occ. eigenvalues --  -19.15207 -19.14873 -19.13954 -10.29736 -10.29532
  Beta  occ. eigenvalues --  -10.29215 -10.22918 -10.22723 -10.22544 -10.21053
  Beta  occ. eigenvalues --  -10.18216 -10.17942  -1.08137  -1.07906  -1.07205
  Beta  occ. eigenvalues --   -0.87749  -0.82472  -0.76410  -0.73777  -0.70608
  Beta  occ. eigenvalues --   -0.64053  -0.62350  -0.56137  -0.54065  -0.50783
  Beta  occ. eigenvalues --   -0.49241  -0.47676  -0.47281  -0.45730  -0.45645
  Beta  occ. eigenvalues --   -0.45535  -0.43365  -0.42981  -0.41585  -0.41500
  Beta  occ. eigenvalues --   -0.40451  -0.39780  -0.38188  -0.32069  -0.30128
  Beta  occ. eigenvalues --   -0.29943  -0.29534  -0.27588
  Beta virt. eigenvalues --   -0.14644  -0.07007  -0.02229  -0.00662   0.00243
  Beta virt. eigenvalues --    0.00459   0.01260   0.02490   0.02969   0.03260
  Beta virt. eigenvalues --    0.04322   0.04601   0.05014   0.06223   0.06610

 Mulliken charges and spin densities:
               1          2
     1  C   -1.316364  -0.000000
     2  C   -0.443454  -0.000000
     3  C    1.176137   0.000000
     4  C   -0.884089  -0.000000
     5  C   -0.073350  -0.000000
     6  C    1.529927   0.000000
     7  O   -0.255746   0.000000
     8  O   -0.251868   0.000000
     9  C    0.194933  -0.000000
    10  C   -0.633589   0.000000
    11  O   -0.295353   0.000000
    12  H    0.215141   0.000000
    13  H    0.214417  -0.000000
    14  H    0.181163   0.000000
    15  H    0.183505   0.000000
    16  C   -0.355779   0.000000
    17  H    0.254104   0.000000
    18  H    0.176291   0.000000
    19  H    0.191903   0.000000
    20  H    0.192069   0.000000
 Sum of Mulliken charges =  -0.00000   0.00000

 Dipole moment (field-independent basis, Debye):
    X=             -3.7013    Y=             -0.9280    Z=              1.8303  Tot=              4.2321
 Quadrupole moment (field-independent basis, Debye-Ang):
   XX=            -74.9858   YY=            -80.4929   ZZ=            -68.5738
   XY=              3.9265   XZ=              8.5926   YZ=             -3.4738

  Exact polarizability: 148.226   3.713 194.710  -2.905  59.527 123.546
 Approx polarizability: 157.132 -13.501 256.837 -15.599  81.473 149.663

                      1                      2                      3
                      A                      A                      A
 Frequencies --     34.1933                53.6555               112.4185
 Red. masses --      3.9522                 6.0453                 1.4710
 Frc consts  --      0.0027                 0.0103                 0.0110
 IR Inten    --      8.1046                 7.7411                 5.2744

                      4                      5                      6
                      A                      A                      A
 Frequencies --    125.4494               133.2099               174.3935
 Red. masses --      2.4352                 1.4647                 2.3223
 Frc consts  --      0.0226                 0.0153                 0.0416
 IR Inten    --      6.1188                 4.2755                 0.5798

                      7                      8                      9
                      A                      A                      A
 Frequencies --    186.9779               268.8319               287.9499
 Red. masses --      3.5213                 4.1788                 3.4400
 Frc consts  --      0.0725                 0.1779                 0.1681
 IR Inten    --      3.9320                 3.4983                 0.7642

                     10                     11                     12
                      A                      A                      A
 Frequencies --    308.7981               381.3830               399.3743
 Red. masses --      6.7424                 3.5502                 6.1548
 Frc consts  --      0.3788                 0.3042                 0.5784
 IR Inten    --      1.9261                 4.7199                23.7036

                     13                     14                     15
                      A                      A                      A
 Frequencies --    414.9185               483.3253               546.9108
 Red. masses --      4.1431                10.7264                 4.1936
 Frc consts  --      0.4202                 1.4763                 0.7390
 IR Inten    --      7.6710                 7.5535                29.9967

                     16                     17                     18
                      A                      A                      A
 Frequencies --    558.4466               628.1209               661.9846
 Red. masses --      3.6308                 3.9362                 4.2078
 Frc consts  --      0.6671                 0.9150                 1.0864
 IR Inten    --      8.4800                 8.7874                 7.0981

                     19                     20                     21
                      A                      A                      A
 Frequencies --    695.3295               704.8765               788.2077
 Red. masses --      4.8499                 4.0327                 4.4003
 Frc consts  --      1.3816                 1.1805                 1.6107
 IR Inten    --     13.4896                 9.4342                 0.5731

                     22                     23                     24
                      A                      A                      A
 Frequencies --    803.2258               885.1187               944.6033
 Red. masses --      3.4520                 1.4316                 1.6634
 Frc consts  --      1.3122                 0.6608                 0.8745
 IR Inten    --      3.0762                 3.4043                67.6444

                     25                     26                     27
                      A                      A                      A
 Frequencies --    979.9192              1006.1549              1019.0803
 Red. masses --      2.6266                 2.4375                 1.6731
 Frc consts  --      1.4860                 1.4539                 1.0238
 IR Inten    --     21.4808                 4.4755                65.7492

                     28                     29                     30
                      A                      A                      A
 Frequencies --   1043.1043              1056.7303              1139.7440
 Red. masses --      1.8834                 1.5428                 2.8927
 Frc consts  --      1.2074                 1.0150                 2.2139
 IR Inten    --      7.9555                 4.4158               101.1643

                     31                     32                     33
                      A                      A                      A
 Frequencies --   1204.6421              1245.1409              1249.7547
 Red. masses --      2.9657                 1.7568                 3.2368
 Frc consts  --      2.5357                 1.6048                 2.9787
 IR Inten    --     18.0220               105.7915               255.5698

                     34                     35                     36
                      A                      A                      A
 Frequencies --   1353.0133              1369.6641              1381.3390
 Red. masses --      2.4779                 2.5921                 1.2926
 Frc consts  --      2.6726                 2.8651                 1.4532
 IR Inten    --     96.5092                13.7147                77.3602

                     37                     38                     39
                      A                      A                      A
 Frequencies --   1409.3710              1441.4357              1459.0121
 Red. masses --      1.3242                 1.0523                 1.0427
 Frc consts  --      1.5497                 1.2882                 1.3077
 IR Inten    --     19.2732                32.6556                14.6802

                     40                     41                     42
                      A                      A                      A
 Frequencies --   1461.8022              1468.8539              1645.1264
 Red. masses --      1.0679                 1.0729                 8.5691
 Frc consts  --      1.3445                 1.3638                13.6642
 IR Inten    --     20.4425                26.3186                15.1844

                     43                     44                     45
                      A                      A                      A
 Frequencies --   1677.0734              1689.9287              1709.1833
 Red. masses --      9.5746                11.8766                 9.2592
 Frc consts  --     15.8663                19.9838                15.9368
 IR Inten    --     59.4062              1168.5601                99.5146

                     46                     47                     48
                      A                      A                      A
 Frequencies --   1735.6999              3036.9168              3043.3790
 Red. masses --     10.2223                 1.0368                 1.0356
 Frc consts  --     18.1446                 5.6338                 5.6512
 IR Inten    --    263.6073                 8.1084                 2.1547

                     49                     50                     51
                      A                      A                      A
 Frequencies --   3087.2851              3106.5080              3129.6728
 Red. masses --      1.0992                 1.0979                 1.1024
 Frc consts  --      6.1727                 6.2427                 6.3617
 IR Inten    --      9.3584                 6.2042                15.1660

                     52                     53                     54
                      A                      A                      A
 Frequencies --   3144.3490              3179.1892              3190.8891
 Red. masses --      1.1047                 1.0923                 1.0921
 Frc consts  --      6.4351                 6.5047                 6.5515
 IR Inten    --     17.2635                 4.6003                 1.3003

 - Thermochemistry -
 -------------------
 Temperature   298.150 Kelvin.  Pressure   1.00000 Atm.
 Atom     1 has atomic number  6 and mass  12.00000

 Molecular mass:   164.04734 amu.
 Principal axes and moments of inertia in atomic units:
                           1         2         3
     Eigenvalues --  1036.984762724.141043628.87220
           X            0.63200   0.77466   0.02182
           Y            0.67094  -0.53286  -0.51566
           Z            0.38783  -0.34054   0.85652
 This molecule is an asymmetric top.
 Rotational symmetry number  1.
 Warning -- assumption of classical behavior for rotation
           may cause significant error
 Rotational temperatures (Kelvin)      0.08352     0.03179     0.02387
 Rotational constants (GHZ):           1.74037     0.66250     0.49733
 Zero-point vibrational energy     390255.7 (Joules/Mol)
                                   93.27336 (Kcal/Mol)
 Warning -- explicit consideration of  16 degrees of freedom as
           vibrations may cause significant error
 Vibrational temperatures:     49.20    77.20   161.75   180.49   191.66
          (Kelvin)            250.91   269.02   386.79   414.30   444.29
                              548.73   574.61   596.98   695.40   786.88
                              803.48   903.73   952.45  1000.42  1014.16
                             1134.06  1155.66  1273.49  1359.07  1409.89
                             1447.63  1466.23  1500.79  1520.40  1639.84
                             1733.21  1791.48  1798.12  1946.68  1970.64
                             1987.44  2027.77  2073.90  2099.19  2103.21
                             2113.35  2366.97  2412.93  2431.43  2459.13
                             2497.28  4369.45  4378.74  4441.91  4469.57
                             4502.90  4524.02  4574.14  4590.98

 Zero-point correction=                           0.148641 (Hartree/Particle)
 Thermal correction to Energy=                    0.160339
 Thermal correction to Enthalpy=                  0.161283
 Thermal correction to Gibbs Free Energy=         0.110021
 Sum of electronic and zero-point Energies=           -573.441194
 Sum of electronic and thermal Energies=              -573.429496
 Sum of electronic and thermal Enthalpies=            -573.428552
 Sum of electronic and thermal Free Energies=         -573.479814

                     E (Thermal)             CV                S
                      KCal/Mol        Cal/Mol-Kelvin    Cal/Mol-Kelvin
 Total                  100.614             41.884            107.891
 Electronic               0.000              0.000              0.000
 Translational            0.889              2.981             41.193
 Rotational               0.889              2.981             30.706
 Vibrational             98.837             35.923             35.991
 Vibration     1          0.594              1.983              5.570
 Vibration     2          0.596              1.976              4.678
 Vibration     3          0.607              1.939              3.227
 Vibration     4          0.610              1.928              3.015
 Vibration     5          0.613              1.920              2.899
 Vibration     6          0.627              1.874              2.388
 Vibration     7          0.632              1.858              2.258
 Vibration     8          0.673              1.730              1.604
 Vibration     9          0.685              1.696              1.486
 Vibration    10          0.698              1.657              1.369
 Vibration    11          0.751              1.510              1.034
 Vibration    12          0.765              1.471              0.965
 Vibration    13          0.778              1.438              0.909
 Vibration    14          0.840              1.287              0.701
 Vibration    15          0.902              1.146              0.551
 Vibration    16          0.914              1.121              0.527

                           ! Non-Optimized Parameters !
 Normal termination of Gaussian 16 at Sat Feb 10 10:54:58 2024.
