 Gaussian 16, Revision A.03,
 Gaussian 16:  ES64L-G16RevA.03 25-Dec-2016

 ----------------------------------------------------------------
 #P UB3LYP/6-311++G(d,p) SCRF=(PCM,Solvent=n,n-DiMethylFormamide)
 ----------------------------------------------------------------

 ------------------
 Quinone PCM in DMF
 ------------------
 Symbolic Z-matrix:
 Charge =  0 Multiplicity = 1

                         Standard orientation:
 ---------------------------------------------------------------------
 Center     Atomic      Atomic             Coordinates (Angstroms)
 Number     Number       Type             X           Y           Z
 ---------------------------------------------------------------------
      1          6           0        7.245918    1.204096    0.209405
      2          6           0        8.377869    1.066820    1.179316
      3          6           0        8.944183   -0.143489    1.374917
      4          6           0        8.434665   -1.341558    0.643401
      5          6           0        7.294929   -1.205856   -0.314204
      6          6           0        6.747729    0.008668   -0.534460
      7          8           0        6.724437    2.295492    0.023821
      8          8           0        8.957117   -2.431386    0.833050
      9          6           0        5.600003    0.245848   -1.493030
     10          6           0        6.831873   -2.463310   -0.997218
     11          6           0        8.818122    2.325279    1.881193
     12          6           0       10.088935   -0.402063    2.311368
     13          6           0        4.256353    0.101052   -0.812574
     14          1           0        5.688565   -0.430350   -2.343501
     15          1           0        5.688096    1.267549   -1.874354
     16          1           0        7.270535   -3.336813   -0.517816
     17          1           0        7.140075   -2.471485   -2.048711
     18          1           0        5.743444   -2.543709   -0.971246
     19          1           0        8.164102    3.152389    1.611559
     20          1           0        9.841524    2.594241    1.601956
     21          1           0        8.796868    2.201786    2.967107
     22          1           0       10.461121    0.514552    2.764990
     23          1           0       10.908376   -0.895942    1.782812
     24          1           0        9.785146   -1.090310    3.105943
     25          6           0        3.197293   -0.617358   -1.210288
     26          6           0        3.153696   -1.461358   -2.460799
     27          6           0        1.922258   -0.601925   -0.390815
     28          6           0        0.722782    0.069828   -1.087836
     29          6           0       -0.527688    0.097734   -0.199741
     30          6           0       -1.801920    0.654709   -0.866066
     31          6           0       -3.020526    0.420955    0.049663
     32          6           0       -4.388299    0.715147   -0.581092
     33          6           0       -5.556060    0.368970    0.352586
     34          6           0       -6.964656    0.543550   -0.250403
     35          6           0       -8.022334   -0.056376    0.698076
     36          6           0       -9.443213   -0.157137    0.127132
     37          6           0       -1.646890    2.134599   -1.248579
     38          6           0      -10.417968   -0.855022    1.084851
     39          6           0      -11.842495   -1.070265    0.538761
     40          6           0      -12.577922    0.251355    0.272656
     41          6           0      -12.656897   -1.954512    1.493814
     42          1           0        4.157612    0.681555    0.102139
     43          1           0        4.126879   -1.570665   -2.939326
     44          1           0        2.472581   -1.030420   -3.202439
     45          1           0        2.774099   -2.464008   -2.233620
     46          1           0        2.111355   -0.090619    0.558509
     47          1           0        1.646117   -1.635554   -0.139135
     48          1           0        0.487018   -0.460656   -2.017913
     49          1           0        1.012798    1.085999   -1.373690
     50          1           0       -0.315960    0.680783    0.707098
     51          1           0       -0.734103   -0.925059    0.140400
     52          1           0       -1.968662    0.081058   -1.789718
     53          1           0       -2.902761    1.025748    0.959476
     54          1           0       -3.009205   -0.625397    0.380066
     55          1           0       -4.487394    0.137261   -1.509964
     56          1           0       -4.444010    1.769135   -0.867389
     57          1           0       -5.482486    0.975610    1.265855
     58          1           0       -5.445049   -0.674210    0.674362
     59          6           0       -7.265316    2.011944   -0.588060
     60          1           0       -8.044624    0.533755    1.624763
     61          1           0       -7.694137   -1.062092    0.989492
     62          1           0       -9.411287   -0.711964   -0.820341
     63          1           0       -9.817362    0.841953   -0.114298
     64          1           0       -0.804115    2.292186   -1.925552
     65          1           0       -1.476339    2.747682   -0.356037
     66          1           0       -2.538195    2.518430   -1.750146
     67          1           0      -10.480495   -0.282985    2.021135
     68          1           0      -10.000329   -1.832814    1.356689
     69          1           0      -11.753371   -1.604724   -0.417407
     70          1           0      -12.061298    0.869733   -0.465314
     71          1           0      -12.669143    0.836673    1.194840
     72          1           0      -13.588778    0.067107   -0.103294
     73          1           0      -12.168783   -2.919882    1.658017
     74          1           0      -13.658866   -2.148358    1.099332
     75          1           0      -12.773155   -1.470378    2.469950
     76          1           0       -6.996401   -0.033083   -1.186610
     77          1           0       -7.244311    2.627982    0.318463
     78          1           0       -8.250020    2.128742   -1.046479
     79          1           0       -6.534660    2.424791   -1.287464
 ---------------------------------------------------------------------

 SCF Done:  E(UB3LYP) =  -1284.81483605     A.U. after   15 cycles

 The electronic state is 1-A.
 Alpha  occ. eigenvalues --  -19.13534 -19.13469 -10.27940 -10.27839 -10.20946
 Alpha  occ. eigenvalues --  -10.20927 -10.20825 -10.20715 -10.18150 -10.17993
 Alpha  occ. eigenvalues --  -10.17366 -10.17187 -10.17183 -10.16983 -10.16875
 Alpha  occ. eigenvalues --  -10.16852 -10.16789 -10.16678 -10.16416 -10.16273
 Alpha  occ. eigenvalues --  -10.15962 -10.15827 -10.15823 -10.15806 -10.15803
 Alpha  occ. eigenvalues --  -10.15778 -10.15777 -10.15349 -10.15319 -10.15256
 Alpha  occ. eigenvalues --  -10.15222  -1.06783  -1.06585  -0.86710  -0.83571
 Alpha  occ. eigenvalues --   -0.82462  -0.81955  -0.81081  -0.80038  -0.77161
 Alpha  occ. eigenvalues --   -0.75688  -0.74865  -0.74151  -0.72683  -0.72039
 Alpha  occ. eigenvalues --   -0.68924  -0.68114  -0.67877  -0.67587  -0.66848
 Alpha  occ. eigenvalues --   -0.65938  -0.64533  -0.61882  -0.59398  -0.57784
 Alpha  occ. eigenvalues --   -0.57557  -0.57110  -0.56075  -0.55662  -0.54891
 Alpha  occ. eigenvalues --   -0.54297  -0.52176  -0.48457  -0.48020  -0.47654
 Alpha  occ. eigenvalues --   -0.47475  -0.46954  -0.46387  -0.46327  -0.45080
 Alpha  occ. eigenvalues --   -0.44283  -0.44204  -0.44081  -0.43531  -0.43210
 Alpha  occ. eigenvalues --   -0.42968  -0.42901  -0.42477  -0.42111  -0.41867
 Alpha  occ. eigenvalues --   -0.41797  -0.41479  -0.41260  -0.40869  -0.40491
 Alpha  occ. eigenvalues --   -0.39592  -0.39373  -0.39184  -0.38832  -0.38761
 Alpha  occ. eigenvalues --   -0.38211  -0.38127  -0.37840  -0.37728  -0.37350
 Alpha  occ. eigenvalues --   -0.37030  -0.36745  -0.36016  -0.35780  -0.35413
 Alpha  occ. eigenvalues --   -0.35127  -0.34405  -0.34152  -0.33548  -0.33108
 Alpha  occ. eigenvalues --   -0.32437  -0.32326  -0.31891  -0.31739  -0.31609
 Alpha  occ. eigenvalues --   -0.31354  -0.31257  -0.30723  -0.29223  -0.29001
 Alpha  occ. eigenvalues --   -0.28804  -0.27257  -0.26604  -0.24200
 Alpha virt. eigenvalues --   -0.12606  -0.01894  -0.01164  -0.00681  -0.00265
 Alpha virt. eigenvalues --    0.00101   0.00224   0.00471   0.00518   0.00703
 Alpha virt. eigenvalues --    0.00921   0.01312   0.01350   0.01551   0.01945

  Beta  occ. eigenvalues --  -19.13534 -19.13469 -10.27940 -10.27839 -10.20946
  Beta  occ. eigenvalues --  -10.20927 -10.20825 -10.20715 -10.18150 -10.17993
  Beta  occ. eigenvalues --  -10.17366 -10.17187 -10.17183 -10.16983 -10.16875
  Beta  occ. eigenvalues --  -10.16852 -10.16789 -10.16678 -10.16416 -10.16273
  Beta  occ. eigenvalues --  -10.15962 -10.15827 -10.15823 -10.15806 -10.15803
  Beta  occ. eigenvalues --  -10.15778 -10.15777 -10.15349 -10.15319 -10.15256
  Beta  occ. eigenvalues --  -10.15222  -1.06783  -1.06585  -0.86710  -0.83571
  Beta  occ. eigenvalues --   -0.82462  -0.81955  -0.81081  -0.80038  -0.77161
  Beta  occ. eigenvalues --   -0.75688  -0.74865  -0.74151  -0.72683  -0.72039
  Beta  occ. eigenvalues --   -0.68924  -0.68114  -0.67877  -0.67587  -0.66848
  Beta  occ. eigenvalues --   -0.65938  -0.64533  -0.61882  -0.59398  -0.57784
  Beta  occ. eigenvalues --   -0.57557  -0.57110  -0.56075  -0.55662  -0.54891
  Beta  occ. eigenvalues --   -0.54297  -0.52176  -0.48457  -0.48020  -0.47654
  Beta  occ. eigenvalues --   -0.47475  -0.46954  -0.46387  -0.46327  -0.45080
  Beta  occ. eigenvalues --   -0.44283  -0.44204  -0.44081  -0.43531  -0.43210
  Beta  occ. eigenvalues --   -0.42968  -0.42901  -0.42477  -0.42111  -0.41867
  Beta  occ. eigenvalues --   -0.41797  -0.41479  -0.41260  -0.40869  -0.40491
  Beta  occ. eigenvalues --   -0.39592  -0.39373  -0.39184  -0.38832  -0.38761
  Beta  occ. eigenvalues --   -0.38211  -0.38127  -0.37840  -0.37728  -0.37350
  Beta  occ. eigenvalues --   -0.37030  -0.36745  -0.36016  -0.35780  -0.35413
  Beta  occ. eigenvalues --   -0.35127  -0.34405  -0.34152  -0.33548  -0.33108
  Beta  occ. eigenvalues --   -0.32437  -0.32326  -0.31891  -0.31739  -0.31609
  Beta  occ. eigenvalues --   -0.31354  -0.31257  -0.30723  -0.29223  -0.29001
  Beta  occ. eigenvalues --   -0.28804  -0.27257  -0.26604  -0.24200
  Beta virt. eigenvalues --   -0.12606  -0.01894  -0.01164  -0.00681  -0.00265
  Beta virt. eigenvalues --    0.00101   0.00224   0.00471   0.00518   0.00703
  Beta virt. eigenvalues --    0.00921   0.01312   0.01350   0.01551   0.01945

 Mulliken charges and spin densities:
               1          2
     1  C   -1.348876   0.000000
     2  C    0.198511   0.000000
     3  C    0.508387  -0.000000
     4  C   -0.991008  -0.000000
     5  C    0.961752   0.000000
     6  C    1.104354  -0.000000
     7  O   -0.253102  -0.000000
     8  O   -0.269287  -0.000000
     9  C   -0.068200  -0.000000
    10  C   -0.648208   0.000000
    11  C   -0.526021   0.000000
    12  C   -0.540938  -0.000000
    13  C   -0.618160   0.000000
    14  H    0.182877  -0.000000
    15  H    0.248774   0.000000
    16  H    0.188065   0.000000
    17  H    0.209553  -0.000000
    18  H    0.173807  -0.000000
    19  H    0.193756  -0.000000
    20  H    0.186826   0.000000
    21  H    0.176959   0.000000
    22  H    0.170678  -0.000000
    23  H    0.181672   0.000000
    24  H    0.188800  -0.000000
    25  C    1.414575   0.000000
    26  C   -0.783121   0.000000
    27  C   -1.247445  -0.000000
    28  C   -0.157885   0.000000
    29  C   -0.877587   0.000000
    30  C    1.377297  -0.000000
    31  C   -0.981128   0.000000
    32  C   -0.058764   0.000000
    33  C   -1.028285  -0.000000
    34  C    1.352856   0.000000
    35  C   -0.765758   0.000000
    36  C    0.049635  -0.000000
    37  C   -0.789682  -0.000000
    38  C   -0.780193   0.000000
    39  C    0.553100  -0.000000
    40  C   -0.696777   0.000000
    41  C   -0.662926   0.000000
    42  H    0.236735   0.000000
    43  H    0.107030   0.000000
    44  H    0.177600   0.000000
    45  H    0.174636   0.000000
    46  H    0.126712   0.000000
    47  H    0.182627   0.000000
    48  H    0.131866   0.000000
    49  H    0.146238  -0.000000
    50  H    0.140976  -0.000000
    51  H    0.122734  -0.000000
    52  H    0.139518  -0.000000
    53  H    0.152008  -0.000000
    54  H    0.105212   0.000000
    55  H    0.157664  -0.000000
    56  H    0.091937  -0.000000
    57  H    0.147928  -0.000000
    58  H    0.110562   0.000000
    59  C   -0.774115   0.000000
    60  H    0.142864  -0.000000
    61  H    0.106065  -0.000000
    62  H    0.148338  -0.000000
    63  H    0.092188  -0.000000
    64  H    0.140052   0.000000
    65  H    0.161856   0.000000
    66  H    0.142708   0.000000
    67  H    0.142770  -0.000000
    68  H    0.127930  -0.000000
    69  H    0.140325   0.000000
    70  H    0.141212   0.000000
    71  H    0.147676  -0.000000
    72  H    0.146269  -0.000000
    73  H    0.135770   0.000000
    74  H    0.157188  -0.000000
    75  H    0.139847  -0.000000
    76  H    0.133832   0.000000
    77  H    0.159845   0.000000
    78  H    0.144154   0.000000
    79  H    0.142358   0.000000
 Sum of Mulliken charges =  -0.00000   0.00000

 Dipole moment (field-independent basis, Debye):
    X=             -0.4555    Y=             -0.4195    Z=             -0.5454  Tot=              0.8252
 Quadrupole moment (field-independent basis, Debye-Ang):
   XX=           -201.0439   YY=           -212.2126   ZZ=           -192.4372
   XY=             11.8076   XZ=              5.9586   YZ=              8.8267

 Normal termination of Gaussian 16 at Sun Jan 21 07:17:45 2024.
