 Gaussian 16, Revision A.03,
 Gaussian 16:  ES64L-G16RevA.03 25-Dec-2016

 --------------------------------------
 #P UB3LYP/6-311++G(d,p) nosym opt freq
 --------------------------------------

 -------
 Radical
 -------
 Symbolic Z-matrix:
 Charge = -1 Multiplicity = 2

 SCF Done:  E(UB3LYP) =  -803.576966138     A.U. after   23 cycles
 Optimization completed.
    -- Stationary point found.
 Normal termination of Gaussian 16 at Wed Dec 27 19:53:51 2023.

 ----------------------------------------------------------------------
 #P Geom=AllCheck Guess=TCheck SCRF=Check GenChk UB3LYP/6-311++G(d,p) F
 req
 ----------------------------------------------------------------------

 Structure from the checkpoint file:  "138-rad.chk"
 -------
 Radical
 -------
 Charge = -1 Multiplicity = 2

                          Input orientation:
 ---------------------------------------------------------------------
 Center     Atomic      Atomic             Coordinates (Angstroms)
 Number     Number       Type             X           Y           Z
 ---------------------------------------------------------------------
      1          6           0        4.696375   -0.709483    0.881007
      2          8           0        4.267699    0.348865    0.045266
      3          6           0        2.908221    0.496292   -0.148975
      4          6           0        2.536750    1.569378   -0.993101
      5          6           0        1.204601    1.800894   -1.250308
      6          6           0        0.189409    0.992028   -0.691618
      7          6           0       -1.211518    1.281817   -0.997795
      8          8           0       -1.547913    2.232190   -1.746093
      9          6           0       -2.199750    0.394396   -0.377287
     10          6           0       -3.572225    0.610955   -0.625654
     11          6           0       -4.539531   -0.198673   -0.063481
     12          6           0       -4.157966   -1.267400    0.778226
     13          6           0       -2.822015   -1.499211    1.036116
     14          6           0       -1.813667   -0.684449    0.472451
     15          6           0       -0.412121   -0.969616    0.775153
     16          8           0       -0.068342   -1.921988    1.525558
     17          6           0        0.571561   -0.083820    0.155440
     18          6           0        1.945362   -0.313882    0.413964
     19          1           0        4.388447   -1.685312    0.486925
     20          1           0        4.304318   -0.603848    1.899588
     21          1           0        5.785652   -0.654826    0.904097
     22          1           0        3.316333    2.189723   -1.421440
     23          1           0        0.894179    2.616326   -1.893563
     24          1           0       -3.834299    1.438366   -1.275303
     25          1           0       -5.590636   -0.015842   -0.266693
     26          1           0       -4.916965   -1.905612    1.221596
     27          1           0       -2.502097   -2.311977    1.678105
     28          1           0        2.180138   -1.145291    1.064896
 ---------------------------------------------------------------------

 SCF Done:  E(UB3LYP) =  -803.576966138     A.U. after    1 cycles

 Alpha  occ. eigenvalues --  -19.05243 -18.94520 -18.94373 -10.13189 -10.11952
 Alpha  occ. eigenvalues --  -10.09623 -10.09209 -10.05707 -10.05693 -10.05620
 Alpha  occ. eigenvalues --  -10.05506 -10.05213 -10.05011 -10.04956 -10.04937
 Alpha  occ. eigenvalues --  -10.04843 -10.04775 -10.04598  -0.96441  -0.87161
 Alpha  occ. eigenvalues --   -0.86747  -0.74026  -0.73131  -0.66837  -0.63642
 Alpha  occ. eigenvalues --   -0.63195  -0.62874  -0.59531  -0.54357  -0.51618
 Alpha  occ. eigenvalues --   -0.49531  -0.47237  -0.44002  -0.42880  -0.41446
 Alpha  occ. eigenvalues --   -0.37741  -0.37457  -0.37425  -0.34843  -0.33992
 Alpha  occ. eigenvalues --   -0.32715  -0.31218  -0.30288  -0.29557  -0.29554
 Alpha  occ. eigenvalues --   -0.28495  -0.27974  -0.27028  -0.26502  -0.24868
 Alpha  occ. eigenvalues --   -0.24814  -0.23452  -0.23190  -0.22421  -0.21120
 Alpha  occ. eigenvalues --   -0.19714  -0.14108  -0.13639  -0.13295  -0.11467
 Alpha  occ. eigenvalues --   -0.11394  -0.10633  -0.01373
 Alpha virt. eigenvalues --    0.07032   0.07073   0.08352   0.09494   0.09959
 Alpha virt. eigenvalues --    0.10285   0.10483   0.11454   0.11800   0.12058
 Alpha virt. eigenvalues --    0.12320   0.13503   0.14330   0.15597   0.15902

  Beta  occ. eigenvalues --  -19.05238 -18.93967 -18.93739 -10.13188 -10.11916
  Beta  occ. eigenvalues --  -10.09504 -10.09047 -10.05667 -10.05650 -10.05553
  Beta  occ. eigenvalues --  -10.05526 -10.05111 -10.05034 -10.04953 -10.04918
  Beta  occ. eigenvalues --  -10.04761 -10.04669 -10.04524  -0.96420  -0.86202
  Beta  occ. eigenvalues --   -0.85648  -0.73782  -0.73010  -0.66494  -0.63495
  Beta  occ. eigenvalues --   -0.62996  -0.62705  -0.59396  -0.53620  -0.51478
  Beta  occ. eigenvalues --   -0.49292  -0.47178  -0.43850  -0.42711  -0.41272
  Beta  occ. eigenvalues --   -0.37564  -0.37399  -0.37386  -0.34633  -0.33806
  Beta  occ. eigenvalues --   -0.32650  -0.31150  -0.30254  -0.29417  -0.28498
  Beta  occ. eigenvalues --   -0.28257  -0.27637  -0.26594  -0.26118  -0.24802
  Beta  occ. eigenvalues --   -0.23353  -0.22776  -0.22345  -0.22324  -0.20917
  Beta  occ. eigenvalues --   -0.18804  -0.13446  -0.12416  -0.11870  -0.10918
  Beta  occ. eigenvalues --   -0.10631  -0.10075
  Beta virt. eigenvalues --    0.04605   0.07068   0.07831   0.08343   0.09486
  Beta virt. eigenvalues --    0.10277   0.10481   0.10954   0.11475   0.12028
  Beta virt. eigenvalues --    0.12053   0.12316   0.13498   0.14317   0.15658

 Mulliken charges and spin densities:
               1          2
     1  C   -0.331629  -0.001661
     2  O   -0.184369   0.001946
     3  C   -0.731694   0.010760
     4  C   -0.293691   0.036037
     5  C    0.191760   0.005395
     6  C    0.230705   0.040302
     7  C   -0.895887   0.055535
     8  O   -0.365819   0.205896
     9  C    0.145940   0.053739
    10  C    0.124954   0.006149
    11  C   -0.414454   0.056193
    12  C   -0.416314   0.028485
    13  C    0.062323   0.028183
    14  C    0.405833   0.032906
    15  C   -0.804691   0.094006
    16  O   -0.375994   0.237975
    17  C    0.694675   0.081003
    18  C    0.495870   0.040334
    19  H    0.147873   0.001543
    20  H    0.147860   0.001540
    21  H    0.153956  -0.000177
    22  H    0.156613  -0.003452
    23  H    0.165899  -0.000373
    24  H    0.155784  -0.000483
    25  H    0.120840  -0.004368
    26  H    0.122726  -0.002757
    27  H    0.154364  -0.002096
    28  H    0.136567  -0.002559
 Sum of Mulliken charges =  -1.00000   1.00000

 Dipole moment (field-independent basis, Debye):
    X=              3.6404    Y=             -1.4087    Z=              1.0234  Tot=              4.0354
 Quadrupole moment (field-independent basis, Debye-Ang):
   XX=           -125.8274   YY=           -126.7080   ZZ=           -120.3825
   XY=              0.1248   XZ=             -0.7482   YZ=             11.5406

  Exact polarizability: 349.358  18.209 185.344   0.759 -61.136 151.000
 Approx polarizability: 506.562  15.569 333.965   8.593-128.797 263.812

                      1                      2                      3
                      A                      A                      A
 Frequencies --     45.7356                68.4472               120.9506
 Red. masses --      5.6061                 4.0579                 3.9782
 Frc consts  --      0.0069                 0.0112                 0.0343
 IR Inten    --      5.3842                 0.0229                 2.6010

                      4                      5                      6
                      A                      A                      A
 Frequencies --    137.4188               148.3032               158.8027
 Red. masses --      5.4173                 4.4051                 5.5260
 Frc consts  --      0.0603                 0.0571                 0.0821
 IR Inten    --      4.4920                 2.2225                 1.6175

                      7                      8                      9
                      A                      A                      A
 Frequencies --    196.9779               242.6352               247.4447
 Red. masses --      2.9190                 1.4374                 4.4587
 Frc consts  --      0.0667                 0.0499                 0.1608
 IR Inten    --      0.1239                 0.4427                 5.5893

                     10                     11                     12
                      A                      A                      A
 Frequencies --    297.7963               319.8286               352.3348
 Red. masses --      7.0670                 4.8264                 6.6667
 Frc consts  --      0.3693                 0.2909                 0.4876
 IR Inten    --      0.3188                 0.2804                 1.2505

                     13                     14                     15
                      A                      A                      A
 Frequencies --    379.0530               419.3552               430.3879
 Red. masses --     11.0390                 3.9999                 7.0263
 Frc consts  --      0.9345                 0.4144                 0.7668
 IR Inten    --      4.9045                 0.9070                 4.1088

                     16                     17                     18
                      A                      A                      A
 Frequencies --    444.8462               468.2594               475.1277
 Red. masses --      4.8882                 3.1133                 5.9267
 Frc consts  --      0.5699                 0.4022                 0.7883
 IR Inten    --      0.9080                 0.0029                 0.2735

                     19                     20                     21
                      A                      A                      A
 Frequencies --    498.6767               551.7513               573.2430
 Red. masses --      6.7857                 4.4384                 6.4838
 Frc consts  --      0.9942                 0.7961                 1.2553
 IR Inten    --      0.2151                 4.7890                20.8114

                     22                     23                     24
                      A                      A                      A
 Frequencies --    642.4448               656.2344               675.3477
 Red. masses --      6.9550                 3.5508                 6.2708
 Frc consts  --      1.6913                 0.9009                 1.6851
 IR Inten    --      4.8561                 9.8361                 4.6028

                     25                     26                     27
                      A                      A                      A
 Frequencies --    703.1366               706.6818               729.9173
 Red. masses --      6.4350                 2.4236                 4.3951
 Frc consts  --      1.8745                 0.7131                 1.3797
 IR Inten    --      1.4556                65.4677                 0.7700

                     28                     29                     30
                      A                      A                      A
 Frequencies --    747.5613               777.8908               795.4879
 Red. masses --      6.5874                 1.8441                 2.4644
 Frc consts  --      2.1690                 0.6574                 0.9188
 IR Inten    --     22.3708                11.1925                 6.1117

                     31                     32                     33
                      A                      A                      A
 Frequencies --    825.1417               855.4492               866.8856
 Red. masses --      2.0023                 6.3296                 1.5321
 Frc consts  --      0.8032                 2.7291                 0.6784
 IR Inten    --     20.5144                32.1618                 0.1902

                     34                     35                     36
                      A                      A                      A
 Frequencies --    895.1004               936.7278               980.0153
 Red. masses --      1.4830                 6.8975                 1.3245
 Frc consts  --      0.7001                 3.5659                 0.7495
 IR Inten    --     18.8753                20.7248                 0.6008

                     37                     38                     39
                      A                      A                      A
 Frequencies --    982.3502               984.6906               991.6206
 Red. masses --      1.2763                 1.3288                 3.9405
 Frc consts  --      0.7257                 0.7591                 2.2829
 IR Inten    --      0.6024                 2.9189                 6.0669

                     40                     41                     42
                      A                      A                      A
 Frequencies --   1036.8122              1059.9249              1106.0798
 Red. masses --      1.9916                 3.5421                 2.3441
 Frc consts  --      1.2614                 2.3446                 1.6897
 IR Inten    --     28.2268                36.9256                13.7199

                     43                     44                     45
                      A                      A                      A
 Frequencies --   1109.7162              1144.4153              1156.9507
 Red. masses --      1.8512                 1.5790                 1.5943
 Frc consts  --      1.3432                 1.2184                 1.2573
 IR Inten    --     10.1762                74.2377                29.9187

                     46                     47                     48
                      A                      A                      A
 Frequencies --   1167.8074              1192.4555              1205.6019
 Red. masses --      1.2802                 2.4607                 1.6554
 Frc consts  --      1.0287                 2.0616                 1.4176
 IR Inten    --      0.5780                 2.5552                 9.3986

                     49                     50                     51
                      A                      A                      A
 Frequencies --   1221.0025              1228.4814              1242.0405
 Red. masses --      1.7543                 2.2845                 4.1221
 Frc consts  --      1.5410                 2.0313                 3.7467
 IR Inten    --     36.8309                33.9746               227.5816

                     52                     53                     54
                      A                      A                      A
 Frequencies --   1266.4792              1329.9802              1358.2184
 Red. masses --      1.9277                 2.3710                10.6570
 Frc consts  --      1.8218                 2.4710                11.5831
 IR Inten    --     41.3203                30.8663                15.0744

                     55                     56                     57
                      A                      A                      A
 Frequencies --   1374.4021              1417.2428              1461.5479
 Red. masses --      8.1375                 3.1522                 1.8159
 Frc consts  --      9.0567                 3.7304                 2.2854
 IR Inten    --      1.5817               284.7799               143.8812

                     58                     59                     60
                      A                      A                      A
 Frequencies --   1470.4489              1477.6942              1483.4560
 Red. masses --      1.9427                 2.5408                 1.0454
 Frc consts  --      2.4748                 3.2688                 1.3555
 IR Inten    --     34.8575                11.9088                 6.7965

                     61                     62                     63
                      A                      A                      A
 Frequencies --   1497.7248              1508.8230              1525.7639
 Red. masses --      2.6536                 1.0717                 5.1519
 Frc consts  --      3.5071                 1.4375                 7.0663
 IR Inten    --     36.1359                21.3571               540.1126

                     64                     65                     66
                      A                      A                      A
 Frequencies --   1537.0731              1561.1689              1615.2151
 Red. masses --      8.5899                 6.3037                 8.6211
 Frc consts  --     11.9571                 9.0520                13.2518
 IR Inten    --     82.0453                72.6360                 9.1722

                     67                     68                     69
                      A                      A                      A
 Frequencies --   1620.6559              1634.9505              2991.7177
 Red. masses --      5.7243                 6.9470                 1.0335
 Frc consts  --      8.8584                10.9409                 5.4500
 IR Inten    --    107.2560                91.8965                81.4489

                     70                     71                     72
                      A                      A                      A
 Frequencies --   3043.0417              3103.6450              3132.5414
 Red. masses --      1.1051                 1.0993                 1.0846
 Frc consts  --      6.0294                 6.2391                 6.2705
 IR Inten    --     48.3596                55.9203                18.4624

                     73                     74                     75
                      A                      A                      A
 Frequencies --   3151.8345              3165.9462              3180.7243
 Red. masses --      1.0910                 1.0869                 1.0914
 Frc consts  --      6.3856                 6.4188                 6.5053
 IR Inten    --     52.6048                 8.3752                11.7837

                     76                     77                     78
                      A                      A                      A
 Frequencies --   3183.3732              3186.1486              3205.4749
 Red. masses --      1.0928                 1.0935                 1.0887
 Frc consts  --      6.5249                 6.5406                 6.5911
 IR Inten    --     36.6950                16.3086                13.9298

 - Thermochemistry -
 -------------------
 Temperature   298.150 Kelvin.  Pressure   1.00000 Atm.
 Atom     1 has atomic number  6 and mass  12.00000

 Molecular mass:   238.06299 amu.
 Principal axes and moments of inertia in atomic units:
                           1         2         3
     Eigenvalues --  1919.827506541.213528449.62393
           X            0.99719  -0.05795  -0.04753
           Y            0.07491   0.79083   0.60744
           Z            0.00239  -0.60929   0.79294
 This molecule is an asymmetric top.
 Rotational symmetry number  1.
 Warning -- assumption of classical behavior for rotation
           may cause significant error
 Rotational temperatures (Kelvin)      0.04512     0.01324     0.01025
 Rotational constants (GHZ):           0.94005     0.27590     0.21359
 Zero-point vibrational energy     548407.9 (Joules/Mol)
                                  131.07263 (Kcal/Mol)
 Warning -- explicit consideration of  21 degrees of freedom as
           vibrations may cause significant error
 Vibrational temperatures:     65.80    98.48   174.02   197.71   213.38
          (Kelvin)            228.48   283.41   349.10   356.02   428.46
                              460.16   506.93   545.37   603.36   619.23
                              640.03   673.72   683.60   717.48   793.85
                              824.77   924.33   944.17   971.67  1011.66
                             1016.76  1050.19  1075.57  1119.21  1144.53
                             1187.19  1230.80  1247.26  1287.85  1347.74
                             1410.02  1413.38  1416.75  1426.72  1491.74
                             1525.00  1591.40  1596.63  1646.56  1664.59
                             1680.21  1715.68  1734.59  1756.75  1767.51
                             1787.02  1822.18  1913.54  1954.17  1977.46
                             2039.10  2102.84  2115.65  2126.07  2134.36
                             2154.89  2170.86  2195.23  2211.51  2246.17
                             2323.93  2331.76  2352.33  4304.41  4378.26
                             4465.45  4507.03  4534.79  4555.09  4576.35
                             4580.16  4584.16  4611.96

 Zero-point correction=                           0.208878 (Hartree/Particle)
 Thermal correction to Energy=                    0.222744
 Thermal correction to Enthalpy=                  0.223688
 Thermal correction to Gibbs Free Energy=         0.167565
 Sum of electronic and zero-point Energies=           -803.368089
 Sum of electronic and thermal Energies=              -803.354222
 Sum of electronic and thermal Enthalpies=            -803.353278
 Sum of electronic and thermal Free Energies=         -803.409401

                     E (Thermal)             CV                S
                      KCal/Mol        Cal/Mol-Kelvin    Cal/Mol-Kelvin
 Total                  139.774             55.470            118.121
 Electronic               0.000              0.000              1.377
 Translational            0.889              2.981             42.303
 Rotational               0.889              2.981             33.028
 Vibrational            137.997             49.508             41.412
 Vibration     1          0.595              1.979              4.994
 Vibration     2          0.598              1.969              4.198
 Vibration     3          0.609              1.932              3.085
 Vibration     4          0.614              1.916              2.840
 Vibration     5          0.618              1.905              2.694
 Vibration     6          0.621              1.893              2.564
 Vibration     7          0.636              1.844              2.161
 Vibration     8          0.659              1.775              1.783
 Vibration     9          0.661              1.767              1.749
 Vibration    10          0.691              1.678              1.429
 Vibration    11          0.706              1.636              1.311
 Vibration    12          0.729              1.570              1.156
 Vibration    13          0.749              1.515              1.043
 Vibration    14          0.782              1.428              0.894
 Vibration    15          0.792              1.404              0.857
 Vibration    16          0.804              1.372              0.812
 Vibration    17          0.825              1.320              0.742
 Vibration    18          0.832              1.305              0.723
 Vibration    19          0.854              1.253              0.661
 Vibration    20          0.907              1.136              0.541
 Vibration    21          0.929              1.089              0.498

 Optimization completed.
    -- Stationary point found.
 Normal termination of Gaussian 16 at Wed Dec 27 21:14:50 2023.
