 Q-Chem 5.4, Q-Chem, Inc., Pleasanton, CA (2021)
 Q-Chem 5.4.0 for Intel X86 EM64T Linux

User input:
--------------------------------------------------------------
$molecule
-1 2
C                  4.6963750000     -0.7094830000      0.8810070000
O                  4.2676990000      0.3488650000      0.0452660000
C                  2.9082210000      0.4962920000     -0.1489750000
C                  2.5367500000      1.5693780000     -0.9931010000
C                  1.2046010000      1.8008940000     -1.2503080000
C                  0.1894090000      0.9920280000     -0.6916180000
C                 -1.2115180000      1.2818170000     -0.9977950000
O                 -1.5479130000      2.2321900000     -1.7460930000
C                 -2.1997500000      0.3943960000     -0.3772870000
C                 -3.5722250000      0.6109550000     -0.6256540000
C                 -4.5395310000     -0.1986730000     -0.0634810000
C                 -4.1579660000     -1.2674000000      0.7782260000
C                 -2.8220150000     -1.4992110000      1.0361160000
C                 -1.8136670000     -0.6844490000      0.4724510000
C                 -0.4121210000     -0.9696160000      0.7751530000
O                 -0.0683420000     -1.9219880000      1.5255580000
C                  0.5715610000     -0.0838200000      0.1554400000
C                  1.9453620000     -0.3138820000      0.4139640000
H                  4.3884470000     -1.6853120000      0.4869250000
H                  4.3043180000     -0.6038480000      1.8995880000
H                  5.7856520000     -0.6548260000      0.9040970000
H                  3.3163330000      2.1897230000     -1.4214400000
H                  0.8941790000      2.6163260000     -1.8935630000
H                 -3.8342990000      1.4383660000     -1.2753030000
H                 -5.5906360000     -0.0158420000     -0.2666930000
H                 -4.9169650000     -1.9056120000      1.2215960000
H                 -2.5020970000     -2.3119770000      1.6781050000
H                  2.1801380000     -1.1452910000      1.0648960000
$end
$rem
MAX_SCF_CYCLES=200
BASIS  =  6-311++G(d,p)
GUI  =  2
JOB_TYPE  =  SP
METHOD  =  B3LYP
SOLVENT_METHOD = PCM
$end
$pcm
theory = CPCM
$end
$solvent
dielectric 37.219
opticaldielectric 1.43
$end

--------------------------------------------------------------

             Standard Nuclear Orientation (Angstroms)
    I     Atom           X                Y                Z
 ----------------------------------------------------------------
    1      C       4.6963750000    -0.7094830000     0.8810070000
    2      O       4.2676990000     0.3488650000     0.0452660000
    3      C       2.9082210000     0.4962920000    -0.1489750000
    4      C       2.5367500000     1.5693780000    -0.9931010000
    5      C       1.2046010000     1.8008940000    -1.2503080000
    6      C       0.1894090000     0.9920280000    -0.6916180000
    7      C      -1.2115180000     1.2818170000    -0.9977950000
    8      O      -1.5479130000     2.2321900000    -1.7460930000
    9      C      -2.1997500000     0.3943960000    -0.3772870000
   10      C      -3.5722250000     0.6109550000    -0.6256540000
   11      C      -4.5395310000    -0.1986730000    -0.0634810000
   12      C      -4.1579660000    -1.2674000000     0.7782260000
   13      C      -2.8220150000    -1.4992110000     1.0361160000
   14      C      -1.8136670000    -0.6844490000     0.4724510000
   15      C      -0.4121210000    -0.9696160000     0.7751530000
   16      O      -0.0683420000    -1.9219880000     1.5255580000
   17      C       0.5715610000    -0.0838200000     0.1554400000
   18      C       1.9453620000    -0.3138820000     0.4139640000
   19      H       4.3884470000    -1.6853120000     0.4869250000
   20      H       4.3043180000    -0.6038480000     1.8995880000
   21      H       5.7856520000    -0.6548260000     0.9040970000
   22      H       3.3163330000     2.1897230000    -1.4214400000
   23      H       0.8941790000     2.6163260000    -1.8935630000
   24      H      -3.8342990000     1.4383660000    -1.2753030000
   25      H      -5.5906360000    -0.0158420000    -0.2666930000
   26      H      -4.9169650000    -1.9056120000     1.2215960000
   27      H      -2.5020970000    -2.3119770000     1.6781050000
   28      H       2.1801380000    -1.1452910000     1.0648960000
 ----------------------------------------------------------------

    8    -803.6588886101      8.21e-06  Convergence criterion met
 Total energy in the final basis set =     -803.6588886101

                    Orbital Energies (a.u.)
 --------------------------------------------------------------

 Alpha MOs
 -- Occupied --
-19.1560 -19.0776 -19.0763 -10.2353 -10.2270 -10.2230 -10.2142 -10.1761
-10.1741 -10.1727 -10.1722 -10.1721 -10.1717 -10.1709 -10.1698 -10.1693
-10.1688 -10.1670  -1.0673  -1.0051  -1.0010  -0.8619  -0.8509  -0.7866
 -0.7540  -0.7496  -0.7459  -0.6990  -0.6670  -0.6320  -0.6129  -0.5882
 -0.5589  -0.5392  -0.5331  -0.4929  -0.4840  -0.4677  -0.4667  -0.4580
 -0.4363  -0.4286  -0.4228  -0.4224  -0.4178  -0.4109  -0.3998  -0.3912
 -0.3820  -0.3753  -0.3562  -0.3533  -0.3501  -0.3385  -0.3315  -0.3136
 -0.2654  -0.2580  -0.2557  -0.2488  -0.2392  -0.2313  -0.1422

 Beta MOs
 -- Occupied --
-19.1559 -19.0729 -19.0708 -10.2349 -10.2253 -10.2208 -10.2142 -10.1753
-10.1741 -10.1721 -10.1719 -10.1713 -10.1712 -10.1703 -10.1693 -10.1693
-10.1686 -10.1666  -1.0670  -0.9965  -0.9912  -0.8593  -0.8498  -0.7830
 -0.7516  -0.7478  -0.7444  -0.6979  -0.6595  -0.6304  -0.6105  -0.5876
 -0.5566  -0.5377  -0.5313  -0.4911  -0.4829  -0.4660  -0.4654  -0.4567
 -0.4357  -0.4276  -0.4219  -0.4143  -0.4100  -0.4075  -0.3983  -0.3896
 -0.3724  -0.3589  -0.3556  -0.3522  -0.3428  -0.3377  -0.3303  -0.3058
 -0.2551  -0.2472  -0.2464  -0.2442  -0.2345  -0.2254

          Ground-State Mulliken Net Atomic Charges

     Atom                 Charge (a.u.)    Spin (a.u.)
  --------------------------------------------------------
      1 C                    -0.365912      -0.000655
      2 O                    -0.217576       0.003201
      3 C                    -0.718046       0.013191
      4 C                    -0.425667       0.028026
      5 C                     0.133415       0.017493
      6 C                     0.181451       0.022415
      7 C                    -0.598256       0.095341
      8 O                    -0.479849       0.180776
      9 C                     0.066074       0.039253
     10 C                     0.122245       0.018388
     11 C                    -0.499941       0.052428
     12 C                    -0.486927       0.025575
     13 C                     0.067203       0.040517
     14 C                     0.315410       0.017162
     15 C                    -0.609963       0.136394
     16 O                    -0.489181       0.209260
     17 C                     0.630451       0.061041
     18 C                     0.534517       0.055120
     19 H                     0.174341       0.000713
     20 H                     0.174252       0.000721
     21 H                     0.197747      -0.000134
     22 H                     0.222016      -0.002819
     23 H                     0.180918      -0.000819
     24 H                     0.169777      -0.000895
     25 H                     0.195660      -0.003933
     26 H                     0.197944      -0.002531
     27 H                     0.169159      -0.002373
     28 H                     0.158737      -0.002858
  --------------------------------------------------------
  Sum of atomic charges =    -1.000000

                    Cartesian Multipole Moments
 -----------------------------------------------------------------
    Charge (ESU x 10^10)
                -4.8032
    Dipole Moment (Debye)
         X       4.0344      Y      -1.8715      Z       1.4014
       Tot       4.6629
    Quadrupole Moments (Debye-Ang)
        XX    -106.3232     XY       2.9937     YY    -127.2592
        XZ      -1.7585     YZ      12.2910     ZZ    -120.7729

 Total job time:  188.20s(wall), 390.38s(cpu)
        *  Thank you very much for using Q-Chem.  Have a nice day.  *
