 Q-Chem 5.4, Q-Chem, Inc., Pleasanton, CA (2021)
 Q-Chem 5.4.0 for Intel X86 EM64T Linux

User input:
--------------------------------------------------------------
$molecule
-2 1
C                 -0.6483900000      2.6786130000     -0.9733680000
C                 -1.7191670000      2.0615030000     -0.3763820000
C                 -1.5911720000      0.7488190000      0.1682360000
C                  0.6367190000      2.0428780000     -1.0701110000
C                  0.7560940000      0.6971530000     -0.5311960000
C                 -0.3736920000      0.0990760000      0.0780820000
C                  1.7495330000      2.6386400000     -1.6607300000
C                  3.0005740000      1.9867020000     -1.7665230000
C                  3.1153880000      0.6287190000     -1.2197620000
C                  2.0066140000      0.0456170000     -0.6356560000
C                  4.1196860000      2.6144180000     -2.3766260000
C                  5.3157690000      1.8449260000     -2.4065190000
C                  5.4665310000      0.5531330000     -1.8972750000
C                  4.3909230000     -0.1363780000     -1.2772480000
O                  4.1640940000      3.8182320000     -2.9048170000
O                  4.4801910000     -1.3170850000     -0.8005270000
O                  6.3567790000      2.5109090000     -3.0065010000
H                 -0.7572260000      3.6794490000     -1.3857850000
H                 -2.6757540000      2.5770360000     -0.3083200000
H                 -2.4431480000      0.2725840000      0.6463890000
H                 -0.2627320000     -0.9053030000      0.4827560000
H                  1.6754230000      3.6409010000     -2.0732520000
H                  2.1292910000     -0.9599400000     -0.2415230000
H                  6.4279570000      0.0519080000     -1.9726180000
H                  5.8820190000      3.3597610000     -3.2269820000
$end
$rem
MAX_SCF_CYCLES=200
BASIS  =  6-311++G(d,p)
GUI  =  2
JOB_TYPE  =  SP
METHOD  =  B3LYP
SOLVENT_METHOD = COSMO
$end
$solvent
dielectric 37.219
opticaldielectric 1.43
$end

--------------------------------------------------------------

             Standard Nuclear Orientation (Angstroms)
    I     Atom           X                Y                Z
 ----------------------------------------------------------------
    1      C       3.0115861166    -1.5719866646    -0.0132809713
    2      C       4.2483615065    -0.9768980967    -0.0072269528
    3      C       4.3713529451     0.4446269397     0.0092183194
    4      C       1.7986814319    -0.8015360087     0.0037880932
    5      C       1.9299443853     0.6470541225     0.0002934815
    6      C       3.2254384581     1.2188561800     0.0086420917
    7      C       0.5252354594    -1.3676155731     0.0065165149
    8      C      -0.6572622747    -0.5910983676     0.0002685756
    9      C      -0.5185305329     0.8707481399    -0.0021740432
   10      C       0.7483337621     1.4235733450    -0.0047615771
   11      C      -1.9445724970    -1.1923443041    -0.0003879734
   12      C      -3.0446004181    -0.2903672259     0.0010246970
   13      C      -2.9554212952     1.1034886629     0.0002294464
   14      C      -1.7027679264     1.7725515504    -0.0021912545
   15      O      -2.2197694633    -2.4785729972     0.0024979333
   16      O      -1.5717168690     3.0422413109    -0.0059648646
   17      O      -4.2568528030    -0.9366288219     0.0029433730
   18      H       2.9293602508    -2.6567327445    -0.0263425445
   19      H       5.1475686746    -1.5908132859    -0.0073154160
   20      H       5.3555528096     0.9055701613     0.0224525287
   21      H       3.3034356938     2.3045528617     0.0140725891
   22      H       0.4099615546    -2.4478446535     0.0032202147
   23      H       0.8119972835     2.5086912455    -0.0059641863
   24      H      -3.8623010118     1.7024978848     0.0006210331
   25      H      -3.9235368969    -1.8765536012     0.0036935627
 ----------------------------------------------------------------

   12    -764.1863165795      8.62e-06  Convergence criterion met
 Total energy in the final basis set =     -764.1863165795
    6    -764.4597259427      4.73e-06  Convergence criterion met
 Total energy in the final basis set =     -764.4597259427

                    Orbital Energies (a.u.)
 --------------------------------------------------------------

 Alpha MOs
 -- Occupied --
-19.1190 -19.0359 -19.0346 -10.1918 -10.1884 -10.1674 -10.1668 -10.1648
-10.1637 -10.1636 -10.1620 -10.1598 -10.1543 -10.1507 -10.1504 -10.1464
-10.1256  -1.0333  -0.9562  -0.9337  -0.8555  -0.8086  -0.7627  -0.7579
 -0.7115  -0.7077  -0.6460  -0.6171  -0.5910  -0.5788  -0.5446  -0.5169
 -0.5058  -0.4802  -0.4586  -0.4418  -0.4336  -0.4226  -0.4112  -0.3999
 -0.3992  -0.3814  -0.3770  -0.3754  -0.3730  -0.3532  -0.3462  -0.3379
 -0.3219  -0.3215  -0.3050  -0.2911  -0.2741  -0.2334  -0.2252  -0.2132
 -0.2099  -0.2052  -0.1174

          Ground-State Mulliken Net Atomic Charges

     Atom                 Charge (a.u.)
  ----------------------------------------
      1 C                    -0.233310
      2 C                    -0.363751
      3 C                    -0.411675
      4 C                     0.156880
      5 C                     0.169418
      6 C                    -0.200043
      7 C                    -0.037709
      8 C                     0.218310
      9 C                     0.278783
     10 C                     0.093363
     11 C                    -0.780613
     12 C                    -0.318597
     13 C                     0.349611
     14 C                    -0.543168
     15 O                    -0.772301
     16 O                    -0.686177
     17 O                    -0.371046
     18 H                     0.167375
     19 H                     0.193776
     20 H                     0.191789
     21 H                     0.169650
     22 H                     0.133839
     23 H                     0.130164
     24 H                     0.170243
     25 H                     0.295187
  ----------------------------------------
  Sum of atomic charges =    -2.000000

                    Cartesian Multipole Moments
 -----------------------------------------------------------------
    Charge (ESU x 10^10)
                -9.6064
    Dipole Moment (Debye)
         X      15.4660      Y      -1.9600      Z       0.0105
       Tot      15.5897
    Quadrupole Moments (Debye-Ang)
        XX    -158.2747     XY      -0.6964     YY    -155.6925
        XZ       0.0512     YZ       0.1556     ZZ    -110.5780

 Total job time:  65.84s(wall), 507.22s(cpu)
        *  Thank you very much for using Q-Chem.  Have a nice day.  *
