 Gaussian 16, Revision A.03,
 Gaussian 16:  ES64L-G16RevA.03 25-Dec-2016

 --------------------------------------
 #P UB3LYP/6-311++G(d,p) nosym opt freq
 --------------------------------------

 -------
 Reduced
 -------
 Symbolic Z-matrix:
 Charge = -2 Multiplicity = 1

 SCF Done:  E(UB3LYP) =  -910.248713595     A.U. after   55 cycles
 SCF Done:  E(UB3LYP) =  -910.297996153     A.U. after   43 cycles
 SCF Done:  E(UB3LYP) =  -910.336818300     A.U. after   50 cycles
 SCF Done:  E(UB3LYP) =  -910.380292190     A.U. after   25 cycles
 SCF Done:  E(UB3LYP) =  -910.411805457     A.U. after   19 cycles
 SCF Done:  E(UB3LYP) =  -910.425528268     A.U. after   18 cycles
 SCF Done:  E(UB3LYP) =  -910.428888044     A.U. after   18 cycles
 SCF Done:  E(UB3LYP) =  -910.431262712     A.U. after   19 cycles
 SCF Done:  E(UB3LYP) =  -910.434294064     A.U. after   18 cycles
 SCF Done:  E(UB3LYP) =  -910.436814409     A.U. after   18 cycles
 SCF Done:  E(UB3LYP) =  -910.440483381     A.U. after   17 cycles
 SCF Done:  E(UB3LYP) =  -910.440491027     A.U. after   16 cycles
 SCF Done:  E(UB3LYP) =  -910.440495502     A.U. after   16 cycles
 SCF Done:  E(UB3LYP) =  -910.440498745     A.U. after   15 cycles
 SCF Done:  E(UB3LYP) =  -910.440503241     A.U. after   16 cycles
 SCF Done:  E(UB3LYP) =  -910.440505637     A.U. after   16 cycles
 SCF Done:  E(UB3LYP) =  -910.440506553     A.U. after   15 cycles
 SCF Done:  E(UB3LYP) =  -910.440507105     A.U. after   14 cycles
 SCF Done:  E(UB3LYP) =  -910.440507251     A.U. after   14 cycles
 Optimization completed.
    -- Stationary point found.
 Normal termination of Gaussian 16 at Thu Dec 21 10:49:26 2023.

 ----------------------------------------------------------------------
 #P Geom=AllCheck Guess=TCheck SCRF=Check GenChk UB3LYP/6-311++G(d,p) F
 req
 ----------------------------------------------------------------------

 Structure from the checkpoint file:  "169-an.chk"
 -------
 Reduced
 -------
 Charge = -2 Multiplicity = 1

                          Input orientation:
 ---------------------------------------------------------------------
 Center     Atomic      Atomic             Coordinates (Angstroms)
 Number     Number       Type             X           Y           Z
 ---------------------------------------------------------------------
      1          7           0       -3.433076    1.609638    0.642339
      2          6           0       -2.851293    0.341685    0.367462
      3          6           0       -3.669894   -0.766415    0.301676
      4          6           0       -3.140772   -2.056221    0.060043
      5          6           0       -1.781690   -2.261857   -0.054018
      6          7           0       -1.306157   -3.573672   -0.326312
      7          6           0       -0.865277   -1.143660    0.054815
      8          6           0        0.559805   -1.354244    0.040096
      9          8           0        1.064430   -2.574974   -0.018230
     10          6           0        1.420843   -0.200375    0.090412
     11          6           0        2.862025   -0.351493    0.138201
     12          7           0        3.458523   -1.633330    0.286776
     13          6           0        3.676383    0.760509    0.086597
     14          6           0        3.134206    2.062138   -0.031166
     15          6           0        1.770969    2.271523   -0.033597
     16          7           0        1.279952    3.597206   -0.185443
     17          6           0        0.862135    1.146462    0.067737
     18          6           0       -0.559735    1.354225    0.170204
     19          8           0       -1.064117    2.574861    0.230165
     20          6           0       -1.417690    0.197479    0.206267
     21          1           0       -2.712548    2.329559    0.465610
     22          1           0       -4.273613    1.753186    0.095532
     23          1           0       -4.740855   -0.637708    0.452920
     24          1           0       -3.811733   -2.906874   -0.052238
     25          1           0       -1.778479   -4.261313    0.248252
     26          1           0       -0.281777   -3.570441   -0.187157
     27          1           0        4.258747   -1.738459   -0.325294
     28          1           0        2.725564   -2.341644    0.114241
     29          1           0        4.755169    0.624767    0.151562
     30          1           0        3.797373    2.919866   -0.135738
     31          1           0        0.268386    3.582351    0.027402
     32          1           0        1.794198    4.247228    0.396893
 ---------------------------------------------------------------------

 SCF Done:  E(UB3LYP) =  -910.440507251     A.U. after    1 cycles

 Alpha  occ. eigenvalues --  -18.79344 -18.79343 -14.04814 -14.04813 -14.04812
 Alpha  occ. eigenvalues --  -14.04812  -9.95058  -9.95057  -9.95055  -9.95054
 Alpha  occ. eigenvalues --   -9.94943  -9.94942  -9.91167  -9.91167  -9.91149
 Alpha  occ. eigenvalues --   -9.91147  -9.91121  -9.91120  -9.91114  -9.91112
 Alpha  occ. eigenvalues --   -0.71440  -0.71041  -0.65656  -0.64734  -0.64635
 Alpha  occ. eigenvalues --   -0.63845  -0.57082  -0.55443  -0.51809  -0.47680
 Alpha  occ. eigenvalues --   -0.46275  -0.44962  -0.40496  -0.37583  -0.37200
 Alpha  occ. eigenvalues --   -0.31978  -0.29999  -0.29433  -0.27699  -0.25776
 Alpha  occ. eigenvalues --   -0.24847  -0.23690  -0.22783  -0.21587  -0.21270
 Alpha  occ. eigenvalues --   -0.20819  -0.19096  -0.17684  -0.17059  -0.15268
 Alpha  occ. eigenvalues --   -0.15023  -0.13117  -0.13022  -0.12640  -0.12556
 Alpha  occ. eigenvalues --   -0.12004  -0.10482  -0.10153  -0.09540  -0.08382
 Alpha  occ. eigenvalues --   -0.07010  -0.05797  -0.02644  -0.01659   0.00819
 Alpha  occ. eigenvalues --    0.01732   0.02369   0.03504   0.05287   0.06199
 Alpha  occ. eigenvalues --    0.12900
 Alpha virt. eigenvalues --    0.16273   0.16300   0.17398   0.17486   0.18975
 Alpha virt. eigenvalues --    0.19529   0.20529   0.20659   0.22184   0.22281
 Alpha virt. eigenvalues --    0.22918   0.23410   0.24766   0.25492   0.25504

  Beta  occ. eigenvalues --  -18.79344 -18.79343 -14.04814 -14.04813 -14.04812
  Beta  occ. eigenvalues --  -14.04812  -9.95058  -9.95057  -9.95055  -9.95054
  Beta  occ. eigenvalues --   -9.94943  -9.94942  -9.91167  -9.91167  -9.91149
  Beta  occ. eigenvalues --   -9.91147  -9.91121  -9.91120  -9.91114  -9.91112
  Beta  occ. eigenvalues --   -0.71440  -0.71041  -0.65656  -0.64734  -0.64635
  Beta  occ. eigenvalues --   -0.63845  -0.57082  -0.55443  -0.51809  -0.47680
  Beta  occ. eigenvalues --   -0.46275  -0.44962  -0.40496  -0.37583  -0.37200
  Beta  occ. eigenvalues --   -0.31978  -0.29999  -0.29433  -0.27699  -0.25776
  Beta  occ. eigenvalues --   -0.24847  -0.23690  -0.22783  -0.21587  -0.21270
  Beta  occ. eigenvalues --   -0.20819  -0.19096  -0.17684  -0.17059  -0.15268
  Beta  occ. eigenvalues --   -0.15023  -0.13117  -0.13022  -0.12640  -0.12556
  Beta  occ. eigenvalues --   -0.12004  -0.10482  -0.10153  -0.09540  -0.08382
  Beta  occ. eigenvalues --   -0.07010  -0.05797  -0.02644  -0.01659   0.00819
  Beta  occ. eigenvalues --    0.01732   0.02369   0.03504   0.05287   0.06199
  Beta  occ. eigenvalues --    0.12900
  Beta virt. eigenvalues --    0.16273   0.16300   0.17398   0.17486   0.18975
  Beta virt. eigenvalues --    0.19529   0.20529   0.20659   0.22184   0.22281
  Beta virt. eigenvalues --    0.22918   0.23410   0.24766   0.25492   0.25504

 Mulliken charges and spin densities:
               1          2
     1  N   -0.431866  -0.000000
     2  C   -0.226745   0.000000
     3  C   -0.401903   0.000000
     4  C   -0.401851  -0.000000
     5  C   -0.227420  -0.000000
     6  N   -0.431565   0.000000
     7  C    0.622609   0.000000
     8  C   -0.664592   0.000000
     9  O   -0.517543  -0.000000
    10  C    0.622460  -0.000000
    11  C   -0.226081  -0.000000
    12  N   -0.431659  -0.000000
    13  C   -0.401747   0.000000
    14  C   -0.400428   0.000000
    15  C   -0.227808  -0.000000
    16  N   -0.431457   0.000000
    17  C    0.621875   0.000000
    18  C   -0.664797  -0.000000
    19  O   -0.517539   0.000000
    20  C    0.622971  -0.000000
    21  H    0.304280   0.000000
    22  H    0.174089   0.000000
    23  H    0.050464  -0.000000
    24  H    0.050403  -0.000000
    25  H    0.174097   0.000000
    26  H    0.304254  -0.000000
    27  H    0.174129  -0.000000
    28  H    0.304295   0.000000
    29  H    0.050337   0.000000
    30  H    0.050437   0.000000
    31  H    0.304194   0.000000
    32  H    0.174106  -0.000000
 Sum of Mulliken charges =  -2.00000  -0.00000

 Dipole moment (field-independent basis, Debye):
    X=              0.0039    Y=             -0.0020    Z=             -1.0094  Tot=              1.0094
 Quadrupole moment (field-independent basis, Debye-Ang):
   XX=           -180.8821   YY=           -177.7179   ZZ=           -137.1085
   XY=             -1.6201   XZ=              1.5522   YZ=             -1.2980

  Exact polarizability: 505.224  77.299 350.919 -10.749   4.210 137.896
 Approx polarizability: 776.251  93.705 589.638 -17.172   8.921 216.625

                      1                      2                      3
                      A                      A                      A
 Frequencies --     27.8649                44.8839                70.4663
 Red. masses --      7.2750                 4.8878                 7.0525
 Frc consts  --      0.0033                 0.0058                 0.0206
 IR Inten    --      7.5464                 0.0007                 6.0194

                      4                      5                      6
                      A                      A                      A
 Frequencies --     91.7912                98.6877               185.7708
 Red. masses --      4.1820                 4.1121                 6.8433
 Frc consts  --      0.0208                 0.0236                 0.1391
 IR Inten    --      6.1728                11.8989                 0.2100

                      7                      8                      9
                      A                      A                      A
 Frequencies --    233.3909               271.3841               306.4247
 Red. masses --      5.6652                 4.7800                 6.1262
 Frc consts  --      0.1818                 0.2074                 0.3389
 IR Inten    --      2.5181                 9.9471                 5.7806

                     10                     11                     12
                      A                      A                      A
 Frequencies --    311.4404               321.6211               329.4973
 Red. masses --      3.6287                 3.1389                 4.4578
 Frc consts  --      0.2074                 0.1913                 0.2852
 IR Inten    --      0.0022                18.5806                 0.0019

                     13                     14                     15
                      A                      A                      A
 Frequencies --    365.1990               369.7413               375.1892
 Red. masses --      1.2356                 3.1918                 1.1959
 Frc consts  --      0.0971                 0.2571                 0.0992
 IR Inten    --    293.0360                92.0866                34.1821

                     16                     17                     18
                      A                      A                      A
 Frequencies --    392.7870               416.8067               419.8484
 Red. masses --      6.0122                 1.3885                 1.6645
 Frc consts  --      0.5465                 0.1421                 0.1729
 IR Inten    --      6.2826                 0.0300                91.1953

                     19                     20                     21
                      A                      A                      A
 Frequencies --    424.3359               461.4148               466.5434
 Red. masses --      4.8781                 3.9941                 6.3383
 Frc consts  --      0.5175                 0.5010                 0.8128
 IR Inten    --      0.0056                33.4798                 2.1136

                     22                     23                     24
                      A                      A                      A
 Frequencies --    468.1809               474.5557               488.2753
 Red. masses --      6.0450                 5.8240                 4.2404
 Frc consts  --      0.7807                 0.7728                 0.5956
 IR Inten    --      0.1629                 0.0004                 4.1904

                     25                     26                     27
                      A                      A                      A
 Frequencies --    494.9916               510.5456               542.8738
 Red. masses --      4.1180                 7.0111                 6.8779
 Frc consts  --      0.5945                 1.0767                 1.1943
 IR Inten    --      0.0001                52.4410                 0.0004

                     28                     29                     30
                      A                      A                      A
 Frequencies --    546.3271               583.8342               622.0060
 Red. masses --      3.1637                 3.6564                 3.6749
 Frc consts  --      0.5563                 0.7343                 0.8377
 IR Inten    --     42.9759                24.4772                13.2791

                     31                     32                     33
                      A                      A                      A
 Frequencies --    628.2897               712.3786               727.3901
 Red. masses --      2.8209                 3.3053                 4.9360
 Frc consts  --      0.6561                 0.9883                 1.5387
 IR Inten    --      4.0304                42.0376                 0.0029

                     34                     35                     36
                      A                      A                      A
 Frequencies --    730.7241               734.6623               755.4253
 Red. masses --      3.2726                 3.1165                 2.1803
 Frc consts  --      1.0296                 0.9910                 0.7331
 IR Inten    --     43.2707                25.9687                79.9552

                     37                     38                     39
                      A                      A                      A
 Frequencies --    761.3315               771.0862               777.2890
 Red. masses --      3.0516                 1.3963                 1.4098
 Frc consts  --      1.0421                 0.4892                 0.5018
 IR Inten    --      5.7250               136.4489                 0.0324

                     40                     41                     42
                      A                      A                      A
 Frequencies --    798.3263               803.0232               823.6753
 Red. masses --      8.4173                 8.1715                 6.4887
 Frc consts  --      3.1607                 3.1046                 2.5937
 IR Inten    --      0.2382                64.9682                29.9917

                     43                     44                     45
                      A                      A                      A
 Frequencies --    915.7461               922.4341               933.6524
 Red. masses --      3.0366                 1.7664                 1.4164
 Frc consts  --      1.5003                 0.8855                 0.7275
 IR Inten    --    648.4422                 0.2410                73.2424

                     46                     47                     48
                      A                      A                      A
 Frequencies --    944.6642               961.6831               962.2151
 Red. masses --      2.2813                 1.8951                 2.0856
 Frc consts  --      1.1995                 1.0326                 1.1377
 IR Inten    --    117.7760                25.8008               102.4886

                     49                     50                     51
                      A                      A                      A
 Frequencies --   1000.3341              1066.8488              1134.0413
 Red. masses --      2.3157                 1.6929                 1.8151
 Frc consts  --      1.3653                 1.1352                 1.3753
 IR Inten    --      0.0095               106.9440                 0.0001

                     52                     53                     54
                      A                      A                      A
 Frequencies --   1155.4344              1162.2513              1197.5868
 Red. masses --      2.0738                 3.4192                 1.2857
 Frc consts  --      1.6312                 2.7213                 1.0864
 IR Inten    --    224.2350               522.9189                18.7877

                     55                     56                     57
                      A                      A                      A
 Frequencies --   1202.2954              1208.3340              1221.1679
 Red. masses --      1.3747                 2.2100                 2.3180
 Frc consts  --      1.1708                 1.9012                 2.0366
 IR Inten    --      0.0249                27.7858                32.1737

                     58                     59                     60
                      A                      A                      A
 Frequencies --   1230.2320              1252.8609              1261.3770
 Red. masses --      2.2293                 7.1292                 2.8357
 Frc consts  --      1.9879                 6.5932                 2.6583
 IR Inten    --      8.7942                 0.0026               160.3055

                     61                     62                     63
                      A                      A                      A
 Frequencies --   1263.3676              1276.9962              1319.1034
 Red. masses --      5.5105                 2.7167                10.3619
 Frc consts  --      5.1820                 2.6102                10.6230
 IR Inten    --      0.0169                 0.0402                56.6642

                     64                     65                     66
                      A                      A                      A
 Frequencies --   1376.7312              1398.0959              1413.3720
 Red. masses --      2.4127                 1.9734                 6.8620
 Frc consts  --      2.6943                 2.2726                 8.0763
 IR Inten    --    552.7526                14.8971                 0.0023

                     67                     68                     69
                      A                      A                      A
 Frequencies --   1448.9272              1456.5494              1465.9886
 Red. masses --      2.2067                 3.9010                 2.2516
 Frc consts  --      2.7296                 4.8762                 2.8510
 IR Inten    --     13.9944               425.5402                 0.0029

                     70                     71                     72
                      A                      A                      A
 Frequencies --   1474.4415              1559.8062              1585.6434
 Red. masses --      7.3084                 3.3349                 1.2483
 Frc consts  --      9.3611                 4.7805                 1.8492
 IR Inten    --      0.1410                31.1160                 3.7288

                     73                     74                     75
                      A                      A                      A
 Frequencies --   1593.4860              1597.7675              1601.8091
 Red. masses --      2.5226                 1.3671                 3.6275
 Frc consts  --      3.7739                 2.0563                 5.4838
 IR Inten    --    357.9400               339.3817                 8.9027

                     76                     77                     78
                      A                      A                      A
 Frequencies --   1607.7846              1637.3364              1639.8690
 Red. masses --      5.2177                 1.2807                 1.4648
 Frc consts  --      7.9467                 2.0229                 2.3208
 IR Inten    --      0.0003                 0.0035                 1.3509

                     79                     80                     81
                      A                      A                      A
 Frequencies --   3087.4831              3087.8012              3112.0307
 Red. masses --      1.0831                 1.0831                 1.0924
 Frc consts  --      6.0834                 6.0845                 6.2331
 IR Inten    --      7.6313               121.3756               183.0510

                     82                     83                     84
                      A                      A                      A
 Frequencies --   3112.4125              3149.5014              3155.4418
 Red. masses --      1.0921                 1.0688                 1.0689
 Frc consts  --      6.2332                 6.2466                 6.2703
 IR Inten    --      3.5701                12.0736               882.6857

                     85                     86                     87
                      A                      A                      A
 Frequencies --   3181.2494              3187.8032              3540.1194
 Red. masses --      1.0700                 1.0693                 1.0781
 Frc consts  --      6.3799                 6.4024                 7.9606
 IR Inten    --     11.4688                 0.0266                68.8889

                     88                     89                     90
                      A                      A                      A
 Frequencies --   3540.6496              3540.7573              3541.1385
 Red. masses --      1.0784                 1.0780                 1.0783
 Frc consts  --      7.9654                 7.9630                 7.9669
 IR Inten    --      1.8958                 5.1545                 1.8167

 - Thermochemistry -
 -------------------
 Temperature   298.150 Kelvin.  Pressure   1.00000 Atm.
 Atom     1 has atomic number  7 and mass  14.00307

 Molecular mass:   268.09603 amu.
 Principal axes and moments of inertia in atomic units:
                           1         2         3
     Eigenvalues --  3536.924395520.898538991.30575
           X            0.92362  -0.38160   0.03613
           Y            0.38274   0.92327  -0.03286
           Z           -0.02082   0.04418   0.99881
 This molecule is an asymmetric top.
 Rotational symmetry number  1.
 Warning -- assumption of classical behavior for rotation
           may cause significant error
 Rotational temperatures (Kelvin)      0.02449     0.01569     0.00963
 Rotational constants (GHZ):           0.51026     0.32689     0.20072
 Zero-point vibrational energy     630592.9 (Joules/Mol)
                                  150.71532 (Kcal/Mol)
 Warning -- explicit consideration of  29 degrees of freedom as
           vibrations may cause significant error
 Vibrational temperatures:     40.09    64.58   101.39   132.07   141.99
          (Kelvin)            267.28   335.80   390.46   440.88   448.09
                              462.74   474.07   525.44   531.98   539.81
                              565.13   599.69   604.07   610.52   663.87
                              671.25   673.61   682.78   702.52   712.18
                              734.56   781.07   786.04   840.01   894.93
                              903.97  1024.95  1046.55  1051.35  1057.02
                             1086.89  1095.39  1109.42  1118.35  1148.61
                             1155.37  1185.09  1317.55  1327.18  1343.32
                             1359.16  1383.65  1384.41  1439.26  1534.96
                             1631.63  1662.41  1672.22  1723.06  1729.83
                             1738.52  1756.99  1770.03  1802.59  1814.84
                             1817.70  1837.31  1897.90  1980.81  2011.55
                             2033.53  2084.68  2095.65  2109.23  2121.39
                             2244.21  2281.39  2292.67  2298.83  2304.65
                             2313.24  2355.76  2359.41  4442.20  4442.66
                             4477.52  4478.07  4531.43  4539.98  4577.11
                             4586.54  5093.44  5094.21  5094.36  5094.91

 Zero-point correction=                           0.240180 (Hartree/Particle)
 Thermal correction to Energy=                    0.256509
 Thermal correction to Enthalpy=                  0.257453
 Thermal correction to Gibbs Free Energy=         0.196670
 Sum of electronic and zero-point Energies=           -910.200327
 Sum of electronic and thermal Energies=              -910.183998
 Sum of electronic and thermal Enthalpies=            -910.183054
 Sum of electronic and thermal Free Energies=         -910.243838

                     E (Thermal)             CV                S
                      KCal/Mol        Cal/Mol-Kelvin    Cal/Mol-Kelvin
 Total                  160.962             67.312            127.930
 Electronic               0.000              0.000              0.000
 Translational            0.889              2.981             42.658
 Rotational               0.889              2.981             33.529
 Vibrational            159.184             61.351             51.744
 Vibration     1          0.593              1.984              5.976
 Vibration     2          0.595              1.979              5.031
 Vibration     3          0.598              1.968              4.140
 Vibration     4          0.602              1.955              3.622
 Vibration     5          0.604              1.950              3.480
 Vibration     6          0.632              1.859              2.270
 Vibration     7          0.654              1.790              1.853
 Vibration     8          0.675              1.726              1.587
 Vibration     9          0.697              1.662              1.382
 Vibration    10          0.700              1.652              1.355
 Vibration    11          0.707              1.632              1.302
 Vibration    12          0.712              1.617              1.263
 Vibration    13          0.738              1.544              1.100
 Vibration    14          0.742              1.534              1.081
 Vibration    15          0.746              1.523              1.059
 Vibration    16          0.760              1.486              0.990
 Vibration    17          0.780              1.434              0.903
 Vibration    18          0.783              1.427              0.892
 Vibration    19          0.786              1.417              0.877
 Vibration    20          0.819              1.336              0.762
 Vibration    21          0.824              1.324              0.747
 Vibration    22          0.825              1.321              0.743
 Vibration    23          0.831              1.306              0.725
 Vibration    24          0.844              1.276              0.688
 Vibration    25          0.851              1.261              0.671
 Vibration    26          0.866              1.227              0.632
 Vibration    27          0.898              1.155              0.559
 Vibration    28          0.902              1.148              0.552
 Vibration    29          0.941              1.066              0.478

                           ! Non-Optimized Parameters !
 Normal termination of Gaussian 16 at Thu Dec 21 11:36:47 2023.
