 Gaussian 16, Revision A.03,
 Gaussian 16:  ES64L-G16RevA.03 25-Dec-2016

 ----------------------------------------------------------------
 #P UB3LYP/6-311++G(d,p) SCRF=(PCM,Solvent=n,n-DiMethylFormamide)
 ----------------------------------------------------------------

 ------------------
 Quinone PCM in DMF
 ------------------
 Symbolic Z-matrix:
 Charge =  0 Multiplicity = 1

                         Standard orientation:
 ---------------------------------------------------------------------
 Center     Atomic      Atomic             Coordinates (Angstroms)
 Number     Number       Type             X           Y           Z
 ---------------------------------------------------------------------
      1          6           0        5.378296   -3.907707   -0.238753
      2          6           0        5.226059   -4.443236   -1.513204
      3          6           0        4.558090   -3.715123   -2.500153
      4          6           0        4.861824   -2.640266    0.045010
      5          6           0        4.189550   -1.905551   -0.944419
      6          6           0        4.039575   -2.452980   -2.217635
      7          6           0        5.014496   -2.055020    1.385279
      8          6           0        4.459056   -0.688927    1.626463
      9          6           0        3.828274    0.054958    0.681987
     10          6           0        3.615286   -0.543282   -0.655479
     11          8           0        5.581431   -2.608982    2.320804
     12          8           0        2.980674    0.036361   -1.522010
     13          8           0        4.655151   -0.250054    2.880844
     14          1           0        5.890957   -4.452821    0.544326
     15          1           0        5.625551   -5.425011   -1.739352
     16          1           0        4.440891   -4.133934   -3.493238
     17          1           0        3.516677   -1.876922   -2.970821
     18          1           0        5.145627   -0.959373    3.340266
     19          6           0        3.611821    2.520363   -0.003140
     20          6           0        4.874382    2.556373   -0.604993
     21          6           0        2.705793    3.540915   -0.294810
     22          6           0        3.044079    4.558893   -1.186321
     23          6           0        4.298502    4.579647   -1.790634
     24          6           0        5.216669    3.573919   -1.491167
     25          1           0        5.602051    1.782551   -0.380767
     26          1           0        1.739409    3.539486    0.192454
     27          1           0        2.323747    5.339984   -1.404832
     28          1           0        6.200742    3.581797   -1.947183
     29          1           0        4.560828    5.371492   -2.483343
     30          6           0        3.290920    1.446048    1.039077
     31          1           0        3.846265    1.740218    1.933816
     32          7           0        1.886656    1.453517    1.472278
     33          6           0        0.867692    0.815090    0.633244
     34          6           0       -0.529950    1.102526    1.183611
     35          6           0       -1.644449    0.447753    0.360174
     36          6           0       -3.050343    0.735724    0.899097
     37          6           0       -4.168046    0.085427    0.076095
     38          6           0       -5.574482    0.373979    0.613232
     39          6           0       -6.692616   -0.274282   -0.210918
     40          6           0       -8.099122    0.014420    0.326007
     41          6           0       -9.217458   -0.632667   -0.498862
     42          6           0      -10.623863   -0.344238    0.037929
     43          6           0      -11.743105   -0.990185   -0.786647
     44          6           0      -13.144178   -0.696286   -0.242396
     45          1           0        1.831936    1.094927    2.418849
     46          1           0        1.004992   -0.275800    0.554578
     47          1           0        0.962094    1.208917   -0.380541
     48          1           0       -0.679697    2.187256    1.220941
     49          1           0       -0.590968    0.748519    2.221954
     50          1           0       -1.485487   -0.637813    0.328112
     51          1           0       -1.577377    0.794684   -0.678770
     52          1           0       -3.209692    1.821233    0.931143
     53          1           0       -3.117677    0.388800    1.938510
     54          1           0       -4.008816   -1.000329    0.044144
     55          1           0       -4.099801    0.432154   -0.963194
     56          1           0       -5.732983    1.459746    0.646183
     57          1           0       -5.643142    0.026336    1.652301
     58          1           0       -6.534164   -1.360106   -0.244172
     59          1           0       -6.623906    0.073630   -1.249842
     60          1           0       -8.257212    1.100229    0.359935
     61          1           0       -8.168133   -0.334123    1.364728
     62          1           0       -9.059365   -1.718528   -0.533071
     63          1           0       -9.148596   -0.283812   -1.537500
     64          1           0      -10.782878    0.741591    0.072612
     65          1           0      -10.694042   -0.693516    1.076498
     66          1           0      -11.585161   -2.075117   -0.821032
     67          1           0      -11.673954   -0.640800   -1.824114
     68          1           0      -13.255982   -1.065333    0.782142
     69          1           0      -13.918290   -1.170777   -0.852054
     70          1           0      -13.345605    0.379636   -0.228744
 ---------------------------------------------------------------------

 SCF Done:  E(UB3LYP) =  -1408.20666054     A.U. after   16 cycles

 The electronic state is 1-A.
 Alpha  occ. eigenvalues --  -19.18382 -19.15344 -19.12990 -14.30668 -10.29708
 Alpha  occ. eigenvalues --  -10.28366 -10.27409 -10.22441 -10.21346 -10.21236
 Alpha  occ. eigenvalues --  -10.20788 -10.20426 -10.20245 -10.20050 -10.19983
 Alpha  occ. eigenvalues --  -10.18851 -10.18802 -10.17753 -10.17673 -10.17552
 Alpha  occ. eigenvalues --  -10.17511 -10.17206 -10.16256 -10.16181 -10.16161
 Alpha  occ. eigenvalues --  -10.16027 -10.15950 -10.15933 -10.15927 -10.15917
 Alpha  occ. eigenvalues --  -10.15905 -10.15896 -10.15525  -1.11398  -1.07108
 Alpha  occ. eigenvalues --   -1.06559  -0.91924  -0.89521  -0.86073  -0.83982
 Alpha  occ. eigenvalues --   -0.81361  -0.80322  -0.79173  -0.78304  -0.77936
 Alpha  occ. eigenvalues --   -0.76485  -0.75303  -0.74961  -0.72516  -0.70822
 Alpha  occ. eigenvalues --   -0.69142  -0.67295  -0.65683  -0.64549  -0.62980
 Alpha  occ. eigenvalues --   -0.61201  -0.60972  -0.60748  -0.58623  -0.58264
 Alpha  occ. eigenvalues --   -0.57824  -0.57599  -0.57223  -0.57100  -0.54689
 Alpha  occ. eigenvalues --   -0.52481  -0.51785  -0.50222  -0.49490  -0.48617
 Alpha  occ. eigenvalues --   -0.48591  -0.47872  -0.47408  -0.47019  -0.46309
 Alpha  occ. eigenvalues --   -0.46089  -0.45619  -0.45516  -0.44812  -0.44422
 Alpha  occ. eigenvalues --   -0.43841  -0.43279  -0.43093  -0.42795  -0.42286
 Alpha  occ. eigenvalues --   -0.42154  -0.41421  -0.41145  -0.40964  -0.40717
 Alpha  occ. eigenvalues --   -0.40156  -0.39301  -0.38730  -0.38347  -0.37965
 Alpha  occ. eigenvalues --   -0.37468  -0.37335  -0.37002  -0.36542  -0.36017
 Alpha  occ. eigenvalues --   -0.35089  -0.34642  -0.34471  -0.34148  -0.33571
 Alpha  occ. eigenvalues --   -0.32940  -0.32912  -0.32646  -0.32244  -0.32241
 Alpha  occ. eigenvalues --   -0.31975  -0.31948  -0.30797  -0.29637  -0.29363
 Alpha  occ. eigenvalues --   -0.28545  -0.28270  -0.27110  -0.25998  -0.24779
 Alpha  occ. eigenvalues --   -0.23360
 Alpha virt. eigenvalues --   -0.12890  -0.05927  -0.03067  -0.01949  -0.01592
 Alpha virt. eigenvalues --   -0.01115  -0.00463  -0.00122   0.00069   0.00190
 Alpha virt. eigenvalues --    0.00578   0.00946   0.01033   0.01296   0.01659

  Beta  occ. eigenvalues --  -19.18382 -19.15344 -19.12990 -14.30668 -10.29708
  Beta  occ. eigenvalues --  -10.28366 -10.27409 -10.22441 -10.21346 -10.21236
  Beta  occ. eigenvalues --  -10.20788 -10.20426 -10.20245 -10.20050 -10.19983
  Beta  occ. eigenvalues --  -10.18851 -10.18802 -10.17753 -10.17673 -10.17552
  Beta  occ. eigenvalues --  -10.17511 -10.17206 -10.16256 -10.16181 -10.16161
  Beta  occ. eigenvalues --  -10.16027 -10.15950 -10.15933 -10.15927 -10.15917
  Beta  occ. eigenvalues --  -10.15905 -10.15896 -10.15525  -1.11398  -1.07108
  Beta  occ. eigenvalues --   -1.06559  -0.91924  -0.89521  -0.86073  -0.83982
  Beta  occ. eigenvalues --   -0.81361  -0.80322  -0.79173  -0.78304  -0.77936
  Beta  occ. eigenvalues --   -0.76485  -0.75303  -0.74961  -0.72516  -0.70822
  Beta  occ. eigenvalues --   -0.69142  -0.67295  -0.65683  -0.64549  -0.62980
  Beta  occ. eigenvalues --   -0.61201  -0.60972  -0.60748  -0.58623  -0.58264
  Beta  occ. eigenvalues --   -0.57824  -0.57599  -0.57223  -0.57100  -0.54689
  Beta  occ. eigenvalues --   -0.52481  -0.51785  -0.50222  -0.49490  -0.48617
  Beta  occ. eigenvalues --   -0.48591  -0.47872  -0.47408  -0.47019  -0.46309
  Beta  occ. eigenvalues --   -0.46089  -0.45619  -0.45516  -0.44812  -0.44422
  Beta  occ. eigenvalues --   -0.43841  -0.43279  -0.43093  -0.42795  -0.42286
  Beta  occ. eigenvalues --   -0.42154  -0.41421  -0.41145  -0.40964  -0.40717
  Beta  occ. eigenvalues --   -0.40156  -0.39301  -0.38730  -0.38347  -0.37965
  Beta  occ. eigenvalues --   -0.37468  -0.37335  -0.37002  -0.36542  -0.36017
  Beta  occ. eigenvalues --   -0.35089  -0.34642  -0.34471  -0.34148  -0.33571
  Beta  occ. eigenvalues --   -0.32940  -0.32912  -0.32646  -0.32244  -0.32241
  Beta  occ. eigenvalues --   -0.31975  -0.31948  -0.30797  -0.29637  -0.29363
  Beta  occ. eigenvalues --   -0.28545  -0.28270  -0.27110  -0.25998  -0.24779
  Beta  occ. eigenvalues --   -0.23360
  Beta virt. eigenvalues --   -0.12890  -0.05927  -0.03067  -0.01949  -0.01592
  Beta virt. eigenvalues --   -0.01115  -0.00463  -0.00122   0.00069   0.00190
  Beta virt. eigenvalues --    0.00578   0.00946   0.01033   0.01296   0.01659

 Mulliken charges and spin densities:
               1          2
     1  C    0.153887  -0.000000
     2  C   -0.495314  -0.000000
     3  C   -0.447985   0.000000
     4  C    0.451536   0.000000
     5  C    0.356728   0.000000
     6  C   -0.056795   0.000000
     7  C   -0.301647   0.000000
     8  C   -0.327654   0.000000
     9  C    0.398533  -0.000000
    10  C   -0.083420   0.000000
    11  O   -0.305777  -0.000000
    12  O   -0.213536  -0.000000
    13  O   -0.211316  -0.000000
    14  H    0.212084  -0.000000
    15  H    0.202682  -0.000000
    16  H    0.216043  -0.000000
    17  H    0.199178   0.000000
    18  H    0.315029  -0.000000
    19  C    0.412055   0.000000
    20  C   -0.363625   0.000000
    21  C   -0.136014  -0.000000
    22  C   -0.302105  -0.000000
    23  C   -0.380577  -0.000000
    24  C   -0.375109  -0.000000
    25  H    0.181931   0.000000
    26  H    0.187144  -0.000000
    27  H    0.204916   0.000000
    28  H    0.198193   0.000000
    29  H    0.174425  -0.000000
    30  C   -0.072504  -0.000000
    31  H    0.263038  -0.000000
    32  N    0.001344  -0.000000
    33  C   -0.632258  -0.000000
    34  C   -0.710197   0.000000
    35  C    0.197473   0.000000
    36  C   -0.235874   0.000000
    37  C   -0.389807  -0.000000
    38  C   -0.365357  -0.000000
    39  C   -0.227999   0.000000
    40  C   -0.073455   0.000000
    41  C   -0.122267  -0.000000
    42  C   -0.265808  -0.000000
    43  C   -0.224541  -0.000000
    44  C   -0.683730   0.000000
    45  H    0.305784   0.000000
    46  H    0.183670  -0.000000
    47  H    0.217144   0.000000
    48  H    0.145377   0.000000
    49  H    0.126324  -0.000000
    50  H    0.109020  -0.000000
    51  H    0.114414  -0.000000
    52  H    0.125643  -0.000000
    53  H    0.128264   0.000000
    54  H    0.132120   0.000000
    55  H    0.132303   0.000000
    56  H    0.131978   0.000000
    57  H    0.131407   0.000000
    58  H    0.128363  -0.000000
    59  H    0.128372  -0.000000
    60  H    0.127497  -0.000000
    61  H    0.127674   0.000000
    62  H    0.125770   0.000000
    63  H    0.125962   0.000000
    64  H    0.122483   0.000000
    65  H    0.122313  -0.000000
    66  H    0.130969  -0.000000
    67  H    0.131029  -0.000000
    68  H    0.139900  -0.000000
    69  H    0.144731   0.000000
    70  H    0.139941  -0.000000
 Sum of Mulliken charges =  -0.00000  -0.00000

 Dipole moment (field-independent basis, Debye):
    X=              1.0899    Y=             -4.6007    Z=             -0.4769  Tot=              4.7520
 Quadrupole moment (field-independent basis, Debye-Ang):
   XX=           -193.6882   YY=           -192.1200   ZZ=           -199.9986
   XY=            -19.1424   XZ=             -7.9641   YZ=              6.0590

 Normal termination of Gaussian 16 at Thu Jan 25 06:04:06 2024.
