 Gaussian 16, Revision A.03,
 Gaussian 16:  ES64L-G16RevA.03 25-Dec-2016

 ----------------------------------------------------------------------
 #P UB3LYP/6-311++G(d,p) nosym opt freq SCRF=(PCM,Solvent=n,n-DiMethylF
 ormamide)
 ----------------------------------------------------------------------

 --------
 Oxidized
 --------
 Symbolic Z-matrix:
 Charge =  0 Multiplicity = 1

 SCF Done:  E(UB3LYP) =  -3414.72865511     A.U. after   16 cycles
 SCF Done:  E(UB3LYP) =  -3414.72870438     A.U. after   11 cycles
 SCF Done:  E(UB3LYP) =  -3414.72870950     A.U. after   11 cycles
 SCF Done:  E(UB3LYP) =  -3414.72871081     A.U. after    9 cycles
 Optimization completed.
    -- Stationary point found.
 Normal termination of Gaussian 16 at Sat Feb 10 10:08:36 2024.

 ----------------------------------------------------------------------
 #P Geom=AllCheck Guess=TCheck SCRF=Check GenChk UB3LYP/6-311++G(d,p) F
 req
 ----------------------------------------------------------------------

 Structure from the checkpoint file:  "008.chk"
 --------
 Oxidized
 --------
 Charge =  0 Multiplicity = 1

                          Input orientation:
 ---------------------------------------------------------------------
 Center     Atomic      Atomic             Coordinates (Angstroms)
 Number     Number       Type             X           Y           Z
 ---------------------------------------------------------------------
      1          6           0       -1.301240    2.034999    0.555861
      2          6           0       -2.614646    1.394919    0.217758
      3          6           0       -2.697554    0.162753   -0.297891
      4          6           0       -1.477235   -0.634160   -0.560917
      5          6           0       -0.165196   -0.035107   -0.238000
      6          6           0       -0.085284    1.197205    0.277951
      7          8           0       -1.555478   -1.759053   -1.032755
      8          1           0       -3.641926   -0.305004   -0.544974
      9          8           0       -1.219043    3.148894    1.020035
     10         17           0        1.437322    1.928294    0.669747
     11         35           0       -4.160536    2.437103    0.563365
     12          1           0        0.711126   -0.638473   -0.437510
 ---------------------------------------------------------------------

 SCF Done:  E(UB3LYP) =  -3414.72871081     A.U. after    1 cycles

 Alpha  occ. eigenvalues -- -482.85741-101.58460 -62.51007 -56.33059 -56.32664
 Alpha  occ. eigenvalues --  -56.32625 -19.16720 -19.15613 -10.32007 -10.30500
 Alpha  occ. eigenvalues --  -10.28566 -10.27856 -10.23031 -10.22936  -9.49903
 Alpha  occ. eigenvalues --   -8.71972  -7.26386  -7.25405  -7.25308  -6.55157
 Alpha  occ. eigenvalues --   -6.53838  -6.53725  -2.66245  -2.65884  -2.65799
 Alpha  occ. eigenvalues --   -2.64749  -2.64748  -1.10313  -1.08516  -0.92145
 Alpha  occ. eigenvalues --   -0.88494  -0.82553  -0.77590  -0.72598  -0.64321
 Alpha  occ. eigenvalues --   -0.62433  -0.55644  -0.52988  -0.49796  -0.47923
 Alpha  occ. eigenvalues --   -0.47666  -0.46831  -0.45201  -0.44018  -0.42607
 Alpha  occ. eigenvalues --   -0.39247  -0.36349  -0.34583  -0.31843  -0.31618
 Alpha  occ. eigenvalues --   -0.30798  -0.29845  -0.28855
 Alpha virt. eigenvalues --   -0.15435  -0.05164  -0.03829  -0.02019  -0.00424
 Alpha virt. eigenvalues --    0.00254   0.01260   0.01889   0.03773   0.03967
 Alpha virt. eigenvalues --    0.04997   0.05577   0.06413   0.07406   0.07409

  Beta  occ. eigenvalues -- -482.85741-101.58460 -62.51007 -56.33059 -56.32664
  Beta  occ. eigenvalues --  -56.32625 -19.16720 -19.15613 -10.32007 -10.30500
  Beta  occ. eigenvalues --  -10.28566 -10.27856 -10.23031 -10.22936  -9.49903
  Beta  occ. eigenvalues --   -8.71972  -7.26386  -7.25405  -7.25308  -6.55157
  Beta  occ. eigenvalues --   -6.53838  -6.53725  -2.66245  -2.65884  -2.65799
  Beta  occ. eigenvalues --   -2.64749  -2.64748  -1.10313  -1.08516  -0.92145
  Beta  occ. eigenvalues --   -0.88494  -0.82553  -0.77590  -0.72598  -0.64321
  Beta  occ. eigenvalues --   -0.62433  -0.55644  -0.52988  -0.49796  -0.47923
  Beta  occ. eigenvalues --   -0.47666  -0.46831  -0.45201  -0.44018  -0.42607
  Beta  occ. eigenvalues --   -0.39247  -0.36349  -0.34583  -0.31843  -0.31618
  Beta  occ. eigenvalues --   -0.30798  -0.29845  -0.28855
  Beta virt. eigenvalues --   -0.15435  -0.05164  -0.03829  -0.02019  -0.00424
  Beta virt. eigenvalues --    0.00254   0.01260   0.01889   0.03773   0.03967
  Beta virt. eigenvalues --    0.04997   0.05577   0.06413   0.07406   0.07409

 Mulliken charges and spin densities:
               1          2
     1  C   -1.513387   0.000000
     2  C    0.719180  -0.000000
     3  C    0.063274  -0.000000
     4  C   -0.528144   0.000000
     5  C   -0.298419  -0.000000
     6  C    1.182742  -0.000000
     7  O   -0.276214  -0.000000
     8  H    0.290720  -0.000000
     9  O   -0.164218  -0.000000
    10  Cl   0.319284   0.000000
    11  Br  -0.049577  -0.000000
    12  H    0.254760  -0.000000
 Sum of Mulliken charges =  -0.00000   0.00000

 Dipole moment (field-independent basis, Debye):
    X=             -0.2332    Y=             -0.9364    Z=             -0.3937  Tot=              1.0422
 Quadrupole moment (field-independent basis, Debye-Ang):
   XX=            -69.4760   YY=            -93.0779   ZZ=            -77.8870
   XY=             -1.1972   XZ=             -0.1465   YZ=             -7.3962

  Exact polarizability: 158.759  -4.258 200.054   3.103  52.486  94.893
 Approx polarizability: 165.028   1.001 275.932   4.903  78.887 118.901

                      1                      2                      3
                      A                      A                      A
 Frequencies --     57.0647               125.9970               156.8058
 Red. masses --     17.1990                 9.8242                23.0805
 Frc consts  --      0.0330                 0.0919                 0.3344
 IR Inten    --      4.7006                13.5742                 0.0155

                      4                      5                      6
                      A                      A                      A
 Frequencies --    168.4754               246.2809               274.3806
 Red. masses --      4.9058                17.2115                16.8076
 Frc consts  --      0.0820                 0.6151                 0.7455
 IR Inten    --      0.2217                 0.1328                 1.6696

                      7                      8                      9
                      A                      A                      A
 Frequencies --    300.9717               351.5675               440.7590
 Red. masses --      5.6953                18.4570                 7.6782
 Frc consts  --      0.3040                 1.3441                 0.8788
 IR Inten    --      0.2467                 3.4632                47.0319

                     10                     11                     12
                      A                      A                      A
 Frequencies --    441.9147               476.7658               626.0280
 Red. masses --      5.7345                13.3484                 5.8335
 Frc consts  --      0.6598                 1.7877                 1.3470
 IR Inten    --     10.3700                 1.1866                 3.5953

                     13                     14                     15
                      A                      A                      A
 Frequencies --    670.2158               733.2804               785.8647
 Red. masses --      3.9446                11.7632                 6.7053
 Frc consts  --      1.0440                 3.7266                 2.4398
 IR Inten    --      1.5772               188.3617                 3.2842

                     16                     17                     18
                      A                      A                      A
 Frequencies --    791.3549               878.0980               884.2494
 Red. masses --     10.2187                 4.7907                 1.3385
 Frc consts  --      3.7704                 2.1764                 0.6166
 IR Inten    --      5.0935                 9.7251                 0.0194

                     19                     20                     21
                      A                      A                      A
 Frequencies --    922.0871              1008.3527              1139.7302
 Red. masses --      1.5317                 5.0832                 2.6568
 Frc consts  --      0.7673                 3.0452                 2.0334
 IR Inten    --     75.7137               317.5837                 1.9113

                     22                     23                     24
                      A                      A                      A
 Frequencies --   1272.5784              1296.4353              1317.3433
 Red. masses --      6.9092                 1.4838                 1.9677
 Frc consts  --      6.5925                 1.4694                 2.0119
 IR Inten    --    350.9742                55.0601                 4.1471

                     25                     26                     27
                      A                      A                      A
 Frequencies --   1621.2210              1662.8385              1690.6476
 Red. masses --      8.9966                 8.7683                11.0972
 Frc consts  --     13.9320                14.2845                18.6884
 IR Inten    --    231.2483                53.8489               836.9085

                     28                     29                     30
                      A                      A                      A
 Frequencies --   1739.2440              3209.0049              3209.8089
 Red. masses --     13.2292                 1.0938                 1.0946
 Frc consts  --     23.5779                 6.6366                 6.6443
 IR Inten    --    382.0100                 1.2298                 0.6965

 - Thermochemistry -
 -------------------
 Temperature   298.150 Kelvin.  Pressure   1.00000 Atm.
 Atom     1 has atomic number  6 and mass  12.00000

 Molecular mass:   219.89267 amu.
 Principal axes and moments of inertia in atomic units:
                           1         2         3
     Eigenvalues --  1521.847663403.952034925.79654
           X            0.95687   0.28580  -0.05214
           Y           -0.28347   0.87924  -0.38286
           Z           -0.06358   0.38112   0.92234
 This molecule is an asymmetric top.
 Rotational symmetry number  1.
 Warning -- assumption of classical behavior for rotation
           may cause significant error
 Rotational temperatures (Kelvin)      0.05691     0.02545     0.01758
 Rotational constants (GHZ):           1.18589     0.53019     0.36639
 Zero-point vibrational energy     170464.1 (Joules/Mol)
                                   40.74189 (Kcal/Mol)
 Warning -- explicit consideration of  11 degrees of freedom as
           vibrations may cause significant error
 Vibrational temperatures:     82.10   181.28   225.61   242.40   354.34
          (Kelvin)            394.77   433.03   505.83   634.15   635.82
                              685.96   900.71   964.29  1055.03  1130.68
                             1138.58  1263.39  1272.24  1326.68  1450.79
                             1639.82  1830.96  1865.28  1895.36  2332.58
                             2392.45  2432.46  2502.38  4617.04  4618.20

 Zero-point correction=                           0.064926 (Hartree/Particle)
 Thermal correction to Energy=                    0.073817
 Thermal correction to Enthalpy=                  0.074762
 Thermal correction to Gibbs Free Energy=         0.028829
 Sum of electronic and zero-point Energies=          -3414.663784
 Sum of electronic and thermal Energies=             -3414.654893
 Sum of electronic and thermal Enthalpies=           -3414.653949
 Sum of electronic and thermal Free Energies=        -3414.699882

                     E (Thermal)             CV                S
                      KCal/Mol        Cal/Mol-Kelvin    Cal/Mol-Kelvin
 Total                   46.321             31.157             96.673
 Electronic               0.000              0.000              0.000
 Translational            0.889              2.981             42.067
 Rotational               0.889              2.981             31.612
 Vibrational             44.544             25.195             22.994
 Vibration     1          0.596              1.975              4.556
 Vibration     2          0.611              1.927              3.006
 Vibration     3          0.620              1.895              2.588
 Vibration     4          0.625              1.881              2.452
 Vibration     5          0.661              1.769              1.757
 Vibration     6          0.677              1.721              1.568
 Vibration     7          0.693              1.672              1.411
 Vibration     8          0.728              1.572              1.159
 Vibration     9          0.801              1.381              0.824
 Vibration    10          0.802              1.379              0.821
 Vibration    11          0.833              1.302              0.719

 Optimization completed.
    -- Stationary point found.
 Normal termination of Gaussian 16 at Sat Feb 10 10:13:03 2024.
