 Gaussian 16, Revision A.03,
 Gaussian 16:  ES64L-G16RevA.03 25-Dec-2016

 --------------------------------------
 #P UB3LYP/6-311++G(d,p) nosym opt freq
 --------------------------------------

 -------
 Radical
 -------
 Symbolic Z-matrix:
 Charge = -1 Multiplicity = 2

 SCF Done:  E(UB3LYP) =  -10675.8203658     A.U. after   17 cycles
 Optimization completed.
    -- Stationary point found.
 Normal termination of Gaussian 16 at Sat Jan  6 05:39:26 2024.

 ----------------------------------------------------------------------
 #P Geom=AllCheck Guess=TCheck SCRF=Check GenChk UB3LYP/6-311++G(d,p) F
 req
 ----------------------------------------------------------------------

 Structure from the checkpoint file:  "030-rad.chk"
 -------
 Radical
 -------
 Charge = -1 Multiplicity = 2

                          Input orientation:
 ---------------------------------------------------------------------
 Center     Atomic      Atomic             Coordinates (Angstroms)
 Number     Number       Type             X           Y           Z
 ---------------------------------------------------------------------
      1         35           0       -3.113359   -1.144747    0.015554
      2          6           0       -1.333595   -0.440714    0.006775
      3          6           0       -1.074529    0.904394    0.008703
      4         35           0       -2.465483    2.218778    0.020311
      5          6           0        0.280444    1.455767    0.002095
      6          8           0        0.515387    2.676070    0.003860
      7          6           0        1.333616    0.440894   -0.006773
      8          6           0        1.074513   -0.904355   -0.008704
      9         35           0        2.465289   -2.218791   -0.020317
     10          6           0       -0.280383   -1.455637   -0.002093
     11          8           0       -0.515336   -2.676075   -0.003858
     12         35           0        3.113438    1.144416   -0.015554
 ---------------------------------------------------------------------

 SCF Done:  E(UB3LYP) =  -10675.8203658     A.U. after    1 cycles

 Alpha  occ. eigenvalues -- -482.71905-482.71905-482.71904-482.71904 -62.37180
 Alpha  occ. eigenvalues --  -62.37180 -62.37179 -62.37179 -56.19218 -56.19217
 Alpha  occ. eigenvalues --  -56.19217 -56.19217 -56.18846 -56.18846 -56.18846
 Alpha  occ. eigenvalues --  -56.18845 -56.18799 -56.18799 -56.18799 -56.18799
 Alpha  occ. eigenvalues --  -18.97601 -18.97600 -10.13569 -10.13567 -10.12465
 Alpha  occ. eigenvalues --  -10.12463 -10.12402 -10.12401  -8.58147  -8.58147
 Alpha  occ. eigenvalues --   -8.58147  -8.58146  -6.41296  -6.41296  -6.41296
 Alpha  occ. eigenvalues --   -6.41295  -6.40047  -6.40047  -6.40047  -6.40046
 Alpha  occ. eigenvalues --   -6.39911  -6.39911  -6.39910  -6.39910  -2.52392
 Alpha  occ. eigenvalues --   -2.52391  -2.52391  -2.52390  -2.52058  -2.52057
 Alpha  occ. eigenvalues --   -2.52057  -2.52057  -2.51954  -2.51954  -2.51953
 Alpha  occ. eigenvalues --   -2.51953  -2.50957  -2.50957  -2.50957  -2.50956
 Alpha  occ. eigenvalues --   -2.50956  -2.50955  -2.50955  -2.50954  -0.91064
 Alpha  occ. eigenvalues --   -0.90761  -0.76303  -0.73338  -0.68363  -0.68355
 Alpha  occ. eigenvalues --   -0.65825  -0.59378  -0.57380  -0.47314  -0.46864
 Alpha  occ. eigenvalues --   -0.40564  -0.35300  -0.32893  -0.32175  -0.30469
 Alpha  occ. eigenvalues --   -0.30020  -0.28814  -0.28345  -0.26548  -0.24801
 Alpha  occ. eigenvalues --   -0.21700  -0.19745  -0.19649  -0.19003  -0.18892
 Alpha  occ. eigenvalues --   -0.16869  -0.16592  -0.16003  -0.14531  -0.13288
 Alpha  occ. eigenvalues --   -0.13264  -0.06073
 Alpha virt. eigenvalues --    0.05747   0.07900   0.07993   0.09677   0.11030
 Alpha virt. eigenvalues --    0.11102   0.12374   0.12776   0.13377   0.13498
 Alpha virt. eigenvalues --    0.13714   0.14448   0.14743   0.15167   0.15613

  Beta  occ. eigenvalues -- -482.71904-482.71904-482.71903-482.71903 -62.37179
  Beta  occ. eigenvalues --  -62.37179 -62.37178 -62.37178 -56.19219 -56.19219
  Beta  occ. eigenvalues --  -56.19218 -56.19218 -56.18841 -56.18841 -56.18840
  Beta  occ. eigenvalues --  -56.18840 -56.18799 -56.18799 -56.18798 -56.18798
  Beta  occ. eigenvalues --  -18.96881 -18.96879 -10.13489 -10.13487 -10.12336
  Beta  occ. eigenvalues --  -10.12334 -10.12272 -10.12271  -8.58146  -8.58145
  Beta  occ. eigenvalues --   -8.58145  -8.58144  -6.41299  -6.41299  -6.41299
  Beta  occ. eigenvalues --   -6.41299  -6.40038  -6.40037  -6.40037  -6.40037
  Beta  occ. eigenvalues --   -6.39910  -6.39910  -6.39910  -6.39910  -2.52393
  Beta  occ. eigenvalues --   -2.52392  -2.52392  -2.52391  -2.52054  -2.52053
  Beta  occ. eigenvalues --   -2.52053  -2.52052  -2.51956  -2.51956  -2.51955
  Beta  occ. eigenvalues --   -2.51955  -2.50952  -2.50952  -2.50952  -2.50951
  Beta  occ. eigenvalues --   -2.50951  -2.50950  -2.50950  -2.50950  -0.89877
  Beta  occ. eigenvalues --   -0.89528  -0.75796  -0.73175  -0.68273  -0.68161
  Beta  occ. eigenvalues --   -0.65635  -0.59215  -0.56469  -0.46902  -0.46451
  Beta  occ. eigenvalues --   -0.40346  -0.34900  -0.31736  -0.31371  -0.30389
  Beta  occ. eigenvalues --   -0.29465  -0.28333  -0.26386  -0.25794  -0.24351
  Beta  occ. eigenvalues --   -0.19885  -0.19699  -0.19497  -0.18870  -0.18425
  Beta  occ. eigenvalues --   -0.16711  -0.16577  -0.13936  -0.13840  -0.12754
  Beta  occ. eigenvalues --   -0.12705
  Beta virt. eigenvalues --    0.00946   0.05876   0.08057   0.09441   0.09795
  Beta virt. eigenvalues --    0.11065   0.11130   0.12394   0.13404   0.13536
  Beta virt. eigenvalues --    0.13560   0.14450   0.14761   0.15250   0.15463

 Mulliken charges and spin densities:
               1          2
     1  Br  -0.142623   0.005025
     2  C    0.395578   0.086613
     3  C    0.395687   0.086803
     4  Br  -0.142577   0.005043
     5  C   -0.758047   0.051848
     6  O   -0.247667   0.264537
     7  C    0.395555   0.086706
     8  C    0.395187   0.086827
     9  Br  -0.142522   0.005051
    10  C   -0.758283   0.051859
    11  O   -0.247660   0.264650
    12  Br  -0.142630   0.005038
 Sum of Mulliken charges =  -1.00000   1.00000

 Dipole moment (field-independent basis, Debye):
    X=              0.0003    Y=              0.0006    Z=             -0.0000  Tot=              0.0007
 Quadrupole moment (field-independent basis, Debye-Ang):
   XX=           -138.9143   YY=           -155.5336   ZZ=           -121.5051
   XY=             -3.3275   XZ=              0.0947   YZ=             -0.0681

  Exact polarizability: 230.178  -3.078 214.750  -0.826   0.333  92.352
 Approx polarizability: 318.464  14.128 389.079  -0.986   0.542 146.233

                      1                      2                      3
                      A                      A                      A
 Frequencies --     38.7539                58.3033                84.3229
 Red. masses --     76.8919                17.5290                19.1247
 Frc consts  --      0.0680                 0.0351                 0.0801
 IR Inten    --      0.0001                 4.9612                 0.0000

                      4                      5                      6
                      A                      A                      A
 Frequencies --    126.2463               135.5065               136.7678
 Red. masses --     78.0901                39.7643                67.3729
 Frc consts  --      0.7333                 0.4302                 0.7425
 IR Inten    --      0.0000                 2.1501                 1.2215

                      7                      8                      9
                      A                      A                      A
 Frequencies --    169.7748               190.6764               210.9255
 Red. masses --     13.4422                60.4198                68.5022
 Frc consts  --      0.2283                 1.2943                 1.7956
 IR Inten    --      2.3680                 0.0000                 0.0000

                     10                     11                     12
                      A                      A                      A
 Frequencies --    284.4440               288.4025               328.5828
 Red. masses --     16.6057                12.2871                20.9723
 Frc consts  --      0.7916                 0.6021                 1.3341
 IR Inten    --      0.0000                 0.0000                 0.2583

                     13                     14                     15
                      A                      A                      A
 Frequencies --    331.5202               343.4174               485.4537
 Red. masses --     18.0852                12.3835                14.0659
 Frc consts  --      1.1711                 0.8605                 1.9530
 IR Inten    --      0.9315                 0.0000                 0.0000

                     16                     17                     18
                      A                      A                      A
 Frequencies --    512.7597               598.0354               692.5584
 Red. masses --     12.0481                13.7312                12.6512
 Frc consts  --      1.8664                 2.8934                 3.5752
 IR Inten    --      0.0000                89.4873                 0.0000

                     19                     20                     21
                      A                      A                      A
 Frequencies --    701.4287               712.9158               754.3478
 Red. masses --     12.2217                12.1519                12.4431
 Frc consts  --      3.5428                 3.6389                 4.1718
 IR Inten    --      7.5668                 0.0001                 0.0001

                     22                     23                     24
                      A                      A                      A
 Frequencies --    864.3143               936.9020              1089.5465
 Red. masses --     12.8773                12.4263                12.1295
 Frc consts  --      5.6679                 6.4266                 8.4837
 IR Inten    --    161.8632                 0.0000               191.7986

                     25                     26                     27
                      A                      A                      A
 Frequencies --   1090.4759              1288.9702              1442.6728
 Red. masses --     12.0339                12.0135                12.0279
 Frc consts  --      8.4312                11.7599                14.7494
 IR Inten    --     90.0323                 0.0001                 2.2665

                     28                     29                     30
                      A                      A                      A
 Frequencies --   1535.6259              1548.2868              1588.6076
 Red. masses --     12.5321                13.0879                12.6433
 Frc consts  --     17.4118                18.4851                18.7993
 IR Inten    --      0.0753               319.3806                 0.0175

 - Thermochemistry -
 -------------------
 Temperature   298.150 Kelvin.  Pressure   1.00000 Atm.
 Atom     1 has atomic number 35 and mass  78.91834

 Molecular mass:   419.66317 amu.
 Principal axes and moments of inertia in atomic units:
                           1         2         3
     Eigenvalues --  4423.605959354.40205**********
           X            0.98196   0.18901   0.00594
           Y           -0.18900   0.98197  -0.00257
           Z           -0.00631   0.00140   0.99998
 This molecule is an asymmetric top.
 Rotational symmetry number  1.
 Warning -- assumption of classical behavior for rotation
           may cause significant error
 Rotational temperatures (Kelvin)      0.01958     0.00926     0.00629
 Rotational constants (GHZ):           0.40798     0.19293     0.13099
 Zero-point vibrational energy     111076.5 (Joules/Mol)
                                   26.54793 (Kcal/Mol)
 Warning -- explicit consideration of  17 degrees of freedom as
           vibrations may cause significant error
 Vibrational temperatures:     55.76    83.89   121.32   181.64   194.96
          (Kelvin)            196.78   244.27   274.34   303.47   409.25
                              414.95   472.76   476.98   494.10   698.46
                              737.75   860.44   996.44  1009.20  1025.73
                             1085.34  1243.56  1347.99  1567.61  1568.95
                             1854.54  2075.68  2209.42  2227.64  2285.65

 Zero-point correction=                           0.042307 (Hartree/Particle)
 Thermal correction to Energy=                    0.054571
 Thermal correction to Enthalpy=                  0.055515
 Thermal correction to Gibbs Free Energy=        -0.001134
 Sum of electronic and zero-point Energies=         -10675.778059
 Sum of electronic and thermal Energies=            -10675.765795
 Sum of electronic and thermal Enthalpies=          -10675.764851
 Sum of electronic and thermal Free Energies=       -10675.821500

                     E (Thermal)             CV                S
                      KCal/Mol        Cal/Mol-Kelvin    Cal/Mol-Kelvin
 Total                   34.244             40.165            119.228
 Electronic               0.000              0.000              1.377
 Translational            0.889              2.981             43.993
 Rotational               0.889              2.981             34.699
 Vibrational             32.466             34.203             39.158
 Vibration     1          0.594              1.981              5.322
 Vibration     2          0.596              1.974              4.514
 Vibration     3          0.601              1.960              3.788
 Vibration     4          0.611              1.927              3.002
 Vibration     5          0.613              1.918              2.866
 Vibration     6          0.614              1.917              2.849
 Vibration     7          0.625              1.880              2.438
 Vibration     8          0.634              1.853              2.221
 Vibration     9          0.643              1.824              2.036
 Vibration    10          0.683              1.703              1.507
 Vibration    11          0.685              1.695              1.483
 Vibration    12          0.712              1.618              1.267
 Vibration    13          0.714              1.613              1.253
 Vibration    14          0.722              1.589              1.196
 Vibration    15          0.842              1.282              0.696
 Vibration    16          0.868              1.222              0.627
 Vibration    17          0.956              1.036              0.453

 Optimization completed.
    -- Stationary point found.
 Normal termination of Gaussian 16 at Sat Jan  6 05:58:45 2024.
