 Gaussian 16, Revision A.03,
 Gaussian 16:  ES64L-G16RevA.03 25-Dec-2016

 ----------------------------------------------------------------
 #P UB3LYP/6-311++G(d,p) SCRF=(PCM,Solvent=n,n-DiMethylFormamide)
 ----------------------------------------------------------------

 ------------------
 Radical PCM in DMF
 ------------------
 Symbolic Z-matrix:
 Charge = -1 Multiplicity = 2

                         Standard orientation:
 ---------------------------------------------------------------------
 Center     Atomic      Atomic             Coordinates (Angstroms)
 Number     Number       Type             X           Y           Z
 ---------------------------------------------------------------------
      1         35           0        2.840928    1.712482    0.000013
      2          6           0        1.226278    0.684765   -0.000009
      3          6           0        1.226116   -0.685065    0.000006
      4         35           0        2.840459   -1.712874   -0.000014
      5          6           0       -0.000246   -1.482589    0.000025
      6          8           0       -0.000308   -2.725305    0.000054
      7          6           0       -1.226278   -0.685054    0.000012
      8          6           0       -1.226106    0.684922   -0.000005
      9         35           0       -2.840284    1.712815    0.000009
     10          6           0        0.000197    1.482342   -0.000021
     11          8           0        0.000244    2.725191   -0.000050
     12         35           0       -2.841082   -1.712281   -0.000010
 ---------------------------------------------------------------------

 SCF Done:  E(UB3LYP) =  -10675.8901410     A.U. after   16 cycles

 The electronic state is 2-A.
 Alpha  occ. eigenvalues -- -482.83674-482.83673-482.83673-482.83673 -62.48945
 Alpha  occ. eigenvalues --  -62.48945 -62.48945 -62.48944 -56.30986 -56.30986
 Alpha  occ. eigenvalues --  -56.30986 -56.30986 -56.30608 -56.30608 -56.30608
 Alpha  occ. eigenvalues --  -56.30608 -56.30565 -56.30564 -56.30564 -56.30564
 Alpha  occ. eigenvalues --  -19.10306 -19.10304 -10.26037 -10.26035 -10.24436
 Alpha  occ. eigenvalues --  -10.24434 -10.24373 -10.24372  -8.69912  -8.69911
 Alpha  occ. eigenvalues --   -8.69911  -8.69910  -6.53065  -6.53065  -6.53065
 Alpha  occ. eigenvalues --   -6.53064  -6.51801  -6.51800  -6.51800  -6.51800
 Alpha  occ. eigenvalues --   -6.51678  -6.51677  -6.51677  -6.51677  -2.64158
 Alpha  occ. eigenvalues --   -2.64158  -2.64157  -2.64157  -2.63818  -2.63817
 Alpha  occ. eigenvalues --   -2.63816  -2.63816  -2.63725  -2.63724  -2.63724
 Alpha  occ. eigenvalues --   -2.63724  -2.62716  -2.62716  -2.62716  -2.62715
 Alpha  occ. eigenvalues --   -2.62715  -2.62714  -2.62714  -2.62714  -1.03773
 Alpha  occ. eigenvalues --   -1.03497  -0.88356  -0.85223  -0.80228  -0.80177
 Alpha  occ. eigenvalues --   -0.77695  -0.71241  -0.69577  -0.59370  -0.59009
 Alpha  occ. eigenvalues --   -0.52806  -0.47578  -0.45194  -0.44747  -0.42237
 Alpha  occ. eigenvalues --   -0.42183  -0.41309  -0.41002  -0.38508  -0.36657
 Alpha  occ. eigenvalues --   -0.34034  -0.31644  -0.31400  -0.30842  -0.30772
 Alpha  occ. eigenvalues --   -0.29002  -0.28491  -0.27995  -0.27386  -0.25729
 Alpha  occ. eigenvalues --   -0.25050  -0.18505
 Alpha virt. eigenvalues --   -0.05381  -0.03940  -0.02643  -0.00614   0.00210
 Alpha virt. eigenvalues --    0.00426   0.01677   0.02121   0.02567   0.03698
 Alpha virt. eigenvalues --    0.04173   0.04861   0.05140   0.05454   0.06233

  Beta  occ. eigenvalues -- -482.83672-482.83672-482.83672-482.83672 -62.48944
  Beta  occ. eigenvalues --  -62.48944 -62.48943 -62.48943 -56.30988 -56.30987
  Beta  occ. eigenvalues --  -56.30987 -56.30987 -56.30602 -56.30602 -56.30602
  Beta  occ. eigenvalues --  -56.30602 -56.30564 -56.30564 -56.30564 -56.30563
  Beta  occ. eigenvalues --  -19.09629 -19.09627 -10.25922 -10.25920 -10.24313
  Beta  occ. eigenvalues --  -10.24311 -10.24248 -10.24248  -8.69909  -8.69909
  Beta  occ. eigenvalues --   -8.69908  -8.69908  -6.53068  -6.53068  -6.53068
  Beta  occ. eigenvalues --   -6.53067  -6.51790  -6.51789  -6.51789  -6.51789
  Beta  occ. eigenvalues --   -6.51677  -6.51677  -6.51676  -6.51676  -2.64159
  Beta  occ. eigenvalues --   -2.64158  -2.64158  -2.64157  -2.63813  -2.63812
  Beta  occ. eigenvalues --   -2.63811  -2.63811  -2.63727  -2.63726  -2.63726
  Beta  occ. eigenvalues --   -2.63725  -2.62710  -2.62710  -2.62710  -2.62709
  Beta  occ. eigenvalues --   -2.62709  -2.62709  -2.62709  -2.62708  -1.02635
  Beta  occ. eigenvalues --   -1.02324  -0.87855  -0.85061  -0.80091  -0.80016
  Beta  occ. eigenvalues --   -0.77498  -0.71080  -0.68641  -0.58953  -0.58571
  Beta  occ. eigenvalues --   -0.52576  -0.47150  -0.44139  -0.43577  -0.42105
  Beta  occ. eigenvalues --   -0.41889  -0.40910  -0.38393  -0.38335  -0.36209
  Beta  occ. eigenvalues --   -0.32110  -0.31599  -0.31239  -0.30747  -0.30303
  Beta  occ. eigenvalues --   -0.28795  -0.28474  -0.26739  -0.26236  -0.25290
  Beta  occ. eigenvalues --   -0.24507
  Beta virt. eigenvalues --   -0.11588  -0.05242  -0.02565  -0.02400  -0.00439
  Beta virt. eigenvalues --    0.00245   0.01744   0.02129   0.02625   0.02931
  Beta virt. eigenvalues --    0.03746   0.04198   0.04900   0.05143   0.05549

 Mulliken charges and spin densities:
               1          2
     1  Br  -0.089385   0.006013
     2  C    0.323081   0.080986
     3  C    0.323314   0.081220
     4  Br  -0.089326   0.006035
     5  C   -0.628880   0.078737
     6  O   -0.338438   0.246885
     7  C    0.323047   0.081094
     8  C    0.322843   0.081219
     9  Br  -0.089281   0.006043
    10  C   -0.629127   0.078774
    11  O   -0.338471   0.246966
    12  Br  -0.089377   0.006028
 Sum of Mulliken charges =  -1.00000   1.00000

 Dipole moment (field-independent basis, Debye):
    X=             -0.0003    Y=             -0.0009    Z=             -0.0000  Tot=              0.0010
 Quadrupole moment (field-independent basis, Debye-Ang):
   XX=           -130.9025   YY=           -158.4136   ZZ=           -121.0699
   XY=             -0.0060   XZ=              0.0000   YZ=              0.0007

 Normal termination of Gaussian 16 at Sun Jan 21 07:16:56 2024.
