 Q-Chem 5.4, Q-Chem, Inc., Pleasanton, CA (2021)
 Q-Chem 5.4.0 for Intel X86 EM64T Linux

User input:
--------------------------------------------------------------
$molecule
-1 2
C                 -0.5090580000      1.1682300000     -0.4054300000
C                 -1.4126200000      0.1260870000     -0.8940140000
C                 -1.2510590000     -1.2089340000     -0.6782690000
C                 -0.1043770000     -1.6896150000      0.0964450000
C                  0.7859380000     -0.6800260000      0.5941340000
C                  0.6243040000      0.6886320000      0.4033750000
O                 -0.7122780000      2.3598420000     -0.7149410000
O                  0.0788010000     -2.9232210000      0.3127260000
C                  1.5825260000      1.6293580000      1.0241180000
C                  2.9496120000      1.0757140000      1.4576440000
O                  1.3532880000      2.8134500000      1.2298480000
H                 -2.2524320000      0.4950190000     -1.4784200000
H                  3.4138780000      0.4634510000      0.6803990000
H                  2.8488770000      0.4514930000      2.3516280000
H                  3.5907180000      1.9243180000      1.6979750000
C                 -2.2094390000     -2.2374300000     -1.2128500000
H                  1.6161480000     -1.0617640000      1.1779840000
H                 -3.0247790000     -1.7663670000     -1.7684830000
H                 -2.6301840000     -2.8355190000     -0.3978430000
H                 -1.6925650000     -2.9459980000     -1.8684660000
$end
$rem
MAX_SCF_CYCLES=200
BASIS  =  6-311++G(d,p)
GUI  =  2
JOB_TYPE  =  SP
METHOD  =  B3LYP
SOLVENT_METHOD = PCM
$end
$pcm
theory = CPCM
$end
$solvent
dielectric 37.219
opticaldielectric 1.43
$end

--------------------------------------------------------------

             Standard Nuclear Orientation (Angstroms)
    I     Atom           X                Y                Z
 ----------------------------------------------------------------
    1      C      -0.5090580000     1.1682300000    -0.4054300000
    2      C      -1.4126200000     0.1260870000    -0.8940140000
    3      C      -1.2510590000    -1.2089340000    -0.6782690000
    4      C      -0.1043770000    -1.6896150000     0.0964450000
    5      C       0.7859380000    -0.6800260000     0.5941340000
    6      C       0.6243040000     0.6886320000     0.4033750000
    7      O      -0.7122780000     2.3598420000    -0.7149410000
    8      O       0.0788010000    -2.9232210000     0.3127260000
    9      C       1.5825260000     1.6293580000     1.0241180000
   10      C       2.9496120000     1.0757140000     1.4576440000
   11      O       1.3532880000     2.8134500000     1.2298480000
   12      H      -2.2524320000     0.4950190000    -1.4784200000
   13      H       3.4138780000     0.4634510000     0.6803990000
   14      H       2.8488770000     0.4514930000     2.3516280000
   15      H       3.5907180000     1.9243180000     1.6979750000
   16      C      -2.2094390000    -2.2374300000    -1.2128500000
   17      H       1.6161480000    -1.0617640000     1.1779840000
   18      H      -3.0247790000    -1.7663670000    -1.7684830000
   19      H      -2.6301840000    -2.8355190000    -0.3978430000
   20      H      -1.6925650000    -2.9459980000    -1.8684660000
 ----------------------------------------------------------------

    9    -573.7497579476      5.35e-06  Convergence criterion met
 Total energy in the final basis set =     -573.7497579476

                    Orbital Energies (a.u.)
 --------------------------------------------------------------

 Alpha MOs
 -- Occupied --
-19.1054 -19.0864 -19.0853 -10.2577 -10.2347 -10.2248 -10.1812 -10.1761
-10.1746 -10.1644 -10.1604 -10.1590  -1.0395  -1.0120  -1.0061  -0.8342
 -0.7838  -0.7278  -0.6999  -0.6806  -0.6035  -0.5831  -0.5212  -0.4910
 -0.4740  -0.4483  -0.4413  -0.4327  -0.4245  -0.4229  -0.4111  -0.3940
 -0.3928  -0.3816  -0.3769  -0.3726  -0.3624  -0.3534  -0.2885  -0.2699
 -0.2589  -0.2511  -0.2294  -0.1714

 Beta MOs
 -- Occupied --
-19.1044 -19.0798 -19.0791 -10.2576 -10.2340 -10.2234 -10.1810 -10.1748
-10.1721 -10.1635 -10.1604 -10.1590  -1.0376  -1.0026  -0.9931  -0.8285
 -0.7814  -0.7266  -0.6948  -0.6736  -0.5998  -0.5801  -0.5178  -0.4889
 -0.4716  -0.4450  -0.4367  -0.4302  -0.4218  -0.4185  -0.4054  -0.3916
 -0.3838  -0.3790  -0.3705  -0.3593  -0.3520  -0.3485  -0.2670  -0.2576
 -0.2505  -0.2444  -0.2255

          Ground-State Mulliken Net Atomic Charges

     Atom                 Charge (a.u.)    Spin (a.u.)
  --------------------------------------------------------
      1 C                    -0.556914       0.046106
      2 C                    -0.675710       0.050010
      3 C                     1.147772       0.015742
      4 C                    -0.693582       0.111178
      5 C                    -0.864789       0.173283
      6 C                     1.468443       0.095029
      7 O                    -0.464904       0.197924
      8 O                    -0.487643       0.265955
      9 C                     0.058535       0.015731
     10 C                    -0.614550       0.001450
     11 O                    -0.381748       0.035117
     12 H                     0.177508      -0.006421
     13 H                     0.170216      -0.000184
     14 H                     0.189158       0.000737
     15 H                     0.188962      -0.000337
     16 C                    -0.372463       0.009681
     17 H                     0.191272      -0.012899
     18 H                     0.162963      -0.000371
     19 H                     0.178320       0.001284
     20 H                     0.179153       0.000984
  --------------------------------------------------------
  Sum of atomic charges =    -1.000000

                    Cartesian Multipole Moments
 -----------------------------------------------------------------
    Charge (ESU x 10^10)
                -4.8032
    Dipole Moment (Debye)
         X       0.4908      Y      -4.0496      Z      -0.6840
       Tot       4.1362
    Quadrupole Moments (Debye-Ang)
        XX     -68.6507     XY       1.3847     YY    -126.2628
        XZ       0.4386     YZ       1.3401     ZZ     -74.5741

 Total job time:  22.72s(wall), 168.22s(cpu)
        *  Thank you very much for using Q-Chem.  Have a nice day.  *
