 Q-Chem 5.4, Q-Chem, Inc., Pleasanton, CA (2021)
 Q-Chem 5.4.0 for Intel X86 EM64T Linux

User input:
--------------------------------------------------------------
$molecule
0 1
C                  2.5611520000     -0.9114090000     -0.1425140000
C                  1.3133130000     -0.0959360000     -0.0072950000
C                  1.2609480000      1.2268610000      0.2365470000
Cl                 2.6864550000      2.2046480000      0.4354950000
C                 -0.0252260000      1.9856640000      0.3606760000
O                 -0.0491980000      3.1748040000      0.5765730000
C                 -1.2775590000      1.1845590000      0.2017060000
C                 -1.2885320000     -0.1392570000     -0.0384780000
C                 -2.5365810000     -0.9530850000     -0.1988140000
C                  0.0256920000     -0.8485020000     -0.1552560000
O                  0.0568750000     -2.0474580000     -0.3720390000
Cl                -2.7520930000      2.0915180000      0.3507730000
H                  2.5994650000     -1.6697390000      0.6448210000
H                  2.5521070000     -1.4547720000     -1.0904590000
H                  3.4534050000     -0.2932000000     -0.0861300000
H                 -3.1603240000     -0.8799610000      0.6963790000
H                 -3.1343870000     -0.5782680000     -1.0344020000
H                 -2.2855120000     -1.9964660000     -0.3775840000
$end

$rem
BASIS  =  6-311++G(d,p)
GUI  =  2
JOB_TYPE  =  SP
METHOD  =  B3LYP
SCF_CONVERGENCE  = 8
SOLVENT_METHOD = sm12
$end

$smx
solvent dimethylformamide
charges CM5
$end

--------------------------------------------------------------

             Standard Nuclear Orientation (Angstroms)
    I     Atom           X                Y                Z
 ----------------------------------------------------------------
    1      C       2.5611520000    -0.9114090000    -0.1425140000
    2      C       1.3133130000    -0.0959360000    -0.0072950000
    3      C       1.2609480000     1.2268610000     0.2365470000
    4      Cl      2.6864550000     2.2046480000     0.4354950000
    5      C      -0.0252260000     1.9856640000     0.3606760000
    6      O      -0.0491980000     3.1748040000     0.5765730000
    7      C      -1.2775590000     1.1845590000     0.2017060000
    8      C      -1.2885320000    -0.1392570000    -0.0384780000
    9      C      -2.5365810000    -0.9530850000    -0.1988140000
   10      C       0.0256920000    -0.8485020000    -0.1552560000
   11      O       0.0568750000    -2.0474580000    -0.3720390000
   12      Cl     -2.7520930000     2.0915180000     0.3507730000
   13      H       2.5994650000    -1.6697390000     0.6448210000
   14      H       2.5521070000    -1.4547720000    -1.0904590000
   15      H       3.4534050000    -0.2932000000    -0.0861300000
   16      H      -3.1603240000    -0.8799610000     0.6963790000
   17      H      -3.1343870000    -0.5782680000    -1.0344020000
   18      H      -2.2855120000    -1.9964660000    -0.3775840000
 ----------------------------------------------------------------

   15   -1379.4618955479      5.01e-09  Convergence criterion met
 Total energy in the final basis set =    -1379.4748302853

                    Orbital Energies (a.u.)
 --------------------------------------------------------------

 Alpha MOs
 -- Occupied --
********-101.5746 -19.1516 -19.1500 -10.3059 -10.2981 -10.2718 -10.2704
-10.2338 -10.2330 -10.1814 -10.1804  -9.4900  -9.4893  -7.2547  -7.2541
 -7.2453  -7.2445  -7.2439  -7.2433  -1.0901  -1.0832  -0.9179  -0.9047
 -0.8396  -0.8073  -0.7538  -0.7051  -0.6848  -0.6074  -0.6048  -0.5615
 -0.5057  -0.4830  -0.4807  -0.4599  -0.4579  -0.4433  -0.4419  -0.4376
 -0.4250  -0.4060  -0.4009  -0.3913  -0.3803  -0.3661  -0.3396  -0.3314
 -0.3060  -0.3000  -0.2918  -0.2762

          Ground-State Mulliken Net Atomic Charges

     Atom                 Charge (a.u.)
  ----------------------------------------
      1 C                    -0.079230
      2 C                     0.818108
      3 C                     0.054997
      4 Cl                    0.342390
      5 C                    -1.774047
      6 O                    -0.189826
      7 C                     0.193624
      8 C                     0.695836
      9 C                    -0.219089
     10 C                    -1.245016
     11 O                    -0.229842
     12 Cl                    0.425503
     13 H                     0.220664
     14 H                     0.209977
     15 H                     0.152915
     16 H                     0.210992
     17 H                     0.213314
     18 H                     0.198732
  ----------------------------------------
  Sum of atomic charges =     0.000000

                    Cartesian Multipole Moments
 -----------------------------------------------------------------
    Charge (ESU x 10^10)
                -0.0000
    Dipole Moment (Debye)
         X      -0.0299      Y      -2.7356      Z      -0.4888
       Tot       2.7790
    Quadrupole Moments (Debye-Ang)
        XX     -75.7560     XY       0.0477     YY    -101.1444
        XZ       0.1051     YZ      -3.5616     ZZ     -82.2336

 Total job time:  193.18s(wall), 1476.44s(cpu)
        *  Thank you very much for using Q-Chem.  Have a nice day.  *
