 Gaussian 16, Revision A.03,
 Gaussian 16:  ES64L-G16RevA.03 25-Dec-2016

 --------------------------------------
 #P UB3LYP/6-311++G(d,p) nosym opt freq
 --------------------------------------

 --------
 Oxidized
 --------
 Symbolic Z-matrix:
 Charge =  0 Multiplicity = 1

 SCF Done:  E(UB3LYP) =  -1379.46250744     A.U. after   15 cycles
 Optimization completed.
    -- Stationary point found.
 Normal termination of Gaussian 16 at Sat Jan  6 05:39:01 2024.

 ----------------------------------------------------------------------
 #P Geom=AllCheck Guess=TCheck SCRF=Check GenChk UB3LYP/6-311++G(d,p) F
 req
 ----------------------------------------------------------------------

 Structure from the checkpoint file:  "017.chk"
 --------
 Oxidized
 --------
 Charge =  0 Multiplicity = 1

                          Input orientation:
 ---------------------------------------------------------------------
 Center     Atomic      Atomic             Coordinates (Angstroms)
 Number     Number       Type             X           Y           Z
 ---------------------------------------------------------------------
      1          6           0        2.561152   -0.911409   -0.142514
      2          6           0        1.313313   -0.095936   -0.007295
      3          6           0        1.260948    1.226861    0.236547
      4         17           0        2.686455    2.204648    0.435495
      5          6           0       -0.025226    1.985664    0.360676
      6          8           0       -0.049198    3.174804    0.576573
      7          6           0       -1.277559    1.184559    0.201706
      8          6           0       -1.288532   -0.139257   -0.038478
      9          6           0       -2.536581   -0.953085   -0.198814
     10          6           0        0.025692   -0.848502   -0.155256
     11          8           0        0.056875   -2.047458   -0.372039
     12         17           0       -2.752093    2.091518    0.350773
     13          1           0        2.599465   -1.669739    0.644821
     14          1           0        2.552107   -1.454772   -1.090459
     15          1           0        3.453405   -0.293200   -0.086130
     16          1           0       -3.160324   -0.879961    0.696379
     17          1           0       -3.134387   -0.578268   -1.034402
     18          1           0       -2.285512   -1.996466   -0.377584
 ---------------------------------------------------------------------

 SCF Done:  E(UB3LYP) =  -1379.46250744     A.U. after    1 cycles

 Alpha  occ. eigenvalues -- -101.57997-101.57886 -19.15469 -19.15407 -10.30871
 Alpha  occ. eigenvalues --  -10.30279 -10.27731 -10.27607 -10.23967 -10.23893
 Alpha  occ. eigenvalues --  -10.19369 -10.19252  -9.49450  -9.49343  -7.25921
 Alpha  occ. eigenvalues --   -7.25819  -7.24968  -7.24850  -7.24849  -7.24745
 Alpha  occ. eigenvalues --   -1.09267  -1.08740  -0.92312  -0.90959  -0.84464
 Alpha  occ. eigenvalues --   -0.81448  -0.76209  -0.71341  -0.69167  -0.61292
 Alpha  occ. eigenvalues --   -0.61131  -0.56699  -0.51000  -0.48881  -0.48403
 Alpha  occ. eigenvalues --   -0.46539  -0.46387  -0.45020  -0.45013  -0.44682
 Alpha  occ. eigenvalues --   -0.43395  -0.41528  -0.41151  -0.40181  -0.38598
 Alpha  occ. eigenvalues --   -0.36966  -0.34358  -0.33524  -0.30835  -0.30462
 Alpha  occ. eigenvalues --   -0.29531  -0.28227
 Alpha virt. eigenvalues --   -0.14671  -0.04348  -0.02424  -0.01564  -0.00427
 Alpha virt. eigenvalues --   -0.00347   0.01711   0.01831   0.02195   0.02822
 Alpha virt. eigenvalues --    0.03633   0.04077   0.05051   0.05745   0.06130

  Beta  occ. eigenvalues -- -101.57997-101.57886 -19.15469 -19.15407 -10.30871
  Beta  occ. eigenvalues --  -10.30279 -10.27731 -10.27607 -10.23967 -10.23893
  Beta  occ. eigenvalues --  -10.19369 -10.19252  -9.49450  -9.49343  -7.25921
  Beta  occ. eigenvalues --   -7.25819  -7.24968  -7.24850  -7.24849  -7.24745
  Beta  occ. eigenvalues --   -1.09267  -1.08740  -0.92312  -0.90959  -0.84464
  Beta  occ. eigenvalues --   -0.81448  -0.76209  -0.71341  -0.69167  -0.61292
  Beta  occ. eigenvalues --   -0.61131  -0.56699  -0.51000  -0.48881  -0.48403
  Beta  occ. eigenvalues --   -0.46539  -0.46387  -0.45020  -0.45013  -0.44682
  Beta  occ. eigenvalues --   -0.43395  -0.41528  -0.41151  -0.40181  -0.38598
  Beta  occ. eigenvalues --   -0.36966  -0.34358  -0.33524  -0.30835  -0.30462
  Beta  occ. eigenvalues --   -0.29531  -0.28227
  Beta virt. eigenvalues --   -0.14671  -0.04348  -0.02424  -0.01564  -0.00427
  Beta virt. eigenvalues --   -0.00347   0.01711   0.01831   0.02195   0.02822
  Beta virt. eigenvalues --    0.03633   0.04077   0.05051   0.05745   0.06130

 Mulliken charges and spin densities:
               1          2
     1  C   -0.481241   0.000000
     2  C    0.435212   0.000000
     3  C    0.351572  -0.000000
     4  Cl   0.429100   0.000000
     5  C   -1.181000  -0.000000
     6  O   -0.109888   0.000000
     7  C    0.263185  -0.000000
     8  C    0.524600   0.000000
     9  C   -0.585039  -0.000000
    10  C   -1.017789  -0.000000
    11  O   -0.191722   0.000000
    12  Cl   0.503159   0.000000
    13  H    0.190882  -0.000000
    14  H    0.186354  -0.000000
    15  H    0.126941  -0.000000
    16  H    0.176130  -0.000000
    17  H    0.177756   0.000000
    18  H    0.201789   0.000000
 Sum of Mulliken charges =  -0.00000   0.00000

 Dipole moment (field-independent basis, Debye):
    X=             -0.0013    Y=             -2.1568    Z=             -0.3876  Tot=              2.1913
 Quadrupole moment (field-independent basis, Debye-Ang):
   XX=            -76.5760   YY=            -99.8442   ZZ=            -82.2602
   XY=              0.1543   XZ=              0.0991   YZ=             -3.3024

  Exact polarizability: 142.047  -0.760 164.618   0.777  17.107  73.464
 Approx polarizability: 183.450  -3.274 331.090   0.412  40.083 117.542

                      1                      2                      3
                      A                      A                      A
 Frequencies --     14.1448                51.1147                66.0026
 Red. masses --      1.0870                 8.1346                 1.4089
 Frc consts  --      0.0001                 0.0125                 0.0036
 IR Inten    --      0.0571                 4.5331                 0.0944

                      4                      5                      6
                      A                      A                      A
 Frequencies --     85.4026                97.4579               186.9163
 Red. masses --      2.4142                 4.1275                 5.3932
 Frc consts  --      0.0104                 0.0231                 0.1110
 IR Inten    --      0.2210                 2.5053                 1.4189

                      7                      8                      9
                      A                      A                      A
 Frequencies --    205.3097               260.7541               295.4114
 Red. masses --     22.5557                 6.3377                 3.0697
 Frc consts  --      0.5602                 0.2539                 0.1578
 IR Inten    --      0.0038                 0.2938                 1.5650

                     10                     11                     12
                      A                      A                      A
 Frequencies --    301.2501               301.9772               365.5821
 Red. masses --      7.4904                 5.7403                 9.1837
 Frc consts  --      0.4005                 0.3084                 0.7232
 IR Inten    --      1.1025                 0.2681                 1.9038

                     13                     14                     15
                      A                      A                      A
 Frequencies --    380.0215               414.4278               416.2783
 Red. masses --      5.3545                 6.1128                 8.2578
 Frc consts  --      0.4556                 0.6186                 0.8431
 IR Inten    --      0.2562                 3.3044                16.0668

                     16                     17                     18
                      A                      A                      A
 Frequencies --    487.5249               528.2686               581.0437
 Red. masses --     14.1494                 5.4975                 5.5975
 Frc consts  --      1.9814                 0.9039                 1.1134
 IR Inten    --      0.4628                 0.0570                 0.9772

                     19                     20                     21
                      A                      A                      A
 Frequencies --    705.2453               724.2542               750.0078
 Red. masses --      4.2857                 6.7846                11.7233
 Frc consts  --      1.2559                 2.0968                 3.8854
 IR Inten    --      2.5781                13.8667               125.5121

                     22                     23                     24
                      A                      A                      A
 Frequencies --    765.6063               851.3077               974.5870
 Red. masses --     10.1852                 2.9991                 6.0439
 Frc consts  --      3.5175                 1.2806                 3.3823
 IR Inten    --      1.4886                 0.2567                 4.0213

                     25                     26                     27
                      A                      A                      A
 Frequencies --   1019.8233              1038.4404              1048.2416
 Red. masses --      7.1342                 1.4434                 1.5210
 Frc consts  --      4.3717                 0.9171                 0.9847
 IR Inten    --    116.2793                 0.1139                 0.6328

                     28                     29                     30
                      A                      A                      A
 Frequencies --   1058.0017              1078.3892              1220.8140
 Red. masses --      1.6792                 2.3844                 4.7801
 Frc consts  --      1.1074                 1.6337                 4.1974
 IR Inten    --     54.1202                14.6180               111.0596

                     31                     32                     33
                      A                      A                      A
 Frequencies --   1236.7519              1306.1791              1407.1059
 Red. masses --      9.0959                 6.2839                 1.2257
 Frc consts  --      8.1971                 6.3166                 1.4298
 IR Inten    --     53.8124               125.4084                13.6026

                     34                     35                     36
                      A                      A                      A
 Frequencies --   1414.2603              1470.6791              1475.3186
 Red. masses --      1.2487                 1.0792                 1.0434
 Frc consts  --      1.4716                 1.3752                 1.3380
 IR Inten    --     16.4127                 3.0960                 9.2916

                     37                     38                     39
                      A                      A                      A
 Frequencies --   1477.9849              1489.3866              1636.1097
 Red. masses --      1.0814                 1.0433                 9.0129
 Frc consts  --      1.3918                 1.3636                14.2147
 IR Inten    --     17.3281                11.6760               128.8416

                     40                     41                     42
                      A                      A                      A
 Frequencies --   1673.5429              1709.4018              1749.5441
 Red. masses --      9.2644                12.5775                13.2493
 Frc consts  --     15.2877                21.6538                23.8943
 IR Inten    --      6.4237               229.7747               204.2957

                     43                     44                     45
                      A                      A                      A
 Frequencies --   3037.1215              3044.2379              3085.4373
 Red. masses --      1.0388                 1.0399                 1.0995
 Frc consts  --      5.6455                 5.6781                 6.1669
 IR Inten    --      4.9186                 3.0022                 5.6560

                     46                     47                     48
                      A                      A                      A
 Frequencies --   3091.5511              3148.3562              3157.5129
 Red. masses --      1.0975                 1.0989                 1.0996
 Frc consts  --      6.1805                 6.4175                 6.4593
 IR Inten    --      4.6345                 3.4798                 4.1290

 - Thermochemistry -
 -------------------
 Temperature   298.150 Kelvin.  Pressure   1.00000 Atm.
 Atom     1 has atomic number  6 and mass  12.00000

 Molecular mass:   203.97448 amu.
 Principal axes and moments of inertia in atomic units:
                           1         2         3
     Eigenvalues --  1917.488282879.985994775.34413
           X            0.99970  -0.02202  -0.01088
           Y            0.01971   0.98354  -0.17961
           Z            0.01465   0.17934   0.98368
 This molecule is an asymmetric top.
 Rotational symmetry number  1.
 Warning -- assumption of classical behavior for rotation
           may cause significant error
 Rotational temperatures (Kelvin)      0.04517     0.03007     0.01814
 Rotational constants (GHZ):           0.94120     0.62665     0.37793
 Zero-point vibrational energy     316317.1 (Joules/Mol)
                                   75.60160 (Kcal/Mol)
 Warning -- explicit consideration of  18 degrees of freedom as
           vibrations may cause significant error
 Vibrational temperatures:     20.35    73.54    94.96   122.88   140.22
          (Kelvin)            268.93   295.39   375.17   425.03   433.43
                              434.48   525.99   546.77   596.27   598.93
                              701.44   760.06   835.99  1014.69  1042.04
                             1079.09  1101.54  1224.84  1402.21  1467.30
                             1494.08  1508.19  1522.23  1551.56  1756.48
                             1779.41  1879.30  2024.51  2034.81  2115.98
                             2122.65  2126.49  2142.90  2354.00  2407.85
                             2459.45  2517.20  4369.74  4379.98  4439.26
                             4448.05  4529.78  4542.96

 Zero-point correction=                           0.120479 (Hartree/Particle)
 Thermal correction to Energy=                    0.132840
 Thermal correction to Enthalpy=                  0.133784
 Thermal correction to Gibbs Free Energy=         0.079130
 Sum of electronic and zero-point Energies=          -1379.342029
 Sum of electronic and thermal Energies=             -1379.329667
 Sum of electronic and thermal Enthalpies=           -1379.328723
 Sum of electronic and thermal Free Energies=        -1379.383377

                     E (Thermal)             CV                S
                      KCal/Mol        Cal/Mol-Kelvin    Cal/Mol-Kelvin
 Total                   83.359             42.592            115.030
 Electronic               0.000              0.000              0.000
 Translational            0.889              2.981             41.843
 Rotational               0.889              2.981             31.645
 Vibrational             81.581             36.630             41.542
 Vibration     1          0.593              1.986              7.322
 Vibration     2          0.595              1.977              4.774
 Vibration     3          0.597              1.970              4.269
 Vibration     4          0.601              1.959              3.763
 Vibration     5          0.603              1.951              3.505
 Vibration     6          0.632              1.858              2.258
 Vibration     7          0.640              1.832              2.085
 Vibration     8          0.669              1.745              1.657
 Vibration     9          0.690              1.682              1.443
 Vibration    10          0.693              1.671              1.410
 Vibration    11          0.694              1.670              1.406
 Vibration    12          0.739              1.543              1.098
 Vibration    13          0.750              1.513              1.039
 Vibration    14          0.778              1.439              0.911
 Vibration    15          0.779              1.435              0.905
 Vibration    16          0.843              1.278              0.690
 Vibration    17          0.883              1.187              0.591
 Vibration    18          0.938              1.072              0.483

                           ! Non-Optimized Parameters !
 Normal termination of Gaussian 16 at Sat Jan  6 05:52:42 2024.
