 Q-Chem 5.4, Q-Chem, Inc., Pleasanton, CA (2021)
 Q-Chem 5.4.0 for Intel X86 EM64T Linux

User input:
--------------------------------------------------------------
$molecule
0 1
C                 -1.1483300000      0.3406510000     -2.9901310000
C                 -1.9905490000      0.8155620000     -1.8726550000
C                  0.3021540000      0.3717300000     -2.7094940000
C                  0.7820600000      0.4388360000     -1.4509210000
C                 -0.1990650000      0.2440400000     -0.3384690000
C                 -1.5233560000      0.8850430000     -0.6094600000
C                  0.0481730000     -0.5445570000      0.7576540000
C                 -0.9332520000     -0.7396730000      1.8697930000
C                  1.3725190000     -1.1852290000      1.0290200000
C                 -0.4538350000     -0.6725860000      3.1285370000
C                  1.8392620000     -1.1156400000      2.2923860000
C                  0.9965570000     -0.6410730000      3.4096320000
O                 -1.6009300000      0.1003050000     -4.1027220000
O                  1.4487440000     -0.4006880000      4.5223810000
C                  2.2132080000      0.8634770000     -1.1934930000
C                  2.3300650000      2.4015110000     -1.1145310000
C                  3.7670110000      2.8683130000     -0.8547510000
C                  3.8961460000      4.3925900000     -0.7835320000
C                  2.0855630000     -2.0247810000     -0.0109480000
C                  1.6137030000     -3.4943850000      0.0443360000
C                  2.3128800000     -4.3751000000     -0.9975940000
C                  1.8587530000     -5.8366920000     -0.9455160000
C                 -2.3640870000     -1.1649490000      1.6116790000
C                 -2.4796700000     -2.7028960000      1.5293400000
C                 -3.9163470000     -3.1703340000      1.2692150000
C                 -4.0442060000     -4.6945520000      1.1945230000
C                 -2.2355610000      1.7250210000      0.4306670000
C                 -1.7587140000      3.1931460000      0.3790810000
C                 -2.4576480000      4.0743770000      1.4207460000
C                 -1.9983530000      5.5344860000      1.3725640000
H                 -2.9687910000      1.2023990000     -2.1406080000
H                  0.9559260000      0.4425130000     -3.5731890000
H                 -1.1078720000     -0.7437790000      3.9919940000
H                  2.8175850000     -1.5020790000      2.5606320000
H                  2.8512040000      0.4994020000     -2.0051240000
H                  2.6007620000      0.4501280000     -0.2634080000
H                  1.6772330000      2.7751970000     -0.3170130000
H                  1.9606980000      2.8402620000     -2.0479670000
H                  4.4200080000      2.4826140000     -1.6470570000
H                  4.1279790000      2.4262800000      0.0814080000
H                  3.5734800000      4.8616470000     -1.7181780000
H                  4.9306890000      4.6948630000     -0.6002360000
H                  3.2824250000      4.8047470000      0.0233830000
H                  3.1643250000     -1.9903860000      0.1718570000
H                  1.9138620000     -1.6555910000     -1.0210750000
H                  0.5298080000     -3.5343330000     -0.1151230000
H                  1.7936780000     -3.8938340000      1.0484770000
H                  3.3975760000     -4.3234470000     -0.8436980000
H                  2.1263090000     -3.9693720000     -1.9989260000
H                  2.0625400000     -6.2802910000      0.0339690000
H                  2.3754380000     -6.4396010000     -1.6970340000
H                  0.7839400000     -5.9242610000     -1.1319460000
H                 -2.7522340000     -0.7498990000      0.6825910000
H                 -3.0021710000     -0.8031730000      2.4242700000
H                 -2.1094700000     -3.1434340000      2.4616040000
H                 -1.8269380000     -3.0742090000      0.7306230000
H                 -4.2781750000     -2.7264410000      0.3342700000
H                 -4.5692640000     -2.7870380000      2.0627500000
H                 -3.4305920000     -5.1042980000      0.3862990000
H                 -5.0785920000     -4.9972900000      1.0111050000
H                 -3.7206090000     -5.1655040000      2.1278930000
H                 -2.0672780000      1.3535430000      1.4405280000
H                 -3.3140280000      1.6944760000      0.2454500000
H                 -1.9348090000      3.5949280000     -0.6248200000
H                 -0.6751160000      3.2292090000      0.5414550000
H                 -2.2751420000      3.6661830000      2.4218250000
H                 -3.5420960000      4.0267400000      1.2638560000
H                 -0.9237640000      5.6180080000      1.5621130000
H                 -2.5150260000      6.1378160000      2.1237530000
H                 -2.1979200000      5.9805530000      0.3933300000
$end
$rem
MAX_SCF_CYCLES=200
BASIS  =  6-311++G(d,p)
GUI  =  2
JOB_TYPE  =  SP
METHOD  =  B3LYP
SCF_CONVERGENCE  = 6
SOLVENT_METHOD = COSMO
$end
$solvent
dielectric 37.219
opticaldielectric 1.43
$end

--------------------------------------------------------------

             Standard Nuclear Orientation (Angstroms)
    I     Atom           X                Y                Z
 ----------------------------------------------------------------
    1      C      -0.7173203489    -0.0040526242    -3.3343681622
    2      C      -0.9246136612    -1.2436328674    -2.5571318944
    3      C      -0.9242813330     1.2370460373    -2.5594693768
    4      C      -0.9060437560     1.2452781264    -1.2109818522
    5      C      -0.4362454003    -0.0013482775    -0.5303106293
    6      C      -0.9062956832    -1.2491345804    -1.2086539749
    7      C       0.4360751862    -0.0006399245     0.5296675690
    8      C       0.9061930475    -1.2473811914     1.2099203523
    9      C       0.9058383410     1.2470118929     1.2084016600
   10      C       0.9245412336    -1.2396553618     2.5583940964
   11      C       0.9241365719     1.2410172809     2.5568876801
   12      C       0.7172235003     0.0011265652     3.3337159578
   13      O      -0.5515918661    -0.0051961054    -4.5480421116
   14      O       0.5515360499     0.0018280629     4.5473944758
   15      C      -1.4994342829     2.4059697383    -0.4393236270
   16      C      -3.0168132577     2.2125608244    -0.2257980316
   17      C      -3.6521526707     3.3702865602     0.5528023240
   18      C      -5.1587554375     3.1932936417     0.7625402003
   19      C       1.4993825202     2.4062502229     0.4346545765
   20      C       3.0175686396     2.2140310622     0.2258321682
   21      C       3.6533019519     3.3684652768    -0.5572708348
   22      C       5.1606533392     3.1922884300    -0.7623272618
   23      C       1.5000776843    -2.4074390970     0.4376911089
   24      C       3.0167733148    -2.2117315324     0.2214666211
   25      C       3.6526558975    -3.3689788039    -0.5574019144
   26      C       5.1585907847    -3.1896480794    -0.7699294118
   27      C      -1.5003605811    -2.4077268281    -0.4344356083
   28      C      -3.0173671561    -2.2118767784    -0.2204986976
   29      C      -3.6536747829    -3.3660893755     0.5624755475
   30      C      -5.1598447936    -3.1861801996     0.7728948466
   31      H      -1.1950311127    -2.1270675632    -3.1270587542
   32      H      -1.1943499562     2.1194723968    -3.1311194209
   33      H       1.1950218078    -2.1221733750     3.1297022854
   34      H       1.1941873124     2.1243571468     3.1271421744
   35      H      -1.3338995988     3.3340109169    -0.9958056313
   36      H      -1.0362195843     2.5252134886     0.5391070946
   37      H      -3.1913536594     1.2738336658     0.3128974085
   38      H      -3.5080200013     2.1067199318    -1.1993229811
   39      H      -3.4652046635     4.3095595500     0.0182611268
   40      H      -3.1561704036     3.4680322821     1.5257011409
   41      H      -5.6866503314     3.1256220856    -0.1937225793
   42      H      -5.5834401768     4.0341079769     1.3174453588
   43      H      -5.3756009882     2.2806899790     1.3262522169
   44      H       1.3312172645     3.3359896810     0.9874955333
   45      H       1.0383756486     2.5214035646    -0.5453206364
   46      H       3.1947855854     1.2726827654    -0.3073741002
   47      H       3.5063500546     2.1139498186     1.2011916533
   48      H       3.4637965311     4.3103340332    -0.0282260684
   49      H       3.1596575438     3.4603806457    -1.5319279466
   50      H       5.6863076387     3.1304100538     0.1955655837
   51      H       5.5856516534     4.0306269360    -1.3207240186
   52      H       5.3800082776     2.2769233048    -1.3205723318
   53      H       1.0354009711    -2.5278705990    -0.5399084581
   54      H       1.3369303143    -3.3354737728     0.9948910503
   55      H       3.5094702440    -2.1044067358     1.1940760283
   56      H       3.1888518486    -1.2731175038    -0.3182313846
   57      H       3.1551208302    -3.4682605723    -1.5293508006
   58      H       3.4682057858    -4.3081618879    -0.0218391079
   59      H       5.3729247291    -2.2771337974    -1.3347467319
   60      H       5.5836943386    -4.0301930993    -1.3249230103
   61      H       5.6880549468    -3.1203477150     0.1853483081
   62      H      -1.0366432211    -2.5255419453     0.5439406589
   63      H      -1.3363129966    -3.3370700343    -0.9891778902
   64      H      -3.5089735473    -2.1087058996    -1.1941179088
   65      H      -3.1903702884    -1.2710895765     0.3150756095
   66      H      -3.1570495273    -3.4612372816     1.5353065593
   67      H      -3.4685143299    -4.3074391722     0.0309801218
   68      H      -5.3748125348    -2.2713483638     1.3337137562
   69      H      -5.5852984101    -4.0244721517     1.3310156353
   70      H      -5.6885046700    -3.1209256615    -0.1831190461
 ----------------------------------------------------------------

   10   -1241.8029154118      7.29e-07  Convergence criterion met
 Total energy in the final basis set =    -1241.8029154118
    7   -1241.8261263818      6.40e-07  Convergence criterion met
 Total energy in the final basis set =    -1241.8261263818

                    Orbital Energies (a.u.)
 --------------------------------------------------------------

 Alpha MOs
 -- Occupied --
-19.1215 -19.1215 -10.2686 -10.2686 -10.2253 -10.2247 -10.2161 -10.2161
-10.2161 -10.2161 -10.1823 -10.1823 -10.1823 -10.1823 -10.1808 -10.1808
-10.1808 -10.1808 -10.1706 -10.1706 -10.1706 -10.1706 -10.1648 -10.1648
-10.1648 -10.1648 -10.1550 -10.1550 -10.1550 -10.1550  -1.0523  -1.0523
 -0.8978  -0.8644  -0.8301  -0.8192  -0.8004  -0.7984  -0.7799  -0.7770
 -0.7751  -0.7401  -0.7390  -0.7181  -0.7173  -0.6872  -0.6586  -0.6563
 -0.6429  -0.6388  -0.6006  -0.5944  -0.5872  -0.5865  -0.5840  -0.5815
 -0.5723  -0.5694  -0.5358  -0.5206  -0.4915  -0.4852  -0.4786  -0.4742
 -0.4726  -0.4665  -0.4582  -0.4545  -0.4480  -0.4461  -0.4447  -0.4412
 -0.4344  -0.4339  -0.4267  -0.4256  -0.4232  -0.4179  -0.4159  -0.4122
 -0.4107  -0.4072  -0.3964  -0.3932  -0.3887  -0.3886  -0.3835  -0.3813
 -0.3657  -0.3629  -0.3607  -0.3601  -0.3540  -0.3483  -0.3458  -0.3450
 -0.3374  -0.3369  -0.3351  -0.3342  -0.3327  -0.3300  -0.3296  -0.3291
 -0.3256  -0.3218  -0.2951  -0.2725  -0.2713  -0.2605  -0.2554  -0.2485

          Ground-State Mulliken Net Atomic Charges

     Atom                 Charge (a.u.)
  ----------------------------------------
      1 C                    -0.495062
      2 C                    -0.294241
      3 C                    -0.294346
      4 C                     1.135074
      5 C                    -0.024037
      6 C                     1.135007
      7 C                    -0.023007
      8 C                     1.135174
      9 C                     1.135781
     10 C                    -0.294246
     11 C                    -0.294557
     12 C                    -0.495860
     13 O                    -0.380667
     14 O                    -0.380390
     15 C                    -0.470951
     16 C                    -0.597940
     17 C                    -0.246086
     18 C                    -0.669681
     19 C                    -0.470820
     20 C                    -0.600978
     21 C                    -0.243040
     22 C                    -0.669987
     23 C                    -0.472443
     24 C                    -0.596487
     25 C                    -0.247855
     26 C                    -0.669608
     27 C                    -0.472146
     28 C                    -0.598695
     29 C                    -0.245606
     30 C                    -0.669685
     31 H                     0.244913
     32 H                     0.244795
     33 H                     0.244854
     34 H                     0.244887
     35 H                     0.227932
     36 H                     0.132760
     37 H                     0.032547
     38 H                     0.202606
     39 H                     0.159385
     40 H                     0.137910
     41 H                     0.146456
     42 H                     0.159180
     43 H                     0.150733
     44 H                     0.228132
     45 H                     0.132860
     46 H                     0.030845
     47 H                     0.202254
     48 H                     0.159391
     49 H                     0.137918
     50 H                     0.146502
     51 H                     0.159200
     52 H                     0.150680
     53 H                     0.133795
     54 H                     0.227665
     55 H                     0.202773
     56 H                     0.033353
     57 H                     0.137788
     58 H                     0.159470
     59 H                     0.150805
     60 H                     0.159155
     61 H                     0.146456
     62 H                     0.133745
     63 H                     0.227682
     64 H                     0.202603
     65 H                     0.031633
     66 H                     0.137762
     67 H                     0.159543
     68 H                     0.150730
     69 H                     0.159185
     70 H                     0.146501
  ----------------------------------------
  Sum of atomic charges =     0.000000

                    Cartesian Multipole Moments
 -----------------------------------------------------------------
    Charge (ESU x 10^10)
                -0.0000
    Dipole Moment (Debye)
         X      -0.0008      Y       0.0031      Z      -0.0018
       Tot       0.0037
    Quadrupole Moments (Debye-Ang)
        XX    -177.7217     XY      -0.0015     YY    -164.1315
        XZ      -0.9355     YZ      -0.0650     ZZ    -256.0371

 Total job time:  660.77s(wall), 5022.25s(cpu)
        *  Thank you very much for using Q-Chem.  Have a nice day.  *
