 Q-Chem 5.4, Q-Chem, Inc., Pleasanton, CA (2021)
 Q-Chem 5.4.0 for Intel X86 EM64T Linux

User input:
--------------------------------------------------------------
$molecule
0 1
O                  2.3501490000      1.6295460000      0.3519760000
C                  1.6647440000      0.4877570000      0.2210540000
C                  2.3807230000     -0.7210530000      0.2558930000
C                  1.7156400000     -1.9273720000      0.1245650000
C                  0.3255770000     -1.9707790000     -0.0446310000
C                 -0.3960100000     -0.7871000000     -0.0811790000
C                 -1.8778450000     -0.8338030000     -0.2615200000
O                 -2.4901770000     -1.8823960000     -0.3799240000
C                 -2.5997120000      0.4626270000     -0.2931480000
C                 -1.9633330000      1.6349060000     -0.1666090000
C                 -0.4984600000      1.7118930000      0.0128610000
O                  0.0472220000      2.8180770000      0.1255000000
C                  0.2612610000      0.4602430000      0.0510120000
H                  1.7029570000      2.3722870000      0.3055450000
H                  3.4549650000     -0.6760270000      0.3870880000
H                  2.2807180000     -2.8521200000      0.1532900000
H                 -0.2007780000     -2.9108550000     -0.1479540000
H                 -3.6741690000      0.3978960000     -0.4251730000
H                 -2.4834730000      2.5862740000     -0.1886440000
$end
$rem
MAX_SCF_CYCLES=200
BASIS  =  6-311++G(d,p)
GUI  =  2
JOB_TYPE  =  SP
METHOD  =  B3LYP
SOLVENT_METHOD = COSMO
$end
$solvent
dielectric 37.219
opticaldielectric 1.43
$end

--------------------------------------------------------------

             Standard Nuclear Orientation (Angstroms)
    I     Atom           X                Y                Z
 ----------------------------------------------------------------
    1      O       2.6587674958    -1.0783268755     0.0001377898
    2      C       1.7788502786    -0.0701858240     0.0000123300
    3      C       2.2782492946     1.2434586923    -0.0000787760
    4      C       1.4072105834     2.3186700824    -0.0000982191
    5      C       0.0198159778     2.1239323048    -0.0000329404
    6      C      -0.4895382775     0.8340959704     0.0000236388
    7      C      -1.9685984813     0.6269247213     0.0000499523
    8      O      -2.7597211988     1.5557100023     0.0001623743
    9      C      -2.4585016444    -0.7740813179    -0.0000501280
   10      C      -1.6218911722    -1.8206525354    -0.0001429522
   11      C      -0.1543886751    -1.6462226132    -0.0000523632
   12      O       0.5806191280    -2.6431493680     0.0000273987
   13      C       0.3809245364    -0.2828815028    -0.0000146467
   14      H       2.1461711423    -1.9208958492     0.0002746977
   15      H       3.3524300712     1.3826384408    -0.0000814468
   16      H       1.8064734302     3.3265819393    -0.0001531206
   17      H      -0.6669806025     2.9604599919    -0.0000381848
   18      H      -3.5363360967    -0.8938788151    -0.0000811922
   19      H      -1.9718758655    -2.8471236446    -0.0002366273
 ----------------------------------------------------------------

    9    -610.5174016877      7.07e-06  Convergence criterion met
 Total energy in the final basis set =     -610.5174016877
    5    -610.5319513644      3.25e-06  Convergence criterion met
 Total energy in the final basis set =     -610.5319513644

                    Orbital Energies (a.u.)
 --------------------------------------------------------------

 Alpha MOs
 -- Occupied --
-19.1689 -19.1480 -19.1404 -10.2933 -10.2888 -10.2705 -10.2141 -10.2130
-10.2129 -10.2097 -10.2027 -10.1964 -10.1962  -1.0971  -1.0732  -1.0686
 -0.8915  -0.8432  -0.7830  -0.7746  -0.7068  -0.6626  -0.6520  -0.6088
 -0.5481  -0.5443  -0.5393  -0.5112  -0.4840  -0.4708  -0.4687  -0.4658
 -0.4396  -0.4326  -0.4319  -0.4183  -0.4092  -0.3943  -0.3813  -0.3615
 -0.3142  -0.2996  -0.2861  -0.2841  -0.2545

          Ground-State Mulliken Net Atomic Charges

     Atom                 Charge (a.u.)
  ----------------------------------------
      1 O                    -0.328888
      2 C                    -0.043139
      3 C                    -0.121249
      4 C                    -0.354750
      5 C                    -0.030771
      6 C                     0.414068
      7 C                    -0.374947
      8 O                    -0.321661
      9 C                    -0.048047
     10 C                    -0.166325
     11 C                    -0.389552
     12 O                    -0.364500
     13 C                     0.572167
     14 H                     0.364009
     15 H                     0.238347
     16 H                     0.239607
     17 H                     0.199394
     18 H                     0.257414
     19 H                     0.258823
  ----------------------------------------
  Sum of atomic charges =     0.000000

                    Cartesian Multipole Moments
 -----------------------------------------------------------------
    Charge (ESU x 10^10)
                 0.0000
    Dipole Moment (Debye)
         X       0.1917      Y       0.6437      Z      -0.0007
       Tot       0.6716
    Quadrupole Moments (Debye-Ang)
        XX     -78.1797     XY      18.1155     YY     -74.2059
        XZ       0.0010     YZ      -0.0008     ZZ     -75.4395

 Total job time:  23.38s(wall), 170.14s(cpu)
        *  Thank you very much for using Q-Chem.  Have a nice day.  *
