 Gaussian 16, Revision A.03,
 Gaussian 16:  ES64L-G16RevA.03 25-Dec-2016

 ----------------------------------------------------------------------
 #P UB3LYP/6-311++G(d,p) nosym opt freq SCRF=(PCM,Solvent=n,n-DiMethylF
 ormamide)
 ----------------------------------------------------------------------

 -------
 Radical
 -------
 Symbolic Z-matrix:
 Charge = -1 Multiplicity = 2

 SCF Done:  E(UB3LYP) =  -991.298238100     A.U. after   18 cycles
 SCF Done:  E(UB3LYP) =  -991.299015372     A.U. after   14 cycles
 SCF Done:  E(UB3LYP) =  -991.299520466     A.U. after   15 cycles
 SCF Done:  E(UB3LYP) =  -991.299775446     A.U. after   13 cycles
 SCF Done:  E(UB3LYP) =  -991.299610967     A.U. after   13 cycles
 SCF Done:  E(UB3LYP) =  -991.299815181     A.U. after   13 cycles
 SCF Done:  E(UB3LYP) =  -991.299818555     A.U. after   11 cycles
 SCF Done:  E(UB3LYP) =  -991.299819972     A.U. after   11 cycles
 SCF Done:  E(UB3LYP) =  -991.299820904     A.U. after   10 cycles
 SCF Done:  E(UB3LYP) =  -991.299821488     A.U. after   10 cycles
 SCF Done:  E(UB3LYP) =  -991.299822148     A.U. after   10 cycles
 SCF Done:  E(UB3LYP) =  -991.299822844     A.U. after   11 cycles
 SCF Done:  E(UB3LYP) =  -991.299823384     A.U. after   10 cycles
 SCF Done:  E(UB3LYP) =  -991.299823653     A.U. after   10 cycles
 SCF Done:  E(UB3LYP) =  -991.299823712     A.U. after    9 cycles
 Optimization completed.
    -- Stationary point found.
 Normal termination of Gaussian 16 at Sun Feb 11 03:22:37 2024.

 ----------------------------------------------------------------------
 #P Geom=AllCheck Guess=TCheck SCRF=Check GenChk UB3LYP/6-311++G(d,p) F
 req
 ----------------------------------------------------------------------

 Structure from the checkpoint file:  "264-rad.chk"
 -------
 Radical
 -------
 Charge = -1 Multiplicity = 2

                          Input orientation:
 ---------------------------------------------------------------------
 Center     Atomic      Atomic             Coordinates (Angstroms)
 Number     Number       Type             X           Y           Z
 ---------------------------------------------------------------------
      1          6           0        4.905201   -1.272864   -0.005770
      2          6           0        3.531599   -1.075613   -0.575270
      3          8           0        3.271405   -0.776789   -1.716289
      4          8           0        2.581723   -1.314273    0.369101
      5          6           0        1.245848   -1.016174    0.078979
      6          6           0        0.433704   -2.100764   -0.172110
      7          6           0       -0.931049   -1.904007   -0.393531
      8          6           0       -1.450618   -0.628432   -0.350650
      9          8           0       -2.809987   -0.517168   -0.663162
     10          6           0       -3.700458   -0.299090    0.342053
     11          6           0       -5.065630   -0.017249   -0.211651
     12          8           0       -3.406503   -0.360189    1.511971
     13          6           0       -0.653528    0.513151   -0.092625
     14          6           0       -1.230621    1.875046   -0.053872
     15          8           0       -2.461449    2.107274   -0.232445
     16          6           0       -0.314890    2.946209    0.207854
     17          6           0        1.022875    2.753041    0.426232
     18          6           0        1.643273    1.461280    0.403326
     19          8           0        2.886396    1.338280    0.603750
     20          6           0        0.754400    0.310966    0.128587
     21          1           0        5.638690   -1.308910   -0.808671
     22          1           0        5.124647   -0.430517    0.654337
     23          1           0        4.948654   -2.186581    0.588984
     24          1           0        0.865157   -3.093726   -0.192205
     25          1           0       -1.588995   -2.738656   -0.600927
     26          1           0       -5.311542   -0.720825   -1.008517
     27          1           0       -5.058660    0.987783   -0.639704
     28          1           0       -5.807253   -0.071149    0.582713
     29          1           0       -0.740455    3.944568    0.232729
     30          1           0        1.678068    3.595379    0.625521
 ---------------------------------------------------------------------

 SCF Done:  E(UB3LYP) =  -991.299823712     A.U. after    2 cycles

 Alpha  occ. eigenvalues --  -19.17505 -19.17498 -19.11997 -19.11995 -19.07902
 Alpha  occ. eigenvalues --  -19.07897 -10.31377 -10.31377 -10.24503 -10.24500
 Alpha  occ. eigenvalues --  -10.23006 -10.23000 -10.19485 -10.19445 -10.18501
 Alpha  occ. eigenvalues --  -10.18447 -10.17641 -10.17635 -10.16667 -10.16602
 Alpha  occ. eigenvalues --   -1.11902  -1.11867  -1.03501  -1.03447  -1.00314
 Alpha  occ. eigenvalues --   -1.00073  -0.87328  -0.81373  -0.79068  -0.76037
 Alpha  occ. eigenvalues --   -0.75608  -0.73244  -0.68697  -0.65983  -0.63471
 Alpha  occ. eigenvalues --   -0.60950  -0.60234  -0.52830  -0.51854  -0.51447
 Alpha  occ. eigenvalues --   -0.50037  -0.49964  -0.49018  -0.48935  -0.47296
 Alpha  occ. eigenvalues --   -0.47042  -0.46317  -0.44487  -0.43041  -0.42792
 Alpha  occ. eigenvalues --   -0.41888  -0.41474  -0.41157  -0.40848  -0.39689
 Alpha  occ. eigenvalues --   -0.39451  -0.38593  -0.38451  -0.37962  -0.36979
 Alpha  occ. eigenvalues --   -0.36797  -0.35429  -0.32767  -0.32363  -0.29214
 Alpha  occ. eigenvalues --   -0.29157  -0.28191  -0.26408  -0.25777  -0.24464
 Alpha  occ. eigenvalues --   -0.23948  -0.15908
 Alpha virt. eigenvalues --   -0.04161  -0.02920  -0.00488  -0.00303  -0.00201
 Alpha virt. eigenvalues --    0.00283   0.01028   0.01620   0.02968   0.03122
 Alpha virt. eigenvalues --    0.03272   0.03939   0.03943   0.04498   0.05015

  Beta  occ. eigenvalues --  -19.17502 -19.17495 -19.11996 -19.11994 -19.07240
  Beta  occ. eigenvalues --  -19.07235 -10.31375 -10.31374 -10.24495 -10.24492
  Beta  occ. eigenvalues --  -10.22869 -10.22863 -10.19429 -10.19389 -10.18455
  Beta  occ. eigenvalues --  -10.18401 -10.17642 -10.17635 -10.16533 -10.16467
  Beta  occ. eigenvalues --   -1.11891  -1.11857  -1.03489  -1.03437  -0.99179
  Beta  occ. eigenvalues --   -0.98905  -0.87151  -0.80837  -0.78995  -0.76027
  Beta  occ. eigenvalues --   -0.75385  -0.73145  -0.67843  -0.65946  -0.63085
  Beta  occ. eigenvalues --   -0.60703  -0.60173  -0.52659  -0.51602  -0.51337
  Beta  occ. eigenvalues --   -0.49942  -0.49930  -0.48935  -0.48882  -0.47083
  Beta  occ. eigenvalues --   -0.47009  -0.46179  -0.44430  -0.42894  -0.42293
  Beta  occ. eigenvalues --   -0.41630  -0.41452  -0.40706  -0.40413  -0.39259
  Beta  occ. eigenvalues --   -0.38960  -0.38496  -0.38282  -0.37031  -0.36605
  Beta  occ. eigenvalues --   -0.35250  -0.34716  -0.32689  -0.32204  -0.29202
  Beta  occ. eigenvalues --   -0.29142  -0.25877  -0.25121  -0.25114  -0.23860
  Beta  occ. eigenvalues --   -0.23358
  Beta virt. eigenvalues --   -0.09246  -0.03363  -0.01767  -0.00414  -0.00238
  Beta virt. eigenvalues --   -0.00163   0.00294   0.01045   0.01626   0.02992
  Beta virt. eigenvalues --    0.03287   0.03303   0.03959   0.03986   0.05026

 Mulliken charges and spin densities:
               1          2
     1  C   -0.498049   0.001976
     2  C    0.045785   0.000750
     3  O   -0.291958  -0.000614
     4  O    0.007381  -0.002385
     5  C   -0.553006   0.040919
     6  C    0.076790   0.030365
     7  C    0.081058   0.030383
     8  C   -0.553508   0.041297
     9  O    0.007555  -0.002385
    10  C    0.045808   0.000615
    11  C   -0.498677   0.001977
    12  O   -0.291511  -0.000616
    13  C    0.553007   0.030476
    14  C   -0.203096   0.076451
    15  O   -0.465115   0.242074
    16  C   -0.122167   0.091860
    17  C   -0.112943   0.091842
    18  C   -0.203041   0.076286
    19  O   -0.465060   0.241937
    20  C    0.549949   0.030942
    21  H    0.168483  -0.000161
    22  H    0.199335  -0.000418
    23  H    0.177397   0.000287
    24  H    0.213270  -0.002822
    25  H    0.213095  -0.002814
    26  H    0.177473   0.000280
    27  H    0.199142  -0.000412
    28  H    0.168586  -0.000162
    29  H    0.186928  -0.008970
    30  H    0.187087  -0.008956
 Sum of Mulliken charges =  -1.00000   1.00000

 Dipole moment (field-independent basis, Debye):
    X=             -0.9002    Y=             -7.2242    Z=             -0.7532  Tot=              7.3189
 Quadrupole moment (field-independent basis, Debye-Ang):
   XX=           -135.8876   YY=           -120.7542   ZZ=           -133.5958
   XY=              0.4591   XZ=             11.6990   YZ=              0.3930

  Exact polarizability: 374.687 -10.653 310.668  22.126  13.777 176.875
 Approx polarizability: 409.999 -12.849 341.769  35.050  11.350 214.045

                      1                      2                      3
                      A                      A                      A
 Frequencies --     28.7160                46.0745                58.1096
 Red. masses --      8.3842                 5.1198                 5.1233
 Frc consts  --      0.0041                 0.0064                 0.0102
 IR Inten    --      0.8874                 5.1228                 2.5946

                      4                      5                      6
                      A                      A                      A
 Frequencies --     65.6446                75.7944                88.7854
 Red. masses --      3.2515                 2.0640                 2.6765
 Frc consts  --      0.0083                 0.0070                 0.0124
 IR Inten    --     11.6237                 1.0612                10.2023

                      7                      8                      9
                      A                      A                      A
 Frequencies --     91.1408               100.4236               110.7408
 Red. masses --      1.1681                 2.8692                 3.8186
 Frc consts  --      0.0057                 0.0170                 0.0276
 IR Inten    --      1.8867                 7.9824                 4.9387

                     10                     11                     12
                      A                      A                      A
 Frequencies --    125.1949               166.6194               248.0719
 Red. masses --      8.4939                 5.9056                 8.6947
 Frc consts  --      0.0784                 0.0966                 0.3153
 IR Inten    --      1.2026                 3.3452                 7.3076

                     13                     14                     15
                      A                      A                      A
 Frequencies --    274.4784               280.6694               317.5461
 Red. masses --      3.7891                10.0669                 4.9665
 Frc consts  --      0.1682                 0.4672                 0.2951
 IR Inten    --      0.4710                 1.9360                 7.0231

                     16                     17                     18
                      A                      A                      A
 Frequencies --    321.7030               353.4594               386.8819
 Red. masses --      5.0448                10.1801                 5.8047
 Frc consts  --      0.3076                 0.7493                 0.5119
 IR Inten    --      0.0526                 0.5914                 0.3166

                     19                     20                     21
                      A                      A                      A
 Frequencies --    397.2832               421.0731               462.1729
 Red. masses --     11.0404                 4.6973                11.1784
 Frc consts  --      1.0267                 0.4907                 1.4068
 IR Inten    --     30.3552                13.2755                 0.0904

                     22                     23                     24
                      A                      A                      A
 Frequencies --    486.7121               491.1767               513.2637
 Red. masses --      4.5619                 5.4675                 4.9585
 Frc consts  --      0.6367                 0.7772                 0.7696
 IR Inten    --      0.0124                 3.3656                 1.5798

                     25                     26                     27
                      A                      A                      A
 Frequencies --    541.2710               574.2098               576.8155
 Red. masses --      3.7631                 2.9431                 3.0659
 Frc consts  --      0.6496                 0.5717                 0.6010
 IR Inten    --     13.8312                 2.9378                26.8938

                     28                     29                     30
                      A                      A                      A
 Frequencies --    612.2909               623.2912               657.7081
 Red. masses --      6.2767                 4.1928                 4.0246
 Frc consts  --      1.3864                 0.9597                 1.0257
 IR Inten    --      0.7701                35.3514                11.1060

                     31                     32                     33
                      A                      A                      A
 Frequencies --    658.8150               680.6993               723.5956
 Red. masses --      5.8895                 3.4113                 5.8802
 Frc consts  --      1.5061                 0.9313                 1.8140
 IR Inten    --      1.3572                42.1045                 0.0586

                     34                     35                     36
                      A                      A                      A
 Frequencies --    758.6457               763.9995               795.3791
 Red. masses --      6.6479                 3.2279                 8.9000
 Frc consts  --      2.2543                 1.1101                 3.3173
 IR Inten    --     56.1600                 2.0584                 0.3433

                     37                     38                     39
                      A                      A                      A
 Frequencies --    832.7178               839.1511               891.3020
 Red. masses --      1.8211                 2.3072                 4.6420
 Frc consts  --      0.7440                 0.9572                 2.1727
 IR Inten    --     10.0845                48.3846                 9.8713

                     40                     41                     42
                      A                      A                      A
 Frequencies --    892.4539               949.2956               950.8259
 Red. masses --      4.4471                 1.5001                 6.5863
 Frc consts  --      2.0869                 0.7965                 3.5083
 IR Inten    --     99.0250                 4.9151               152.7917

                     43                     44                     45
                      A                      A                      A
 Frequencies --    952.9052               968.0108              1022.0404
 Red. masses --      1.3551                 4.1506                 1.9182
 Frc consts  --      0.7250                 2.2915                 1.1805
 IR Inten    --      1.8663                27.2893                 2.8864

                     46                     47                     48
                      A                      A                      A
 Frequencies --   1025.0457              1054.8833              1056.1757
 Red. masses --      1.9014                 1.7757                 1.7659
 Frc consts  --      1.1771                 1.1642                 1.1606
 IR Inten    --    344.7976                21.0925                30.8201

                     49                     50                     51
                      A                      A                      A
 Frequencies --   1099.0685              1130.6617              1160.3385
 Red. masses --      1.7004                 3.4643                 1.2983
 Frc consts  --      1.2102                 2.6093                 1.0299
 IR Inten    --      0.1010               420.6418                27.8833

                     52                     53                     54
                      A                      A                      A
 Frequencies --   1199.6106              1216.0725              1224.4727
 Red. masses --      3.3182                 6.5174                 4.3881
 Frc consts  --      2.8134                 5.6786                 3.8764
 IR Inten    --   1341.8916                 0.5104                 6.6457

                     55                     56                     57
                      A                      A                      A
 Frequencies --   1229.8923              1241.4165              1306.8648
 Red. masses --      2.6452                 2.5560                 2.1280
 Frc consts  --      2.3574                 2.3209                 2.1414
 IR Inten    --     18.8257               215.9690                 0.5362

                     58                     59                     60
                      A                      A                      A
 Frequencies --   1313.8539              1383.0655              1387.1338
 Red. masses --     11.2737                 3.7146                 1.3668
 Frc consts  --     11.4660                 4.1865                 1.5495
 IR Inten    --     14.9505                12.5554               192.3768

                     61                     62                     63
                      A                      A                      A
 Frequencies --   1388.9189              1416.7812              1433.1307
 Red. masses --      1.3934                 4.5206                 2.9856
 Frc consts  --      1.5837                 5.3463                 3.6129
 IR Inten    --     58.8349               390.8096               219.1536

                     64                     65                     66
                      A                      A                      A
 Frequencies --   1461.4795              1461.6928              1464.6399
 Red. masses --      1.0559                 1.0519                 1.0597
 Frc consts  --      1.3288                 1.3241                 1.3393
 IR Inten    --     33.8877                24.8561                20.9631

                     67                     68                     69
                      A                      A                      A
 Frequencies --   1465.0284              1491.0610              1534.4240
 Red. masses --      1.0560                10.3100                 5.2865
 Frc consts  --      1.3354                13.5052                 7.3334
 IR Inten    --      9.4645                 0.2731              1302.4635

                     70                     71                     72
                      A                      A                      A
 Frequencies --   1559.0681              1625.3484              1630.3581
 Red. masses --      5.8056                 7.1645                 7.5360
 Frc consts  --      8.3143                11.1514                11.8020
 IR Inten    --    128.5280                 7.2439                13.0812

                     73                     74                     75
                      A                      A                      A
 Frequencies --   1765.9580              1767.4938              3054.1377
 Red. masses --     11.4417                11.3780                 1.0358
 Frc consts  --     21.0233                20.9427                 5.6924
 IR Inten    --    950.8788                10.6447                 2.5027

                     76                     77                     78
                      A                      A                      A
 Frequencies --   3054.7960              3119.6043              3120.3523
 Red. masses --      1.0356                 1.1000                 1.1000
 Frc consts  --      5.6941                 6.3073                 6.3103
 IR Inten    --      2.4191                 5.5539                 5.6001

                     79                     80                     81
                      A                      A                      A
 Frequencies --   3153.0308              3154.0250              3154.1846
 Red. masses --      1.0857                 1.1042                 1.1042
 Frc consts  --      6.3595                 6.4719                 6.4728
 IR Inten    --     33.9070                14.7352                12.5384

                     82                     83                     84
                      A                      A                      A
 Frequencies --   3171.3270              3189.7846              3202.8087
 Red. masses --      1.0948                 1.0889                 1.0958
 Frc consts  --      6.4871                 6.5276                 6.6231
 IR Inten    --     31.9136                10.8480                 4.4652

 - Thermochemistry -
 -------------------
 Temperature   298.150 Kelvin.  Pressure   1.00000 Atm.
 Atom     1 has atomic number  6 and mass  12.00000

 Molecular mass:   274.04774 amu.
 Principal axes and moments of inertia in atomic units:
                           1         2         3
     Eigenvalues --  2518.539947755.050439511.25720
           X            0.99212   0.12133   0.03138
           Y           -0.11648   0.98513  -0.12628
           Z           -0.04624   0.12163   0.99150
 This molecule is an asymmetric top.
 Rotational symmetry number  1.
 Warning -- assumption of classical behavior for rotation
           may cause significant error
 Rotational temperatures (Kelvin)      0.03439     0.01117     0.00911
 Rotational constants (GHZ):           0.71658     0.23272     0.18975
 Zero-point vibrational energy     556533.6 (Joules/Mol)
                                  133.01472 (Kcal/Mol)
 Warning -- explicit consideration of  28 degrees of freedom as
           vibrations may cause significant error
 Vibrational temperatures:     41.32    66.29    83.61    94.45   109.05
          (Kelvin)            127.74   131.13   144.49   159.33   180.13
                              239.73   356.92   394.91   403.82   456.88
                              462.86   508.55   556.64   571.60   605.83
                              664.96   700.27   706.69   738.47   778.77
                              826.16   829.91   880.95   896.78   946.30
                              947.89   979.37  1041.09  1091.52  1099.22
                             1144.37  1198.10  1207.35  1282.38  1284.04
                             1365.82  1368.03  1371.02  1392.75  1470.49
                             1474.81  1517.74  1519.60  1581.31  1626.77
                             1669.47  1725.97  1749.66  1761.74  1769.54
                             1786.12  1880.29  1890.34  1989.92  1995.78
                             1998.34  2038.43  2061.96  2102.74  2103.05
                             2107.29  2107.85  2145.30  2207.69  2243.15
                             2338.51  2345.72  2540.82  2543.03  4394.22
                             4395.17  4488.41  4489.49  4536.51  4537.94
                             4538.17  4562.83  4589.39  4608.13

 Zero-point correction=                           0.211972 (Hartree/Particle)
 Thermal correction to Energy=                    0.229970
 Thermal correction to Enthalpy=                  0.230915
 Thermal correction to Gibbs Free Energy=         0.163648
 Sum of electronic and zero-point Energies=           -991.087851
 Sum of electronic and thermal Energies=              -991.069853
 Sum of electronic and thermal Enthalpies=            -991.068909
 Sum of electronic and thermal Free Energies=         -991.136176

                     E (Thermal)             CV                S
                      KCal/Mol        Cal/Mol-Kelvin    Cal/Mol-Kelvin
 Total                  144.309             66.371            141.574
 Electronic               0.000              0.000              1.377
 Translational            0.889              2.981             42.723
 Rotational               0.889              2.981             33.585
 Vibrational            142.531             60.410             63.889
 Vibration     1          0.593              1.984              5.916
 Vibration     2          0.595              1.979              4.979
 Vibration     3          0.596              1.974              4.520
 Vibration     4          0.597              1.971              4.280
 Vibration     5          0.599              1.965              3.997
 Vibration     6          0.602              1.957              3.687
 Vibration     7          0.602              1.955              3.635
 Vibration     8          0.604              1.949              3.446
 Vibration     9          0.607              1.941              3.256
 Vibration    10          0.610              1.928              3.019
 Vibration    11          0.624              1.884              2.473
 Vibration    12          0.662              1.766              1.744
 Vibration    13          0.677              1.720              1.568
 Vibration    14          0.680              1.709              1.530
 Vibration    15          0.704              1.640              1.323
 Vibration    16          0.707              1.632              1.301
 Vibration    17          0.730              1.568              1.151
 Vibration    18          0.755              1.498              1.012
 Vibration    19          0.764              1.476              0.973
 Vibration    20          0.784              1.424              0.888
 Vibration    21          0.820              1.334              0.760
 Vibration    22          0.843              1.280              0.692
 Vibration    23          0.847              1.270              0.681
 Vibration    24          0.868              1.221              0.626
 Vibration    25          0.896              1.159              0.563
 Vibration    26          0.931              1.087              0.496
 Vibration    27          0.933              1.081              0.491
 Vibration    28          0.972              1.006              0.429

                           ! Non-Optimized Parameters !
 Normal termination of Gaussian 16 at Sun Feb 11 04:36:40 2024.
