 Gaussian 16, Revision A.03,
 Gaussian 16:  ES64L-G16RevA.03 25-Dec-2016

 ----------------------------------------------------------------
 #P UB3LYP/6-311++G(d,p) SCRF=(PCM,Solvent=n,n-DiMethylFormamide)
 ----------------------------------------------------------------

 -------
 Reduced
 -------
 Symbolic Z-matrix:
 Charge = -2 Multiplicity = 1

                         Standard orientation:
 ---------------------------------------------------------------------
 Center     Atomic      Atomic             Coordinates (Angstroms)
 Number     Number       Type             X           Y           Z
 ---------------------------------------------------------------------
      1          6           0       -0.825441   -1.964098   -0.275651
      2          6           0       -2.156889   -2.387531   -0.708077
      3          6           0       -3.232810   -1.561463   -0.745369
      4          6           0       -3.183674   -0.134091   -0.427190
      5          6           0       -1.874153    0.358778   -0.076165
      6          6           0       -0.788190   -0.600882    0.154037
      7          8           0        0.134686   -2.798135   -0.292185
      8          8           0       -4.253735    0.550739   -0.566579
      9         16           0        0.539697   -0.183156    1.243990
     10          6           0        2.027734    0.086821    0.221140
     11          6           0        2.690657   -1.021226   -0.311260
     12          6           0        2.483750    1.382328   -0.015972
     13          6           0        3.641140    1.569736   -0.771860
     14          6           0        3.842688   -0.820680   -1.071065
     15          6           0        4.327182    0.471319   -1.296400
     16          8           0        0.284496    1.093376    1.948841
     17          8           0        0.904485   -1.324847    2.115708
     18          1           0       -2.242016   -3.438225   -0.982571
     19          1           0       -4.209733   -1.928904   -1.057057
     20          1           0        2.258982   -2.004194   -0.148342
     21          1           0        1.908334    2.212660    0.372373
     22          1           0        4.001709    2.577169   -0.962309
     23          1           0        4.362376   -1.676561   -1.493874
     24          1           0        5.226704    0.621864   -1.888237
     25          6           0       -1.578105    1.772271   -0.264523
     26          6           0       -2.701849    2.798313   -0.154000
     27          8           0       -0.448397    2.197278   -0.567854
     28          1           0       -3.289156    2.656429    0.756858
     29          1           0       -3.411942    2.672672   -0.976500
     30          1           0       -2.244939    3.792729   -0.173497
 ---------------------------------------------------------------------

 SCF Done:  E(UB3LYP) =  -1314.28896053     A.U. after   18 cycles

 The electronic state is 1-A.
 Alpha  occ. eigenvalues --  -89.02503 -19.09130 -19.08988 -19.06714 -19.04245
 Alpha  occ. eigenvalues --  -19.04028 -10.22268 -10.20713 -10.20368 -10.19248
 Alpha  occ. eigenvalues --  -10.17790 -10.17655 -10.17606 -10.17599 -10.17375
 Alpha  occ. eigenvalues --  -10.16032 -10.15504 -10.15322 -10.14442 -10.14001
 Alpha  occ. eigenvalues --   -8.08828  -6.05151  -6.05003  -6.04893  -1.08169
 Alpha  occ. eigenvalues --   -0.99559  -0.97552  -0.96475  -0.96024  -0.86052
 Alpha  occ. eigenvalues --   -0.80428  -0.76465  -0.74886  -0.74240  -0.71706
 Alpha  occ. eigenvalues --   -0.67930  -0.64759  -0.60887  -0.60565  -0.58414
 Alpha  occ. eigenvalues --   -0.54879  -0.51931  -0.50483  -0.47675  -0.46498
 Alpha  occ. eigenvalues --   -0.46002  -0.45503  -0.44442  -0.44021  -0.42897
 Alpha  occ. eigenvalues --   -0.42335  -0.42221  -0.40998  -0.39231  -0.38588
 Alpha  occ. eigenvalues --   -0.37994  -0.37296  -0.37055  -0.36503  -0.35536
 Alpha  occ. eigenvalues --   -0.35294  -0.34400  -0.33326  -0.33127  -0.31569
 Alpha  occ. eigenvalues --   -0.30271  -0.27964  -0.27931  -0.26205  -0.25814
 Alpha  occ. eigenvalues --   -0.24768  -0.23233  -0.22409  -0.21505  -0.20637
 Alpha  occ. eigenvalues --   -0.14786
 Alpha virt. eigenvalues --   -0.04204  -0.02273  -0.01233  -0.00009   0.00766
 Alpha virt. eigenvalues --    0.01258   0.02214   0.02264   0.02828   0.03152
 Alpha virt. eigenvalues --    0.03760   0.04040   0.04523   0.04875   0.05432

  Beta  occ. eigenvalues --  -89.02503 -19.09130 -19.08988 -19.06714 -19.04245
  Beta  occ. eigenvalues --  -19.04028 -10.22268 -10.20713 -10.20368 -10.19248
  Beta  occ. eigenvalues --  -10.17790 -10.17655 -10.17606 -10.17599 -10.17375
  Beta  occ. eigenvalues --  -10.16032 -10.15504 -10.15322 -10.14442 -10.14001
  Beta  occ. eigenvalues --   -8.08828  -6.05151  -6.05003  -6.04893  -1.08169
  Beta  occ. eigenvalues --   -0.99559  -0.97552  -0.96475  -0.96024  -0.86052
  Beta  occ. eigenvalues --   -0.80428  -0.76465  -0.74886  -0.74240  -0.71706
  Beta  occ. eigenvalues --   -0.67930  -0.64759  -0.60887  -0.60565  -0.58414
  Beta  occ. eigenvalues --   -0.54879  -0.51931  -0.50483  -0.47675  -0.46498
  Beta  occ. eigenvalues --   -0.46002  -0.45503  -0.44442  -0.44021  -0.42897
  Beta  occ. eigenvalues --   -0.42335  -0.42221  -0.40998  -0.39231  -0.38588
  Beta  occ. eigenvalues --   -0.37994  -0.37296  -0.37055  -0.36503  -0.35536
  Beta  occ. eigenvalues --   -0.35294  -0.34400  -0.33326  -0.33127  -0.31569
  Beta  occ. eigenvalues --   -0.30271  -0.27964  -0.27931  -0.26205  -0.25814
  Beta  occ. eigenvalues --   -0.24768  -0.23233  -0.22409  -0.21505  -0.20637
  Beta  occ. eigenvalues --   -0.14786
  Beta virt. eigenvalues --   -0.04204  -0.02273  -0.01233  -0.00009   0.00766
  Beta virt. eigenvalues --    0.01258   0.02214   0.02264   0.02828   0.03152
  Beta virt. eigenvalues --    0.03760   0.04040   0.04523   0.04875   0.05432

 Mulliken charges and spin densities:
               1          2
     1  C   -0.183547   0.000000
     2  C   -0.412710  -0.000000
     3  C   -0.217216   0.000000
     4  C   -0.655817  -0.000000
     5  C    0.962888   0.000000
     6  C    0.072088  -0.000000
     7  O   -0.496754  -0.000000
     8  O   -0.553138   0.000000
     9  S    0.728687   0.000000
    10  C   -0.223634   0.000000
    11  C   -0.030974  -0.000000
    12  C    0.155957  -0.000000
    13  C   -0.483941  -0.000000
    14  C   -0.490745  -0.000000
    15  C   -0.287460  -0.000000
    16  O   -0.311221  -0.000000
    17  O   -0.236994  -0.000000
    18  H    0.180891  -0.000000
    19  H    0.175019   0.000000
    20  H    0.273303  -0.000000
    21  H    0.255150  -0.000000
    22  H    0.202219   0.000000
    23  H    0.198299   0.000000
    24  H    0.182966  -0.000000
    25  C   -0.266884  -0.000000
    26  C   -0.616134   0.000000
    27  O   -0.394021   0.000000
    28  H    0.165829   0.000000
    29  H    0.176694   0.000000
    30  H    0.131199   0.000000
 Sum of Mulliken charges =  -2.00000  -0.00000

 Dipole moment (field-independent basis, Debye):
    X=             10.1961    Y=              2.6184    Z=             -4.0674  Tot=             11.2854
 Quadrupole moment (field-independent basis, Debye-Ang):
   XX=           -177.5646   YY=           -163.0570   ZZ=           -150.0058
   XY=             11.6303   XZ=            -14.5754   YZ=              4.2172

 Normal termination of Gaussian 16 at Wed Jan 24 22:56:21 2024.
