 Gaussian 16, Revision A.03,
 Gaussian 16:  ES64L-G16RevA.03 25-Dec-2016

 ----------------------------------------------------------------------
 #P UB3LYP/6-311++G(d,p) nosym opt freq SCRF=(PCM,Solvent=n,n-DiMethylF
 ormamide)
 ----------------------------------------------------------------------

 -------
 Radical
 -------
 Symbolic Z-matrix:
 Charge = -1 Multiplicity = 2

 SCF Done:  E(UB3LYP) =  -1219.23358062     A.U. after   19 cycles
 SCF Done:  E(UB3LYP) =  -1219.23242434     A.U. after   18 cycles
 SCF Done:  E(UB3LYP) =  -1219.23553800     A.U. after   17 cycles
 SCF Done:  E(UB3LYP) =  -1219.23548180     A.U. after   14 cycles
 SCF Done:  E(UB3LYP) =  -1219.23566784     A.U. after   15 cycles
 SCF Done:  E(UB3LYP) =  -1219.23584593     A.U. after   14 cycles
 SCF Done:  E(UB3LYP) =  -1219.23588581     A.U. after   15 cycles
 SCF Done:  E(UB3LYP) =  -1219.23594039     A.U. after   14 cycles
 SCF Done:  E(UB3LYP) =  -1219.23595804     A.U. after   15 cycles
 SCF Done:  E(UB3LYP) =  -1219.23596350     A.U. after   12 cycles
 SCF Done:  E(UB3LYP) =  -1219.23596832     A.U. after   12 cycles
 SCF Done:  E(UB3LYP) =  -1219.23596928     A.U. after   11 cycles
 SCF Done:  E(UB3LYP) =  -1219.23596977     A.U. after   10 cycles
 SCF Done:  E(UB3LYP) =  -1219.23596991     A.U. after   11 cycles
 SCF Done:  E(UB3LYP) =  -1219.23596998     A.U. after    9 cycles
 SCF Done:  E(UB3LYP) =  -1219.23597007     A.U. after   10 cycles
 Optimization completed.
    -- Stationary point found.
 Normal termination of Gaussian 16 at Sun Feb 11 04:40:57 2024.

 ----------------------------------------------------------------------
 #P Geom=AllCheck Guess=TCheck SCRF=Check GenChk UB3LYP/6-311++G(d,p) F
 req
 ----------------------------------------------------------------------

 Structure from the checkpoint file:  "265-rad.chk"
 -------
 Radical
 -------
 Charge = -1 Multiplicity = 2

                          Input orientation:
 ---------------------------------------------------------------------
 Center     Atomic      Atomic             Coordinates (Angstroms)
 Number     Number       Type             X           Y           Z
 ---------------------------------------------------------------------
      1          6           0       -1.065248    2.942927   -0.551886
      2          6           0       -2.375739    2.499119   -0.432986
      3          6           0       -2.645250    1.191121   -0.018749
      4          6           0        0.006459    2.072413   -0.261439
      5          6           0       -0.267247    0.741320    0.139916
      6          6           0       -1.607034    0.314475    0.259842
      7          6           0        1.393846    2.574791   -0.397455
      8          6           0        2.455526    1.635098   -0.105207
      9          6           0        2.164539    0.328984    0.270626
     10          6           0        0.842919   -0.180633    0.431826
     11          8           0        1.569259    3.757061   -0.771248
     12          8           0        0.618279   -1.364699    0.811426
     13          1           0       -3.674104    0.862674    0.073922
     14          1           0        2.973658   -0.357819    0.484435
     15          6           0       -1.984474   -1.071397    0.711129
     16          8           0       -2.307971   -1.348575    1.846608
     17          8           0       -2.075557   -1.920093   -0.321971
     18          6           0       -2.461983   -3.276777   -0.009487
     19          1           0       -3.198641    3.165811   -0.663549
     20          1           0       -2.481962   -3.798340   -0.963005
     21          1           0       -3.447472   -3.293725    0.456221
     22          1           0       -1.728867   -3.729614    0.658554
     23          6           0        3.871321    2.072264   -0.176939
     24          8           0        4.286677    3.204223   -0.021273
     25          8           0        4.706164    1.031409   -0.421740
     26          6           0       -0.881662    4.345437   -1.081703
     27          8           0       -0.989959    4.594956   -2.264250
     28          8           0       -0.810779    5.368975   -0.210456
     29          6           0       -0.587310    5.128540    1.196084
     30          6           0        6.115352    1.329218   -0.436956
     31          1           0       -0.652647    6.106580    1.667264
     32          1           0        0.405813    4.707119    1.347098
     33          1           0       -1.351773    4.469431    1.608037
     34          1           0        6.609465    0.380391   -0.632690
     35          1           0        6.432607    1.731186    0.526111
     36          1           0        6.346522    2.046757   -1.225044
 ---------------------------------------------------------------------

 SCF Done:  E(UB3LYP) =  -1219.23597007     A.U. after    2 cycles

 Alpha  occ. eigenvalues --  -19.17544 -19.17168 -19.16783 -19.12057 -19.11546
 Alpha  occ. eigenvalues --  -19.11241 -19.09535 -19.09343 -10.31730 -10.31605
 Alpha  occ. eigenvalues --  -10.30497 -10.24817 -10.23721 -10.22416 -10.22399
 Alpha  occ. eigenvalues --  -10.22148 -10.20851 -10.20723 -10.20091 -10.20039
 Alpha  occ. eigenvalues --  -10.19639 -10.19574 -10.19042 -10.18183  -1.11663
 Alpha  occ. eigenvalues --   -1.10969  -1.10808  -1.02928  -1.02790  -1.02660
 Alpha  occ. eigenvalues --   -1.01772  -1.01587  -0.88717  -0.83241  -0.80021
 Alpha  occ. eigenvalues --   -0.77624  -0.73937  -0.72989  -0.72819  -0.69889
 Alpha  occ. eigenvalues --   -0.66744  -0.64768  -0.61825  -0.58954  -0.57400
 Alpha  occ. eigenvalues --   -0.55866  -0.54239  -0.53110  -0.52418  -0.50714
 Alpha  occ. eigenvalues --   -0.49769  -0.48860  -0.48631  -0.48328  -0.48309
 Alpha  occ. eigenvalues --   -0.48202  -0.47083  -0.46035  -0.45014  -0.43755
 Alpha  occ. eigenvalues --   -0.43544  -0.42874  -0.42524  -0.41756  -0.41213
 Alpha  occ. eigenvalues --   -0.40517  -0.40159  -0.39747  -0.39314  -0.38548
 Alpha  occ. eigenvalues --   -0.37482  -0.37112  -0.36511  -0.36175  -0.35638
 Alpha  occ. eigenvalues --   -0.31692  -0.31218  -0.30806  -0.30129  -0.29796
 Alpha  occ. eigenvalues --   -0.29309  -0.29140  -0.27214  -0.26608  -0.26011
 Alpha  occ. eigenvalues --   -0.24993  -0.17465
 Alpha virt. eigenvalues --   -0.06186  -0.04840  -0.00624  -0.00486  -0.00210
 Alpha virt. eigenvalues --    0.00160   0.00582   0.00799   0.01481   0.02092
 Alpha virt. eigenvalues --    0.02236   0.02835   0.03219   0.03517   0.03787

  Beta  occ. eigenvalues --  -19.17543 -19.17169 -19.16776 -19.12054 -19.11545
  Beta  occ. eigenvalues --  -19.11184 -19.09003 -19.08608 -10.31730 -10.31606
  Beta  occ. eigenvalues --  -10.30494 -10.24721 -10.23603 -10.22416 -10.22398
  Beta  occ. eigenvalues --  -10.22148 -10.20858 -10.20703 -10.20055 -10.20007
  Beta  occ. eigenvalues --  -10.19627 -10.19544 -10.18904 -10.17907  -1.11660
  Beta  occ. eigenvalues --   -1.10966  -1.10766  -1.02920  -1.02767  -1.02165
  Beta  occ. eigenvalues --   -1.01279  -1.00340  -0.88568  -0.82673  -0.79931
  Beta  occ. eigenvalues --   -0.77456  -0.73894  -0.72911  -0.72712  -0.69003
  Beta  occ. eigenvalues --   -0.66692  -0.64493  -0.61589  -0.58913  -0.57313
  Beta  occ. eigenvalues --   -0.55806  -0.54131  -0.52950  -0.52296  -0.50525
  Beta  occ. eigenvalues --   -0.49578  -0.48844  -0.48517  -0.48305  -0.48252
  Beta  occ. eigenvalues --   -0.48133  -0.47037  -0.45924  -0.44969  -0.43392
  Beta  occ. eigenvalues --   -0.42983  -0.42603  -0.42041  -0.41370  -0.41039
  Beta  occ. eigenvalues --   -0.40289  -0.39890  -0.39694  -0.38670  -0.37289
  Beta  occ. eigenvalues --   -0.36819  -0.36561  -0.36247  -0.36069  -0.35496
  Beta  occ. eigenvalues --   -0.31655  -0.31057  -0.30803  -0.29958  -0.29494
  Beta  occ. eigenvalues --   -0.29178  -0.26693  -0.26364  -0.26138  -0.25407
  Beta  occ. eigenvalues --   -0.24496
  Beta virt. eigenvalues --   -0.10695  -0.05441  -0.03814  -0.00594  -0.00444
  Beta virt. eigenvalues --   -0.00197   0.00179   0.00606   0.01370   0.01508
  Beta virt. eigenvalues --    0.02130   0.02259   0.02859   0.03255   0.03631

 Mulliken charges and spin densities:
               1          2
     1  C    0.166649  -0.010546
     2  C    0.346979   0.029001
     3  C   -0.050647   0.008286
     4  C    0.285814   0.020701
     5  C    0.592301   0.017677
     6  C    0.513909   0.021399
     7  C   -0.842373   0.042997
     8  C    0.078896   0.079760
     9  C   -0.276541   0.201812
    10  C   -0.634135   0.079574
    11  O   -0.359091   0.201070
    12  O   -0.384014   0.270851
    13  H    0.210720  -0.000595
    14  H    0.207639  -0.015734
    15  C   -0.830171  -0.000611
    16  O   -0.220040   0.000230
    17  O    0.059016  -0.000938
    18  C   -0.223193   0.000904
    19  H    0.230582  -0.001885
    20  H    0.172148   0.000097
    21  H    0.174489  -0.000075
    22  H    0.184501  -0.000264
    23  C    0.295630   0.033918
    24  O   -0.320614   0.020472
    25  O   -0.095593   0.000165
    26  C   -0.420697   0.001682
    27  O   -0.299414   0.000290
    28  O   -0.040178   0.000027
    29  C   -0.360728  -0.000102
    30  C   -0.241537  -0.000321
    31  H    0.173324  -0.000432
    32  H    0.201938  -0.000787
    33  H    0.171379   0.001093
    34  H    0.164360   0.000046
    35  H    0.188233  -0.000019
    36  H    0.180458   0.000255
 Sum of Mulliken charges =  -1.00000   1.00000

 Dipole moment (field-independent basis, Debye):
    X=             -4.5282    Y=            -11.3281    Z=              2.8097  Tot=             12.5190
 Quadrupole moment (field-independent basis, Debye-Ang):
   XX=           -134.9891   YY=           -201.8330   ZZ=           -159.4347
   XY=            -18.0837   XZ=              2.0600   YZ=             38.5807

  Exact polarizability: 400.976  18.592 390.496  -3.536 -48.278 219.810
 Approx polarizability: 409.846  17.809 440.726  -3.451 -58.074 259.877

                      1                      2                      3
                      A                      A                      A
 Frequencies --     29.8294                35.5918                43.3336
 Red. masses --      5.9225                 6.1788                 6.3793
 Frc consts  --      0.0031                 0.0046                 0.0071
 IR Inten    --      5.7480                 3.9904                 7.9831

                      4                      5                      6
                      A                      A                      A
 Frequencies --     49.0875                73.5202                94.1382
 Red. masses --      5.2259                 4.1629                 4.7933
 Frc consts  --      0.0074                 0.0133                 0.0250
 IR Inten    --      8.7365                 2.0066                 0.5475

                      7                      8                      9
                      A                      A                      A
 Frequencies --     96.0620               112.1290               125.6600
 Red. masses --      4.0373                 2.8322                 2.0400
 Frc consts  --      0.0220                 0.0210                 0.0190
 IR Inten    --      3.5139                 0.3301                 1.7672

                     10                     11                     12
                      A                      A                      A
 Frequencies --    134.8215               150.2648               151.6512
 Red. masses --      1.9073                 1.4144                 3.5608
 Frc consts  --      0.0204                 0.0188                 0.0482
 IR Inten    --      0.5356                 1.5932                11.6984

                     13                     14                     15
                      A                      A                      A
 Frequencies --    158.6520               164.3605               178.5331
 Red. masses --      1.3773                 3.7083                 5.2877
 Frc consts  --      0.0204                 0.0590                 0.0993
 IR Inten    --      0.3997                 6.6765                 5.3360

                     16                     17                     18
                      A                      A                      A
 Frequencies --    198.9580               207.5342               218.7099
 Red. masses --      4.2528                 4.1416                 6.0168
 Frc consts  --      0.0992                 0.1051                 0.1696
 IR Inten    --      8.8080                 1.8483                 8.0313

                     19                     20                     21
                      A                      A                      A
 Frequencies --    249.8226               256.0684               285.8169
 Red. masses --      7.0783                 8.7206                 6.4715
 Frc consts  --      0.2603                 0.3369                 0.3115
 IR Inten    --      1.5176                 1.6663                 1.7836

                     22                     23                     24
                      A                      A                      A
 Frequencies --    308.7810               319.3987               329.0423
 Red. masses --      6.6034                 4.4741                 5.6867
 Frc consts  --      0.3710                 0.2689                 0.3628
 IR Inten    --     12.6063                18.1650                19.7680

                     25                     26                     27
                      A                      A                      A
 Frequencies --    357.6557               370.9296               374.5767
 Red. masses --      6.8569                 7.1445                10.5629
 Frc consts  --      0.5168                 0.5792                 0.8732
 IR Inten    --     39.3525                 6.5099                57.6364

                     28                     29                     30
                      A                      A                      A
 Frequencies --    397.6453               437.1081               466.1665
 Red. masses --      5.4999                 7.1658                 4.7891
 Frc consts  --      0.5124                 0.8067                 0.6132
 IR Inten    --      3.3308                 4.1251                 3.1187

                     31                     32                     33
                      A                      A                      A
 Frequencies --    490.9502               527.5788               554.3377
 Red. masses --     11.8794                 8.0372                 7.7345
 Frc consts  --      1.6870                 1.3180                 1.4003
 IR Inten    --      0.8272                 2.7973                20.7477

                     34                     35                     36
                      A                      A                      A
 Frequencies --    613.2279               620.2610               664.5681
 Red. masses --      5.8518                 5.6799                 8.0382
 Frc consts  --      1.2965                 1.2875                 2.0917
 IR Inten    --     26.9897                 6.0607                 8.5303

                     37                     38                     39
                      A                      A                      A
 Frequencies --    691.7739               708.9908               720.7912
 Red. masses --      7.0221                 4.7558                 7.5447
 Frc consts  --      1.9799                 1.4085                 2.3095
 IR Inten    --      1.8962                 9.8693                10.4989

                     40                     41                     42
                      A                      A                      A
 Frequencies --    734.6540               763.1993               781.8105
 Red. masses --      9.2663                 7.1557                 7.0932
 Frc consts  --      2.9466                 2.4557                 2.5544
 IR Inten    --    105.4117               108.7815                13.9292

                     43                     44                     45
                      A                      A                      A
 Frequencies --    794.5406               796.1580               811.1755
 Red. masses --      6.2365                 7.8603                 8.1430
 Frc consts  --      2.3196                 2.9355                 3.1569
 IR Inten    --     17.2703                 3.0367                18.6318

                     46                     47                     48
                      A                      A                      A
 Frequencies --    854.4114               855.5201               888.5367
 Red. masses --      1.6501                 4.8896                 1.6189
 Frc consts  --      0.7097                 2.1085                 0.7530
 IR Inten    --     97.9636                45.2771                27.3924

                     49                     50                     51
                      A                      A                      A
 Frequencies --    891.2107               914.4737               971.6540
 Red. masses --      5.5743                 5.9575                 1.5429
 Frc consts  --      2.6086                 2.9353                 0.8583
 IR Inten    --     21.4715                34.7166                 2.4418

                     52                     53                     54
                      A                      A                      A
 Frequencies --    982.7069              1019.1193              1044.3258
 Red. masses --      5.0633                 8.0007                 7.2216
 Frc consts  --      2.8809                 4.8959                 4.6404
 IR Inten    --     19.9681                 7.5519               113.8178

                     55                     56                     57
                      A                      A                      A
 Frequencies --   1116.8565              1120.2955              1149.0234
 Red. masses --      4.6576                 5.2222                 3.0724
 Frc consts  --      3.4230                 3.8616                 2.3899
 IR Inten    --    203.0023               483.6646               560.1946

                     58                     59                     60
                      A                      A                      A
 Frequencies --   1162.9168              1165.4619              1166.9819
 Red. masses --      1.2692                 1.2830                 1.2804
 Frc consts  --      1.0113                 1.0268                 1.0274
 IR Inten    --      4.4358                 5.1510                 2.7693

                     61                     62                     63
                      A                      A                      A
 Frequencies --   1179.9163              1198.8851              1199.6103
 Red. masses --      2.1238                 1.8318                 1.6361
 Frc consts  --      1.7421                 1.5512                 1.3872
 IR Inten    --     39.2633               507.3564                31.8616

                     64                     65                     66
                      A                      A                      A
 Frequencies --   1210.0784              1218.4924              1242.1026
 Red. masses --      1.7105                 2.1305                 2.6869
 Frc consts  --      1.4757                 1.8637                 2.4424
 IR Inten    --    172.1624               421.6821               171.9089

                     67                     68                     69
                      A                      A                      A
 Frequencies --   1274.7245              1291.7324              1309.1059
 Red. masses --      4.0700                 2.7272                 4.5216
 Frc consts  --      3.8965                 2.6811                 4.5655
 IR Inten    --     69.5303               525.7612               151.3779

                     70                     71                     72
                      A                      A                      A
 Frequencies --   1331.1251              1384.9750              1409.8669
 Red. masses --      6.2032                 4.5910                 4.6614
 Frc consts  --      6.4759                 5.1885                 5.4591
 IR Inten    --     29.5991                31.3422               196.3747

                     73                     74                     75
                      A                      A                      A
 Frequencies --   1461.8857              1464.7787              1467.9063
 Red. masses --      1.5877                 1.2244                 1.1841
 Frc consts  --      1.9992                 1.5479                 1.5033
 IR Inten    --    146.8771                43.3496                23.4334

                     76                     77                     78
                      A                      A                      A
 Frequencies --   1470.9901              1474.6618              1475.5003
 Red. masses --      2.6956                 1.0477                 1.0504
 Frc consts  --      3.4366                 1.3424                 1.3474
 IR Inten    --    625.0987                15.6652                 8.9611

                     79                     80                     81
                      A                      A                      A
 Frequencies --   1480.7352              1484.6673              1485.7109
 Red. masses --      3.1529                 1.1254                 1.0719
 Frc consts  --      4.0731                 1.4615                 1.3940
 IR Inten    --     65.8582                81.0497                13.8849

                     82                     83                     84
                      A                      A                      A
 Frequencies --   1488.6761              1496.2051              1540.5092
 Red. masses --      1.1168                 1.0570                 5.1911
 Frc consts  --      1.4582                 1.3942                 7.2584
 IR Inten    --     17.6382                31.0925               567.0632

                     85                     86                     87
                      A                      A                      A
 Frequencies --   1572.6065              1597.2601              1628.2219
 Red. masses --      6.8516                 6.9341                 7.6644
 Frc consts  --      9.9835                10.4230                11.9717
 IR Inten    --     19.6445                33.2722                21.1773

                     88                     89                     90
                      A                      A                      A
 Frequencies --   1717.1575              1725.6701              1733.8239
 Red. masses --     11.7824                12.4278                11.8597
 Frc consts  --     20.4694                21.8051                21.0056
 IR Inten    --   1034.1082              1181.1101               231.6523

                     91                     92                     93
                      A                      A                      A
 Frequencies --   3049.4091              3054.9824              3055.7358
 Red. masses --      1.0298                 1.0294                 1.0294
 Frc consts  --      5.6421                 5.6604                 5.6631
 IR Inten    --     58.4484                47.0985                37.9813

                     94                     95                     96
                      A                      A                      A
 Frequencies --   3122.3354              3131.6587              3138.2735
 Red. masses --      1.1073                 1.1076                 1.1074
 Frc consts  --      6.3604                 6.4002                 6.4261
 IR Inten    --     32.1221                26.4800                19.4999

                     97                     98                     99
                      A                      A                      A
 Frequencies --   3156.3230              3156.5106              3164.1416
 Red. masses --      1.1063                 1.1057                 1.1062
 Frc consts  --      6.4935                 6.4907                 6.5254
 IR Inten    --     25.0726                20.0722                17.5914

                    100                    101                    102
                      A                      A                      A
 Frequencies --   3174.3530              3188.3923              3196.9243
 Red. masses --      1.0882                 1.0952                 1.0896
 Frc consts  --      6.4608                 6.5594                 6.5609
 IR Inten    --      5.9787                13.5144                 8.7337

 - Thermochemistry -
 -------------------
 Temperature   298.150 Kelvin.  Pressure   1.00000 Atm.
 Atom     1 has atomic number  6 and mass  12.00000

 Molecular mass:   332.05322 amu.
 Principal axes and moments of inertia in atomic units:
                           1         2         3
     Eigenvalues --  6363.597239257.80293**********
           X            0.80508  -0.59286   0.01927
           Y            0.58234   0.79614   0.16447
           Z           -0.11284  -0.12119   0.98619
 This molecule is an asymmetric top.
 Rotational symmetry number  1.
 Warning -- assumption of classical behavior for rotation
           may cause significant error
 Rotational temperatures (Kelvin)      0.01361     0.00936     0.00603
 Rotational constants (GHZ):           0.28360     0.19494     0.12558
 Zero-point vibrational energy     673258.2 (Joules/Mol)
                                  160.91257 (Kcal/Mol)
 Warning -- explicit consideration of  35 degrees of freedom as
           vibrations may cause significant error
 Vibrational temperatures:     42.92    51.21    62.35    70.63   105.78
          (Kelvin)            135.44   138.21   161.33   180.80   193.98
                              216.20   218.19   228.26   236.48   256.87
                              286.26   298.60   314.67   359.44   368.43
                              411.23   444.27   459.54   473.42   514.59
                              533.69   538.93   572.12   628.90   670.71
                              706.37   759.07   797.57   882.30   892.42
                              956.17   995.31  1020.08  1037.06  1057.00
                             1098.07  1124.85  1143.17  1145.49  1167.10
                             1229.31  1230.90  1278.41  1282.25  1315.72
                             1397.99  1413.90  1466.29  1502.55  1606.91
                             1611.86  1653.19  1673.18  1676.84  1679.03
                             1697.64  1724.93  1725.97  1741.03  1753.14
                             1787.11  1834.04  1858.51  1883.51  1915.19
                             1992.67  2028.48  2103.33  2107.49  2111.99
                             2116.43  2121.71  2122.92  2130.45  2136.11
                             2137.61  2141.87  2152.71  2216.45  2262.63
                             2298.10  2342.65  2470.61  2482.85  2494.59
                             4387.42  4395.44  4396.52  4492.34  4505.76
                             4515.28  4541.24  4541.51  4552.49  4567.19
                             4587.39  4599.66

 Zero-point correction=                           0.256431 (Hartree/Particle)
 Thermal correction to Energy=                    0.278949
 Thermal correction to Enthalpy=                  0.279893
 Thermal correction to Gibbs Free Energy=         0.202833
 Sum of electronic and zero-point Energies=          -1218.979540
 Sum of electronic and thermal Energies=             -1218.957021
 Sum of electronic and thermal Enthalpies=           -1218.956077
 Sum of electronic and thermal Free Energies=        -1219.033137

                     E (Thermal)             CV                S
                      KCal/Mol        Cal/Mol-Kelvin    Cal/Mol-Kelvin
 Total                  175.043             81.252            162.187
 Electronic               0.000              0.000              1.377
 Translational            0.889              2.981             43.295
 Rotational               0.889              2.981             35.092
 Vibrational            173.266             75.291             82.422
 Vibration     1          0.594              1.984              5.841
 Vibration     2          0.594              1.982              5.490
 Vibration     3          0.595              1.980              5.101
 Vibration     4          0.595              1.978              4.854
 Vibration     5          0.599              1.966              4.057
 Vibration     6          0.603              1.953              3.572
 Vibration     7          0.603              1.952              3.533
 Vibration     8          0.607              1.939              3.232
 Vibration     9          0.611              1.927              3.011
 Vibration    10          0.613              1.919              2.876
 Vibration    11          0.618              1.902              2.669
 Vibration    12          0.619              1.901              2.651
 Vibration    13          0.621              1.893              2.566
 Vibration    14          0.623              1.886              2.499
 Vibration    15          0.629              1.869              2.344
 Vibration    16          0.637              1.841              2.143
 Vibration    17          0.641              1.829              2.065
 Vibration    18          0.646              1.813              1.970
 Vibration    19          0.663              1.763              1.732
 Vibration    20          0.666              1.753              1.688
 Vibration    21          0.684              1.700              1.499
 Vibration    22          0.698              1.657              1.369
 Vibration    23          0.705              1.636              1.313
 Vibration    24          0.712              1.617              1.265
 Vibration    25          0.733              1.560              1.132
 Vibration    26          0.743              1.532              1.076
 Vibration    27          0.746              1.524              1.061
 Vibration    28          0.764              1.475              0.971
 Vibration    29          0.797              1.389              0.836
 Vibration    30          0.824              1.325              0.748
 Vibration    31          0.847              1.270              0.681
 Vibration    32          0.883              1.189              0.593
 Vibration    33          0.910              1.130              0.535
 Vibration    34          0.973              1.004              0.427
 Vibration    35          0.980              0.989              0.416

 Optimization completed.
    -- Stationary point found.
 Normal termination of Gaussian 16 at Sun Feb 11 06:56:38 2024.
