 Gaussian 16, Revision A.03,
 Gaussian 16:  ES64L-G16RevA.03 25-Dec-2016

 ----------------------------------------------------------------
 #P UB3LYP/6-311++G(d,p) SCRF=(PCM,Solvent=n,n-DiMethylFormamide)
 ----------------------------------------------------------------

 -------
 Reduced
 -------
 Symbolic Z-matrix:
 Charge = -2 Multiplicity = 1

                         Standard orientation:
 ---------------------------------------------------------------------
 Center     Atomic      Atomic             Coordinates (Angstroms)
 Number     Number       Type             X           Y           Z
 ---------------------------------------------------------------------
      1          6           0       -2.283771   -2.940702   -0.000391
      2          6           0       -2.161363   -1.428095   -0.000156
      3          6           0       -3.337345   -0.709085   -0.000373
      4          6           0       -3.337318    0.709243   -0.000258
      5          6           0       -2.161287    1.428201   -0.000031
      6          6           0       -2.283490    2.940825   -0.000174
      7          6           0       -0.891029    0.740313    0.000156
      8          6           0        0.343437    1.501248    0.000314
      9          8           0        0.396138    2.792791    0.000592
     10          6           0        1.560076    0.720614    0.000123
     11          6           0        2.811173    1.391278   -0.000072
     12          6           0        4.012461    0.712398   -0.000409
     13          6           0        4.012420   -0.712545   -0.000601
     14          6           0        2.811112   -1.391410   -0.000282
     15          6           0        1.560024   -0.720713    0.000095
     16          6           0        0.343339   -1.501272    0.000495
     17          8           0        0.395925   -2.792836    0.001009
     18          6           0       -0.891077   -0.740283    0.000225
     19          1           0       -1.791094   -3.388009    0.865053
     20          1           0       -1.788449   -3.387957   -0.864282
     21          1           0       -3.350037   -3.215278   -0.001880
     22          1           0       -4.287193   -1.242730   -0.000800
     23          1           0       -4.287124    1.242947   -0.000338
     24          1           0       -1.789454    3.387924   -0.864923
     25          1           0       -1.789295    3.388114    0.864372
     26          1           0       -3.349699    3.215585   -0.000143
     27          1           0        2.771588    2.476296    0.000036
     28          1           0        4.954338    1.259854   -0.000595
     29          1           0        4.954268   -1.260055   -0.000916
     30          1           0        2.771484   -2.476419   -0.000355
 ---------------------------------------------------------------------

 SCF Done:  E(UB3LYP) =  -767.820005491     A.U. after   17 cycles

 The electronic state is 1-A.
 Alpha  occ. eigenvalues --  -19.00838 -19.00837 -10.16886 -10.16885 -10.15149
 Alpha  occ. eigenvalues --  -10.15147 -10.14705 -10.14662 -10.14224 -10.14223
 Alpha  occ. eigenvalues --  -10.13691 -10.13661 -10.13597 -10.13597 -10.13502
 Alpha  occ. eigenvalues --  -10.13456 -10.13010 -10.12971  -0.92976  -0.92608
 Alpha  occ. eigenvalues --   -0.82195  -0.81760  -0.75470  -0.74650  -0.71825
 Alpha  occ. eigenvalues --   -0.69889  -0.68390  -0.64303  -0.61343  -0.59587
 Alpha  occ. eigenvalues --   -0.58392  -0.53999  -0.50623  -0.50137  -0.47271
 Alpha  occ. eigenvalues --   -0.43990  -0.42862  -0.42668  -0.42208  -0.39763
 Alpha  occ. eigenvalues --   -0.39532  -0.38523  -0.37981  -0.37428  -0.36427
 Alpha  occ. eigenvalues --   -0.36363  -0.36264  -0.34940  -0.34294  -0.33277
 Alpha  occ. eigenvalues --   -0.31954  -0.31289  -0.31053  -0.30793  -0.29491
 Alpha  occ. eigenvalues --   -0.29325  -0.22558  -0.21667  -0.21115  -0.21002
 Alpha  occ. eigenvalues --   -0.18850  -0.18331  -0.09855
 Alpha virt. eigenvalues --   -0.01869  -0.00009   0.00526   0.00751   0.01082
 Alpha virt. eigenvalues --    0.02145   0.02163   0.02423   0.03896   0.04295
 Alpha virt. eigenvalues --    0.04425   0.04675   0.04687   0.06233   0.06433

  Beta  occ. eigenvalues --  -19.00838 -19.00837 -10.16886 -10.16885 -10.15149
  Beta  occ. eigenvalues --  -10.15147 -10.14705 -10.14662 -10.14224 -10.14223
  Beta  occ. eigenvalues --  -10.13691 -10.13661 -10.13597 -10.13597 -10.13502
  Beta  occ. eigenvalues --  -10.13456 -10.13010 -10.12971  -0.92976  -0.92608
  Beta  occ. eigenvalues --   -0.82195  -0.81760  -0.75470  -0.74650  -0.71825
  Beta  occ. eigenvalues --   -0.69889  -0.68390  -0.64303  -0.61343  -0.59587
  Beta  occ. eigenvalues --   -0.58392  -0.53999  -0.50623  -0.50137  -0.47271
  Beta  occ. eigenvalues --   -0.43990  -0.42862  -0.42668  -0.42208  -0.39763
  Beta  occ. eigenvalues --   -0.39532  -0.38523  -0.37981  -0.37428  -0.36427
  Beta  occ. eigenvalues --   -0.36363  -0.36264  -0.34940  -0.34294  -0.33277
  Beta  occ. eigenvalues --   -0.31954  -0.31289  -0.31053  -0.30793  -0.29491
  Beta  occ. eigenvalues --   -0.29325  -0.22558  -0.21667  -0.21115  -0.21002
  Beta  occ. eigenvalues --   -0.18850  -0.18331  -0.09855
  Beta virt. eigenvalues --   -0.01869  -0.00009   0.00526   0.00751   0.01082
  Beta virt. eigenvalues --    0.02145   0.02163   0.02423   0.03896   0.04295
  Beta virt. eigenvalues --    0.04425   0.04675   0.04687   0.06233   0.06433

 Mulliken charges and spin densities:
               1          2
     1  C   -0.334738   0.000000
     2  C    0.852804   0.000000
     3  C   -0.462478   0.000000
     4  C   -0.462428  -0.000000
     5  C    0.852797   0.000000
     6  C   -0.334714   0.000000
     7  C    0.139893  -0.000000
     8  C   -0.964158  -0.000000
     9  O   -0.613485   0.000000
    10  C    0.128939   0.000000
    11  C   -0.010952  -0.000000
    12  C   -0.558770   0.000000
    13  C   -0.558744   0.000000
    14  C   -0.010990  -0.000000
    15  C    0.128972   0.000000
    16  C   -0.964119  -0.000000
    17  O   -0.613527   0.000000
    18  C    0.139951  -0.000000
    19  H    0.148357   0.000000
    20  H    0.148401   0.000000
    21  H    0.118891  -0.000000
    22  H    0.104534  -0.000000
    23  H    0.104540  -0.000000
    24  H    0.148356  -0.000000
    25  H    0.148398  -0.000000
    26  H    0.118893   0.000000
    27  H    0.148683  -0.000000
    28  H    0.154009   0.000000
    29  H    0.154010   0.000000
    30  H    0.148675   0.000000
 Sum of Mulliken charges =  -2.00000  -0.00000

 Dipole moment (field-independent basis, Debye):
    X=             -3.0378    Y=              0.0007    Z=             -0.0051  Tot=              3.0378
 Quadrupole moment (field-independent basis, Debye-Ang):
   XX=           -139.0579   YY=           -168.2069   ZZ=           -119.1603
   XY=             -0.0006   XZ=             -0.0027   YZ=              0.0051

 Normal termination of Gaussian 16 at Sun Jan 14 01:27:16 2024.
