 Q-Chem 5.4, Q-Chem, Inc., Pleasanton, CA (2021)
 Q-Chem 5.4.0 for Intel X86 EM64T Linux

User input:
--------------------------------------------------------------
$molecule
0 1
C                 -1.8432880000      3.1500440000      0.2574010000
C                 -2.9766550000      2.4344540000     -0.1160300000
C                 -2.8633900000      1.0947690000     -0.4922290000
C                 -0.5953930000      2.5221150000      0.2529290000
C                 -0.4782910000      1.1743230000     -0.1246210000
C                 -1.6195810000      0.4660240000     -0.4963800000
C                  0.6148840000      3.2663980000      0.6453280000
C                  1.9231650000      2.5501130000      0.6183980000
C                  2.0595420000      1.2475420000      0.2683890000
C                  0.8577540000      0.4857760000     -0.1310090000
O                  0.6155730000      4.4418750000      0.9931210000
O                  0.9396670000     -0.6894670000     -0.4598220000
H                 -1.9058590000      4.1900330000      0.5535170000
H                 -3.9466890000      2.9179030000     -0.1144550000
H                 -3.7476250000      0.5389780000     -0.7829820000
H                 -1.5141130000     -0.5724400000     -0.7847630000
C                  3.3939310000      0.5539530000      0.2404850000
O                  2.9678070000      3.3115090000      0.9817140000
C                  4.0595390000      0.6043370000     -1.1485700000
H                  3.2451370000     -0.4893280000      0.5270720000
H                  4.0516660000      1.0192940000      0.9778050000
H                  2.6002810000      4.1900210000      1.1963020000
H                  3.4324690000      0.1179830000     -1.8989010000
H                  5.0217820000      0.0861080000     -1.1255750000
H                  4.2385250000      1.6359320000     -1.4616840000
$end

$rem
BASIS  =  6-311++G(d,p)
GUI  =  2
JOB_TYPE  =  SP
METHOD  =  B3LYP
SCF_CONVERGENCE  = 8
SOLVENT_METHOD = sm12
$end

$smx
solvent dimethylformamide
charges CM5
$end

--------------------------------------------------------------

             Standard Nuclear Orientation (Angstroms)
    I     Atom           X                Y                Z
 ----------------------------------------------------------------
    1      C      -1.8432880000     3.1500440000     0.2574010000
    2      C      -2.9766550000     2.4344540000    -0.1160300000
    3      C      -2.8633900000     1.0947690000    -0.4922290000
    4      C      -0.5953930000     2.5221150000     0.2529290000
    5      C      -0.4782910000     1.1743230000    -0.1246210000
    6      C      -1.6195810000     0.4660240000    -0.4963800000
    7      C       0.6148840000     3.2663980000     0.6453280000
    8      C       1.9231650000     2.5501130000     0.6183980000
    9      C       2.0595420000     1.2475420000     0.2683890000
   10      C       0.8577540000     0.4857760000    -0.1310090000
   11      O       0.6155730000     4.4418750000     0.9931210000
   12      O       0.9396670000    -0.6894670000    -0.4598220000
   13      H      -1.9058590000     4.1900330000     0.5535170000
   14      H      -3.9466890000     2.9179030000    -0.1144550000
   15      H      -3.7476250000     0.5389780000    -0.7829820000
   16      H      -1.5141130000    -0.5724400000    -0.7847630000
   17      C       3.3939310000     0.5539530000     0.2404850000
   18      O       2.9678070000     3.3115090000     0.9817140000
   19      C       4.0595390000     0.6043370000    -1.1485700000
   20      H       3.2451370000    -0.4893280000     0.5270720000
   21      H       4.0516660000     1.0192940000     0.9778050000
   22      H       2.6002810000     4.1900210000     1.1963020000
   23      H       3.4324690000     0.1179830000    -1.8989010000
   24      H       5.0217820000     0.0861080000    -1.1255750000
   25      H       4.2385250000     1.6359320000    -1.4616840000
 ----------------------------------------------------------------

   15    -689.1724794996      9.18e-09  Convergence criterion met
 Total energy in the final basis set =     -689.1911845009

                    Orbital Energies (a.u.)
 --------------------------------------------------------------

 Alpha MOs
 -- Occupied --
-19.1800 -19.1495 -19.1269 -10.2933 -10.2792 -10.2685 -10.2113 -10.2100
-10.2050 -10.2012 -10.1993 -10.1975 -10.1974 -10.1799 -10.1643  -1.1101
 -1.0677  -1.0603  -0.8927  -0.8445  -0.7939  -0.7799  -0.7505  -0.6975
 -0.6623  -0.6478  -0.6101  -0.6035  -0.5743  -0.5429  -0.5185  -0.4966
 -0.4803  -0.4737  -0.4652  -0.4547  -0.4522  -0.4410  -0.4275  -0.4239
 -0.4127  -0.4071  -0.3865  -0.3801  -0.3760  -0.3713  -0.3609  -0.3503
 -0.3031  -0.2899  -0.2797  -0.2776  -0.2594

          Ground-State Mulliken Net Atomic Charges

     Atom                 Charge (a.u.)
  ----------------------------------------
      1 C                     0.354505
      2 C                     0.446010
      3 C                     0.434658
      4 C                     0.759180
      5 C                    -0.540772
      6 C                     0.074857
      7 C                    -1.156508
      8 C                    -0.625019
      9 C                     1.046055
     10 C                    -1.560079
     11 O                    -0.285746
     12 O                    -0.288912
     13 H                     0.217963
     14 H                     0.331384
     15 H                     0.321102
     16 H                     0.185067
     17 C                    -0.075791
     18 O                    -0.195670
     19 C                    -0.561318
     20 H                     0.164744
     21 H                     0.200772
     22 H                     0.296616
     23 H                     0.140039
     24 H                     0.169017
     25 H                     0.147846
  ----------------------------------------
  Sum of atomic charges =     0.000000

                    Cartesian Multipole Moments
 -----------------------------------------------------------------
    Charge (ESU x 10^10)
                 0.0000
    Dipole Moment (Debye)
         X      -2.9293      Y       1.0225      Z      -0.2035
       Tot       3.1093
    Quadrupole Moments (Debye-Ang)
        XX     -74.7946     XY      -4.1085     YY     -92.1462
        XZ       1.8111     YZ      -1.9700     ZZ     -89.1159

 Total job time:  414.29s(wall), 3243.59s(cpu)
        *  Thank you very much for using Q-Chem.  Have a nice day.  *
