 Gaussian 16, Revision A.03,
 Gaussian 16:  ES64L-G16RevA.03 25-Dec-2016

 --------------------------------------
 #P UB3LYP/6-311++G(d,p) nosym opt freq
 --------------------------------------

 -------
 Reduced
 -------
 Symbolic Z-matrix:
 Charge = -3 Multiplicity = 1

 SCF Done:  E(UB3LYP) =  -1158.42912673     A.U. after   46 cycles
 SCF Done:  E(UB3LYP) =  -1158.42912672     A.U. after   25 cycles
 Optimization completed.
    -- Stationary point found.
 Normal termination of Gaussian 16 at Tue Jan  9 22:06:46 2024.

 ----------------------------------------------------------------------
 #P Geom=AllCheck Guess=TCheck SCRF=Check GenChk UB3LYP/6-311++G(d,p) F
 req
 ----------------------------------------------------------------------

 Structure from the checkpoint file:  "326-an.chk"
 -------
 Reduced
 -------
 Charge = -3 Multiplicity = 1

                          Input orientation:
 ---------------------------------------------------------------------
 Center     Atomic      Atomic             Coordinates (Angstroms)
 Number     Number       Type             X           Y           Z
 ---------------------------------------------------------------------
      1          6           0       -1.838098    2.791790   -0.804488
      2          6           0       -2.932689    1.995740   -0.521491
      3          6           0       -2.717424    0.675904   -0.057915
      4          6           0       -0.503028    2.340622   -0.643834
      5          6           0       -0.287918    0.980441   -0.196810
      6          6           0       -1.428410    0.191713    0.097437
      7          6           0        0.589723    3.260868   -0.972109
      8          6           0        1.975146    2.741328   -0.815397
      9          6           0        2.111264    1.377923   -0.367360
     10          6           0        1.064781    0.523842   -0.072041
     11          8           0        0.363507    4.445074   -1.366810
     12          8           0        2.997647    3.462343   -1.060285
     13          1           0       -1.962910    3.808574   -1.162558
     14          1           0       -3.948418    2.371675   -0.654016
     15          1           0       -3.568990    0.036314    0.167877
     16          1           0       -1.272663   -0.821054    0.446931
     17          1           0        3.125222    1.008531   -0.259545
     18         16           0        1.473414   -1.176755    0.484917
     19          8           0        2.968426   -1.269867    0.486382
     20          8           0        0.847024   -2.120925   -0.498133
     21          8           0        0.893745   -1.335481    1.859520
 ---------------------------------------------------------------------

 SCF Done:  E(UB3LYP) =  -1158.42912672     A.U. after    4 cycles

 Alpha  occ. eigenvalues --  -88.68891 -18.73457 -18.73236 -18.73232 -18.71383
 Alpha  occ. eigenvalues --  -18.70913  -9.86280  -9.85921  -9.83901  -9.83792
 Alpha  occ. eigenvalues --   -9.83755  -9.83745  -9.83356  -9.83263  -9.82418
 Alpha  occ. eigenvalues --   -9.81102  -7.74736  -5.71025  -5.71001  -5.70894
 Alpha  occ. eigenvalues --   -0.74508  -0.63878  -0.61048  -0.60982  -0.60723
 Alpha  occ. eigenvalues --   -0.51641  -0.45960  -0.41097  -0.38268  -0.34165
 Alpha  occ. eigenvalues --   -0.27300  -0.26733  -0.24277  -0.20381  -0.16135
 Alpha  occ. eigenvalues --   -0.15450  -0.13408  -0.10515  -0.09703  -0.09396
 Alpha  occ. eigenvalues --   -0.08816  -0.08132  -0.06551  -0.05538  -0.04797
 Alpha  occ. eigenvalues --   -0.03253  -0.01481  -0.00761  -0.00290   0.01865
 Alpha  occ. eigenvalues --    0.02503   0.02716   0.04149   0.06073   0.06712
 Alpha  occ. eigenvalues --    0.07337   0.08835   0.10356   0.10777   0.12462
 Alpha  occ. eigenvalues --    0.13599   0.21069
 Alpha virt. eigenvalues --    0.22631   0.24696   0.27913   0.28733   0.30433
 Alpha virt. eigenvalues --    0.30545   0.33231   0.33379   0.33998   0.34251
 Alpha virt. eigenvalues --    0.35017   0.35461   0.36457   0.37119   0.37224

  Beta  occ. eigenvalues --  -88.68891 -18.73457 -18.73236 -18.73232 -18.71383
  Beta  occ. eigenvalues --  -18.70913  -9.86280  -9.85921  -9.83901  -9.83792
  Beta  occ. eigenvalues --   -9.83755  -9.83745  -9.83356  -9.83263  -9.82418
  Beta  occ. eigenvalues --   -9.81102  -7.74736  -5.71025  -5.71001  -5.70894
  Beta  occ. eigenvalues --   -0.74508  -0.63878  -0.61048  -0.60982  -0.60723
  Beta  occ. eigenvalues --   -0.51641  -0.45960  -0.41097  -0.38268  -0.34165
  Beta  occ. eigenvalues --   -0.27300  -0.26733  -0.24277  -0.20381  -0.16135
  Beta  occ. eigenvalues --   -0.15450  -0.13408  -0.10515  -0.09703  -0.09396
  Beta  occ. eigenvalues --   -0.08816  -0.08132  -0.06551  -0.05538  -0.04797
  Beta  occ. eigenvalues --   -0.03253  -0.01481  -0.00761  -0.00290   0.01865
  Beta  occ. eigenvalues --    0.02503   0.02716   0.04149   0.06073   0.06712
  Beta  occ. eigenvalues --    0.07337   0.08835   0.10356   0.10777   0.12462
  Beta  occ. eigenvalues --    0.13599   0.21069
  Beta virt. eigenvalues --    0.22631   0.24696   0.27913   0.28733   0.30433
  Beta virt. eigenvalues --    0.30545   0.33231   0.33379   0.33998   0.34251
  Beta virt. eigenvalues --    0.35017   0.35461   0.36457   0.37119   0.37224

 Mulliken charges and spin densities:
               1          2
     1  C   -0.420614  -0.000000
     2  C    1.807786  -0.000000
     3  C    0.902411  -0.000000
     4  C    1.000643   0.000000
     5  C    0.454076   0.000000
     6  C   -1.175539  -0.000000
     7  C   -0.422657  -0.000000
     8  C   -0.373986  -0.000000
     9  C    0.232142  -0.000000
    10  C   -0.696177  -0.000000
    11  O   -0.460521  -0.000000
    12  O   -0.496068  -0.000000
    13  H    0.283818  -0.000000
    14  H   -2.715880   0.000000
    15  H   -0.799124   0.000000
    16  H    0.275591  -0.000000
    17  H    0.194612  -0.000000
    18  S    0.495613  -0.000000
    19  O   -0.332578   0.000000
    20  O   -0.367678  -0.000000
    21  O   -0.385871   0.000000
 Sum of Mulliken charges =  -3.00000   0.00000

 Dipole moment (field-independent basis, Debye):
    X=              1.2678    Y=            -17.8767    Z=              4.5194  Tot=             18.4826
 Quadrupole moment (field-independent basis, Debye-Ang):
   XX=           -262.6265   YY=           -235.7499   ZZ=           -141.6573
   XY=             16.4259   XZ=             -4.9694   YZ=             34.8834

  Exact polarizability:1338.834  59.172 894.666 -34.523-310.960 288.090
 Approx polarizability:8819.568 768.297 845.194-281.373-254.149 325.436

                      1                      2                      3
                      A                      A                      A
 Frequencies --     37.3677                64.1845               111.3882
 Red. masses --     13.2649                10.3998                 6.6935
 Frc consts  --      0.0109                 0.0252                 0.0489
 IR Inten    --      0.0499                 0.2782                27.8305

                      4                      5                      6
                      A                      A                      A
 Frequencies --    141.7146               144.6021               231.7810
 Red. masses --      5.3168                 9.0416                12.8056
 Frc consts  --      0.0629                 0.1114                 0.4053
 IR Inten    --      1.5652                 0.7432                13.5599

                      7                      8                      9
                      A                      A                      A
 Frequencies --    234.4600               268.9482               279.6897
 Red. masses --      5.7021                 8.3739                 9.6103
 Frc consts  --      0.1847                 0.3569                 0.4429
 IR Inten    --     36.9241                 3.3332                12.3567

                     10                     11                     12
                      A                      A                      A
 Frequencies --    321.6327               362.1743               402.5250
 Red. masses --      9.0146                14.5007                 7.0799
 Frc consts  --      0.5494                 1.1207                 0.6759
 IR Inten    --     10.5007                35.3296                 4.1916

                     13                     14                     15
                      A                      A                      A
 Frequencies --    430.6872               439.5229               476.1253
 Red. masses --      9.6873                 3.6984                 8.0531
 Frc consts  --      1.0587                 0.4209                 1.0756
 IR Inten    --    109.7952                16.8667               125.6341

                     16                     17                     18
                      A                      A                      A
 Frequencies --    496.5851               511.5938               535.1020
 Red. masses --     15.6306                10.4055                 4.1386
 Frc consts  --      2.2710                 1.6046                 0.6982
 IR Inten    --     17.8824                41.8847                15.6613

                     19                     20                     21
                      A                      A                      A
 Frequencies --    584.5185               615.3117               632.6620
 Red. masses --     11.2597                 4.7908                 9.8627
 Frc consts  --      2.2666                 1.0687                 2.3259
 IR Inten    --    234.5207                 3.4318               172.8716

                     22                     23                     24
                      A                      A                      A
 Frequencies --    661.9312               711.3898               712.8564
 Red. masses --      6.6549                 6.2755                 6.0104
 Frc consts  --      1.7180                 1.8712                 1.7995
 IR Inten    --     48.9229                 1.4572                 6.9238

                     25                     26                     27
                      A                      A                      A
 Frequencies --    771.4978               791.3002               804.6784
 Red. masses --      6.4417                 5.0234                 1.4338
 Frc consts  --      2.2590                 1.8532                 0.5470
 IR Inten    --    155.2217                 8.8052                 8.7186

                     28                     29                     30
                      A                      A                      A
 Frequencies --    886.6850               892.9215               904.7928
 Red. masses --      1.3936                 1.4097                 6.3188
 Frc consts  --      0.6456                 0.6622                 3.0478
 IR Inten    --     27.1203                10.3718                 7.6727

                     31                     32                     33
                      A                      A                      A
 Frequencies --    960.8291               961.7872               983.3315
 Red. masses --      9.1345                 1.3094                 8.1699
 Frc consts  --      4.9685                 0.7136                 4.6544
 IR Inten    --   1057.1101                68.3500               118.4179

                     34                     35                     36
                      A                      A                      A
 Frequencies --   1036.1198              1103.0325              1106.2251
 Red. masses --      2.1432                17.7992                 6.6484
 Frc consts  --      1.3556                12.7593                 4.7935
 IR Inten    --     28.8080               265.9820               183.1167

                     37                     38                     39
                      A                      A                      A
 Frequencies --   1117.0753              1151.0557              1180.9231
 Red. masses --      2.2209                 1.4359                 1.5933
 Frc consts  --      1.6328                 1.1209                 1.3092
 IR Inten    --    141.3157               206.0293               113.0293

                     40                     41                     42
                      A                      A                      A
 Frequencies --   1219.8900              1225.1915              1237.9157
 Red. masses --      2.9611                 1.4612                 2.7340
 Frc consts  --      2.5962                 1.2923                 2.4684
 IR Inten    --    476.6106              1678.8771               360.4785

                     43                     44                     45
                      A                      A                      A
 Frequencies --   1279.3426              1331.1487              1376.7539
 Red. masses --      1.9631                 5.5455                 3.2175
 Frc consts  --      1.8931                 5.7896                 3.5932
 IR Inten    --    301.5721               160.0474               372.7711

                     46                     47                     48
                      A                      A                      A
 Frequencies --   1421.1877              1449.6723              1474.0951
 Red. masses --      2.9941                 7.2051                 3.5009
 Frc consts  --      3.5630                 8.9213                 4.4821
 IR Inten    --     41.8468              2194.2547              1790.7109

                     49                     50                     51
                      A                      A                      A
 Frequencies --   1499.3888              1514.9801              1548.4307
 Red. masses --      4.0441                 4.9285                 5.5541
 Frc consts  --      5.3567                 6.6646                 7.8460
 IR Inten    --     52.7121              3401.8644                85.3282

                     52                     53                     54
                      A                      A                      A
 Frequencies --   1601.3116              3091.5628              3117.2983
 Red. masses --      5.1397                 1.0857                 1.0917
 Frc consts  --      7.7649                 6.1136                 6.2507
 IR Inten    --    117.2787               547.3822                46.6094

                     55                     56                     57
                      A                      A                      A
 Frequencies --   3157.8757              3170.3963              3192.1140
 Red. masses --      1.0895                 1.0873                 1.0911
 Frc consts  --      6.4015                 6.4393                 6.5505
 IR Inten    --     17.3161                46.4861                21.3431

 - Thermochemistry -
 -------------------
 Temperature   298.150 Kelvin.  Pressure   1.00000 Atm.
 Atom     1 has atomic number  6 and mass  12.00000

 Molecular mass:   236.98577 amu.
 Principal axes and moments of inertia in atomic units:
                           1         2         3
     Eigenvalues --  2617.536914167.210506431.71625
           X           -0.36612   0.93049   0.01218
           Y            0.88459   0.34394   0.31496
           Z           -0.28888  -0.12608   0.94903
 This molecule is an asymmetric top.
 Rotational symmetry number  1.
 Warning -- assumption of classical behavior for rotation
           may cause significant error
 Rotational temperatures (Kelvin)      0.03309     0.02078     0.01347
 Rotational constants (GHZ):           0.68948     0.43308     0.28060
 Zero-point vibrational energy     346735.0 (Joules/Mol)
                                   82.87165 (Kcal/Mol)
 Warning -- explicit consideration of  20 degrees of freedom as
           vibrations may cause significant error
 Vibrational temperatures:     53.76    92.35   160.26   203.90   208.05
          (Kelvin)            333.48   337.34   386.96   402.41   462.76
                              521.09   579.14   619.66   632.38   685.04
                              714.48   736.07   769.89   840.99   885.30
                              910.26   952.37  1023.53  1025.64  1110.01
                             1138.50  1157.75  1275.74  1284.71  1301.80
                             1382.42  1383.80  1414.79  1490.75  1587.02
                             1591.61  1607.22  1656.11  1699.08  1755.15
                             1762.78  1781.08  1840.69  1915.23  1980.84
                             2044.77  2085.76  2120.89  2157.29  2179.72
                             2227.85  2303.93  4448.07  4485.10  4543.48
                             4561.49  4592.74

 Zero-point correction=                           0.132064 (Hartree/Particle)
 Thermal correction to Energy=                    0.144598
 Thermal correction to Enthalpy=                  0.145542
 Thermal correction to Gibbs Free Energy=         0.092259
 Sum of electronic and zero-point Energies=          -1158.297062
 Sum of electronic and thermal Energies=             -1158.284529
 Sum of electronic and thermal Enthalpies=           -1158.283584
 Sum of electronic and thermal Free Energies=        -1158.336868

                     E (Thermal)             CV                S
                      KCal/Mol        Cal/Mol-Kelvin    Cal/Mol-Kelvin
 Total                   90.737             48.515            112.144
 Electronic               0.000              0.000              0.000
 Translational            0.889              2.981             42.290
 Rotational               0.889              2.981             32.617
 Vibrational             88.959             42.553             37.237
 Vibration     1          0.594              1.982              5.394
 Vibration     2          0.597              1.971              4.324
 Vibration     3          0.607              1.940              3.245
 Vibration     4          0.615              1.912              2.781
 Vibration     5          0.616              1.908              2.742
 Vibration     6          0.653              1.792              1.865
 Vibration     7          0.654              1.788              1.845
 Vibration     8          0.673              1.730              1.603
 Vibration     9          0.680              1.711              1.536
 Vibration    10          0.707              1.632              1.302
 Vibration    11          0.736              1.550              1.113
 Vibration    12          0.768              1.465              0.953
 Vibration    13          0.792              1.403              0.856
 Vibration    14          0.800              1.384              0.828
 Vibration    15          0.833              1.303              0.721
 Vibration    16          0.852              1.258              0.667
 Vibration    17          0.867              1.224              0.630
 Vibration    18          0.890              1.172              0.576
 Vibration    19          0.941              1.065              0.477
 Vibration    20          0.975              0.999              0.424

 Optimization completed.
    -- Stationary point found.
 Normal termination of Gaussian 16 at Tue Jan  9 22:47:06 2024.
