 Q-Chem 5.4, Q-Chem, Inc., Pleasanton, CA (2021)
 Q-Chem 5.4.0 for Intel X86 EM64T Linux

User input:
--------------------------------------------------------------
$molecule
-3 1
C                 -1.8380980000      2.7917900000     -0.8044880000
C                 -2.9326890000      1.9957400000     -0.5214910000
C                 -2.7174240000      0.6759040000     -0.0579150000
C                 -0.5030280000      2.3406220000     -0.6438340000
C                 -0.2879180000      0.9804410000     -0.1968100000
C                 -1.4284100000      0.1917130000      0.0974370000
C                  0.5897230000      3.2608680000     -0.9721090000
C                  1.9751460000      2.7413280000     -0.8153970000
C                  2.1112640000      1.3779230000     -0.3673600000
C                  1.0647810000      0.5238420000     -0.0720410000
O                  0.3635070000      4.4450740000     -1.3668100000
O                  2.9976470000      3.4623430000     -1.0602850000
H                 -1.9629100000      3.8085740000     -1.1625580000
H                 -3.9484180000      2.3716750000     -0.6540160000
H                 -3.5689900000      0.0363140000      0.1678770000
H                 -1.2726630000     -0.8210540000      0.4469310000
H                  3.1252220000      1.0085310000     -0.2595450000
S                  1.4734140000     -1.1767550000      0.4849170000
O                  2.9684260000     -1.2698670000      0.4863820000
O                  0.8470240000     -2.1209250000     -0.4981330000
O                  0.8937450000     -1.3354810000      1.8595200000
$end
$rem
MAX_SCF_CYCLES=200
BASIS  =  6-311++G(d,p)
GUI  =  2
JOB_TYPE  =  SP
METHOD  =  B3LYP
SOLVENT_METHOD = COSMO
$end
$solvent
dielectric 37.219
opticaldielectric 1.43
$end

--------------------------------------------------------------

             Standard Nuclear Orientation (Angstroms)
    I     Atom           X                Y                Z
 ----------------------------------------------------------------
    1      C       2.7088252806     1.3258167833    -0.0172894260
    2      C       2.3781216072     2.6683993244    -0.0128664906
    3      C       1.0117429249     3.0365220552     0.0136617296
    4      C       1.7317827782     0.2979716096     0.0091004259
    5      C       0.3350728448     0.6792758003     0.0072037261
    6      C       0.0260787579     2.0626173462     0.0240553931
    7      C       2.1840959869    -1.0963261808     0.0008325942
    8      C       1.1283744264    -2.1448138634     0.0025407321
    9      C      -0.2395327600    -1.6898853630    -0.0003655161
   10      C      -0.6436295439    -0.3675776878    -0.0019583472
   11      O       3.4173897244    -1.3934399124    -0.0032166040
   12      O       1.4121109333    -3.3877066683     0.0097606905
   13      H       3.7451664743     1.0045616187    -0.0381199882
   14      H       3.1528100172     3.4365601811    -0.0324155826
   15      H       0.7352264989     4.0894964186     0.0160500004
   16      H      -1.0168258420     2.3528668277     0.0383876781
   17      H      -1.0008042922    -2.4623150030    -0.0022242794
   18      S      -2.4457468830    -0.0188944429    -0.0044861043
   19      O      -3.1307813214    -1.3509465870    -0.0143742050
   20      O      -2.7351036905     0.7772067232    -1.2425104558
   21      O      -2.7397677140     0.7610292071     1.2429169385
 ----------------------------------------------------------------

   31   -1158.4290902676      4.60e-06  Convergence criterion met
 Total energy in the final basis set =    -1158.4290902676
    6   -1158.9962298342      6.29e-06  Convergence criterion met
 Total energy in the final basis set =    -1158.9962298342

                    Orbital Energies (a.u.)
 --------------------------------------------------------------

 Alpha MOs
 -- Occupied --
-89.0305 -19.0792 -19.0767 -19.0766 -19.0305 -19.0242 -10.1768 -10.1724
-10.1561 -10.1551 -10.1488 -10.1479 -10.1474 -10.1447 -10.1408 -10.1316
 -8.0892  -6.0523  -6.0521  -6.0504  -1.0903  -0.9609  -0.9564  -0.9536
 -0.9323  -0.8332  -0.7774  -0.7268  -0.7005  -0.6612  -0.5961  -0.5875
 -0.5605  -0.5286  -0.4849  -0.4741  -0.4590  -0.4408  -0.4380  -0.4213
 -0.4115  -0.3999  -0.3852  -0.3783  -0.3696  -0.3546  -0.3365  -0.3269
 -0.3242  -0.3234  -0.3154  -0.3096  -0.2885  -0.2816  -0.2733  -0.2627
 -0.2455  -0.2305  -0.2190  -0.1987  -0.1905  -0.1205

          Ground-State Mulliken Net Atomic Charges

     Atom                 Charge (a.u.)
  ----------------------------------------
      1 C                     0.071449
      2 C                    -0.530117
      3 C                    -0.874994
      4 C                     0.502959
      5 C                     0.901970
      6 C                    -0.570965
      7 C                    -0.597266
      8 C                     0.047285
      9 C                     0.133604
     10 C                    -0.817944
     11 O                    -0.688183
     12 O                    -0.748444
     13 H                     0.155173
     14 H                     0.179042
     15 H                     0.182268
     16 H                     0.143765
     17 H                     0.208717
     18 S                     0.638767
     19 O                    -0.417784
     20 O                    -0.459757
     21 O                    -0.459546
  ----------------------------------------
  Sum of atomic charges =    -3.000000

                    Cartesian Multipole Moments
 -----------------------------------------------------------------
    Charge (ESU x 10^10)
               -14.4096
    Dipole Moment (Debye)
         X      -0.4119      Y      14.5085      Z      -0.0287
       Tot      14.5144
    Quadrupole Moments (Debye-Ang)
        XX    -212.5642     XY      32.2702     YY    -170.4322
        XZ      -0.2325     YZ       0.0634     ZZ    -120.9318

 Total job time:  94.34s(wall), 737.33s(cpu)
        *  Thank you very much for using Q-Chem.  Have a nice day.  *
