 Q-Chem 5.4, Q-Chem, Inc., Pleasanton, CA (2021)
 Q-Chem 5.4.0 for Intel X86 EM64T Linux

User input:
--------------------------------------------------------------
$molecule
-2 2
O                  1.5113960000     -2.8846050000     -0.5579250000
C                  1.4723840000     -1.5444020000     -0.2744440000
C                  2.7126640000     -0.9154410000     -0.1188330000
O                  3.8080610000     -1.7229460000     -0.2690180000
C                  2.7905880000      0.4637650000      0.1489500000
C                  1.6204950000      1.1908370000      0.2624550000
C                  0.3597240000      0.5826680000      0.1224960000
C                 -0.8256250000      1.4419930000      0.2614820000
O                 -0.7353920000      2.6737160000      0.4990220000
C                 -2.1214060000      0.7908180000      0.1063420000
C                 -3.3042630000      1.5565120000      0.2211450000
C                 -4.5517500000      0.9817580000      0.0820660000
C                 -4.6580350000     -0.4063650000     -0.1820240000
C                 -3.5151340000     -1.1724640000     -0.2981190000
C                 -2.2262810000     -0.6068290000     -0.1606490000
C                 -1.0538840000     -1.4776500000     -0.2954580000
O                 -1.1994780000     -2.7048950000     -0.5217260000
C                  0.2574740000     -0.8259450000     -0.1496950000
S                  4.4131860000      1.2544020000      0.4158660000
O                  5.3641330000      0.3009930000     -0.2879370000
O                  4.3651190000      2.5855080000     -0.2245920000
O                  4.6425650000      1.2818930000      1.8800470000
H                  2.4568930000     -3.0909500000     -0.6153890000
H                  4.6021120000     -1.1094000000     -0.3074350000
H                  1.6517650000      2.2548660000      0.4568520000
H                 -3.1867530000      2.6154850000      0.4241770000
H                 -5.4485880000      1.5894950000      0.1743360000
H                 -5.6373650000     -0.8658490000     -0.2926290000
H                 -3.5646040000     -2.2369680000     -0.4993680000
$end
$rem
MAX_SCF_CYCLES=200
BASIS  =  6-311++G(d,p)
GUI  =  2
JOB_TYPE  =  SP
METHOD  =  B3LYP
SOLVENT_METHOD = COSMO
$end
$solvent
dielectric 37.219
opticaldielectric 1.43
$end

--------------------------------------------------------------

             Standard Nuclear Orientation (Angstroms)
    I     Atom           X                Y                Z
 ----------------------------------------------------------------
    1      O      -0.4397206682    -3.1016357621     0.0266296382
    2      C      -0.5358393092    -1.7346621814     0.0135173796
    3      C      -1.8340231991    -1.2123716604     0.0192095546
    4      O      -2.8433691326    -2.1372818909     0.0358318010
    5      C      -2.0492992287     0.1781218590     0.0323654999
    6      C      -0.9566472206     1.0247294776     0.0337204945
    7      C       0.3593122706     0.5277914737     0.0162617854
    8      C       1.4539402845     1.5099286861     0.0184579239
    9      O       1.2412237990     2.7493913880     0.0323396348
   10      C       2.8093360785     0.9715026322     0.0064027899
   11      C       3.9111121007     1.8573088283     0.0137982545
   12      C       5.2107760309     1.3918477014     0.0024601813
   13      C       5.4549076926    -0.0038429703    -0.0168471510
   14      C       4.3929758493    -0.8863711948    -0.0241352082
   15      C       3.0530645311    -0.4341862015    -0.0119122442
   16      C       1.9721757947    -1.4254568149    -0.0208294606
   17      O       2.2390414967    -2.6529159501    -0.0463613868
   18      C       0.6016653513    -0.8898698989     0.0009384809
   19      S      -3.7476214468     0.8423180938    -0.0286286947
   20      O      -4.5746332505    -0.3186158226     0.4975951162
   21      O      -3.7915807350     2.0213574524     0.8614689637
   22      O      -4.0453796540     1.1317782973    -1.4515655598
   23      H      -1.3588919321    -3.4070790892     0.0675381793
   24      H      -3.6873547505    -1.6239911974     0.2165318049
   25      H      -1.0934730505     2.0979256435     0.0550371802
   26      H       3.6885593820     2.9187811985     0.0279793172
   27      H       6.0434252894     2.0910165587     0.0083367133
   28      H       6.4760171117    -0.3776050861    -0.0259957073
   29      H       4.5482640962    -1.9595776412    -0.0393237145
 ----------------------------------------------------------------

   11   -1462.8250443533      5.48e-06  Convergence criterion met
 Total energy in the final basis set =    -1462.8250443533
    5   -1463.0740121118      4.20e-06  Convergence criterion met
 Total energy in the final basis set =    -1463.0740121118

                    Orbital Energies (a.u.)
 --------------------------------------------------------------

 Alpha MOs
 -- Occupied --
-89.0623 -19.1497 -19.1471 -19.1083 -19.1068 -19.1050 -19.0773 -19.0747
-10.2409 -10.2382 -10.2283 -10.2276 -10.2022 -10.1837 -10.1779 -10.1774
-10.1725 -10.1716 -10.1713 -10.1707 -10.1685 -10.1676  -8.1211  -6.0840
 -6.0836  -6.0827  -1.1249  -1.0785  -1.0446  -1.0048  -1.0017  -0.9908
 -0.9848  -0.8634  -0.8513  -0.7894  -0.7547  -0.7484  -0.7399  -0.6812
 -0.6532  -0.6358  -0.6047  -0.5951  -0.5753  -0.5597  -0.5363  -0.5158
 -0.5007  -0.4917  -0.4782  -0.4704  -0.4659  -0.4623  -0.4442  -0.4322
 -0.4275  -0.4202  -0.4193  -0.4139  -0.4109  -0.3950  -0.3858  -0.3839
 -0.3707  -0.3672  -0.3544  -0.3534  -0.3497  -0.3491  -0.3347  -0.3333
 -0.3139  -0.3094  -0.3034  -0.2731  -0.2655  -0.2559  -0.2473  -0.2465
 -0.2365  -0.2255  -0.1398

 Beta MOs
 -- Occupied --
-89.0623 -19.1495 -19.1467 -19.1083 -19.1068 -19.1049 -19.0725 -19.0690
-10.2398 -10.2379 -10.2266 -10.2258 -10.2020 -10.1831 -10.1777 -10.1770
-10.1716 -10.1708 -10.1708 -10.1702 -10.1685 -10.1676  -8.1211  -6.0840
 -6.0836  -6.0827  -1.1248  -1.0777  -1.0439  -0.9961  -0.9919  -0.9908
 -0.9848  -0.8612  -0.8499  -0.7859  -0.7523  -0.7465  -0.7380  -0.6766
 -0.6500  -0.6331  -0.6041  -0.5944  -0.5733  -0.5576  -0.5350  -0.5151
 -0.4991  -0.4897  -0.4774  -0.4700  -0.4655  -0.4604  -0.4398  -0.4299
 -0.4260  -0.4195  -0.4179  -0.4069  -0.4014  -0.3929  -0.3837  -0.3738
 -0.3680  -0.3588  -0.3521  -0.3497  -0.3490  -0.3457  -0.3335  -0.3276
 -0.3137  -0.3042  -0.3029  -0.2730  -0.2504  -0.2472  -0.2427  -0.2416
 -0.2315  -0.2171

          Ground-State Mulliken Net Atomic Charges

     Atom                 Charge (a.u.)    Spin (a.u.)
  --------------------------------------------------------
      1 O                    -0.290664       0.004700
      2 C                    -0.320557       0.040106
      3 C                    -0.616628       0.075688
      4 O                    -0.451377       0.011839
      5 C                    -0.295092       0.015579
      6 C                    -0.208310       0.027653
      7 C                     0.672666       0.017384
      8 C                    -0.529677       0.102554
      9 O                    -0.482710       0.178486
     10 C                     0.297564       0.035000
     11 C                     0.030834       0.024171
     12 C                    -0.539287       0.040588
     13 C                    -0.577239       0.038368
     14 C                     0.077939       0.029709
     15 C                     0.010583       0.035676
     16 C                    -0.350440       0.092820
     17 O                    -0.489160       0.211179
     18 C                     0.611862       0.026681
     19 S                     0.930072       0.002526
     20 O                    -0.503251      -0.000301
     21 O                    -0.361324       0.001130
     22 O                    -0.313979       0.000484
     23 H                     0.331762      -0.000375
     24 H                     0.423136      -0.000347
     25 H                     0.188481      -0.002566
     26 H                     0.173214      -0.000944
     27 H                     0.203832      -0.003293
     28 H                     0.202547      -0.003273
     29 H                     0.175200      -0.001219
  --------------------------------------------------------
  Sum of atomic charges =    -2.000001

                    Cartesian Multipole Moments
 -----------------------------------------------------------------
    Charge (ESU x 10^10)
                -9.6064
    Dipole Moment (Debye)
         X      11.0868      Y      -3.1854      Z       0.5846
       Tot      11.5501
    Quadrupole Moments (Debye-Ang)
        XX    -232.2202     XY      28.2489     YY    -189.5679
        XZ      -1.7707     YZ      -1.1023     ZZ    -149.0221

 Total job time:  132.39s(wall), 966.25s(cpu)
        *  Thank you very much for using Q-Chem.  Have a nice day.  *
