 Gaussian 16, Revision A.03,
 Gaussian 16:  ES64L-G16RevA.03 25-Dec-2016

 --------------------------------------
 #P UB3LYP/6-311++G(d,p) nosym opt freq
 --------------------------------------

 --------
 Oxidized
 --------
 Symbolic Z-matrix:
 Charge =  0 Multiplicity = 1

 SCF Done:  E(UB3LYP) =  -846.214974927     A.U. after   16 cycles
 SCF Done:  E(UB3LYP) =  -846.240009866     A.U. after   13 cycles
 SCF Done:  E(UB3LYP) =  -846.245948446     A.U. after   13 cycles
 SCF Done:  E(UB3LYP) =  -846.248205588     A.U. after   13 cycles
 SCF Done:  E(UB3LYP) =  -846.250155193     A.U. after   12 cycles
 SCF Done:  E(UB3LYP) =  -846.251154263     A.U. after   13 cycles
 SCF Done:  E(UB3LYP) =  -846.251364399     A.U. after   12 cycles
 SCF Done:  E(UB3LYP) =  -846.251407972     A.U. after   11 cycles
 SCF Done:  E(UB3LYP) =  -846.251423126     A.U. after   10 cycles
 SCF Done:  E(UB3LYP) =  -846.251428346     A.U. after   10 cycles
 SCF Done:  E(UB3LYP) =  -846.251431990     A.U. after   10 cycles
 SCF Done:  E(UB3LYP) =  -846.251434266     A.U. after   10 cycles
 SCF Done:  E(UB3LYP) =  -846.251435291     A.U. after    9 cycles
 SCF Done:  E(UB3LYP) =  -846.251435377     A.U. after    8 cycles
 Optimization completed.
    -- Stationary point found.
 Normal termination of Gaussian 16 at Thu Dec 21 08:27:26 2023.

 ----------------------------------------------------------------------
 #P Geom=AllCheck Guess=TCheck SCRF=Check GenChk UB3LYP/6-311++G(d,p) F
 req
 ----------------------------------------------------------------------

 Structure from the checkpoint file:  "126.chk"
 --------
 Oxidized
 --------
 Charge =  0 Multiplicity = 1

                          Input orientation:
 ---------------------------------------------------------------------
 Center     Atomic      Atomic             Coordinates (Angstroms)
 Number     Number       Type             X           Y           Z
 ---------------------------------------------------------------------
      1          6           0       -3.947704    0.959947    0.930489
      2          6           0       -3.288820   -0.073930   -0.013098
      3          6           0       -3.475611   -1.474136    0.598477
      4          6           0       -4.000969   -0.044780   -1.386181
      5          6           0       -1.806601    0.285748   -0.203180
      6          6           0       -1.450911    1.533475   -0.750606
      7          6           0       -0.126484    1.896759   -0.938136
      8          6           0        0.904573    1.021028   -0.583730
      9          6           0        2.320116    1.430794   -0.793082
     10          8           0        2.605108    2.518587   -1.268970
     11          6           0        3.381164    0.457244   -0.397406
     12          6           0        4.723422    0.804502   -0.577966
     13          6           0        5.729801   -0.083980   -0.217942
     14          6           0        5.403792   -1.329334    0.326513
     15          6           0        4.072277   -1.683108    0.509720
     16          6           0        3.052956   -0.795703    0.150547
     17          6           0        1.631275   -1.202310    0.358902
     18          8           0        1.349001   -2.290516    0.834820
     19          6           0        0.572863   -0.227741   -0.036946
     20          6           0       -0.769064   -0.579159    0.146089
     21          1           0       -5.004610    0.716749    1.074173
     22          1           0       -3.463228    0.959402    1.910683
     23          1           0       -3.891899    1.974469    0.529107
     24          1           0       -3.054373   -2.257093   -0.037598
     25          1           0       -4.542603   -1.681871    0.713773
     26          1           0       -3.015931   -1.552552    1.587217
     27          1           0       -3.946704    0.940676   -1.854557
     28          1           0       -5.058399   -0.298173   -1.265831
     29          1           0       -3.554856   -0.768532   -2.073679
     30          1           0       -2.225014    2.236077   -1.036322
     31          1           0        0.134126    2.859724   -1.360043
     32          1           0        4.952629    1.774514   -1.001542
     33          1           0        6.769052    0.190107   -0.359978
     34          1           0        6.190214   -2.021006    0.606628
     35          1           0        3.796832   -2.642530    0.929801
     36          1           0       -0.965417   -1.553350    0.571340
 ---------------------------------------------------------------------

 SCF Done:  E(UB3LYP) =  -846.251435377     A.U. after    1 cycles

 Alpha  occ. eigenvalues --  -19.12432 -19.12313 -10.27638 -10.27543 -10.20698
 Alpha  occ. eigenvalues --  -10.20645 -10.20593 -10.20553 -10.20485 -10.20298
 Alpha  occ. eigenvalues --  -10.20075 -10.20022 -10.19718 -10.19699 -10.19610
 Alpha  occ. eigenvalues --  -10.19485 -10.19168 -10.17090 -10.17090 -10.16822
 Alpha  occ. eigenvalues --   -1.05858  -1.05630  -0.89384  -0.88376  -0.83991
 Alpha  occ. eigenvalues --   -0.80274  -0.77782  -0.77404  -0.76158  -0.70174
 Alpha  occ. eigenvalues --   -0.69928  -0.68565  -0.66649  -0.64339  -0.61686
 Alpha  occ. eigenvalues --   -0.58506  -0.58067  -0.55948  -0.53526  -0.50175
 Alpha  occ. eigenvalues --   -0.49298  -0.48690  -0.48294  -0.45561  -0.45422
 Alpha  occ. eigenvalues --   -0.45144  -0.44905  -0.44874  -0.44857  -0.44255
 Alpha  occ. eigenvalues --   -0.43234  -0.41390  -0.41187  -0.41019  -0.39096
 Alpha  occ. eigenvalues --   -0.38751  -0.38689  -0.37926  -0.37765  -0.36701
 Alpha  occ. eigenvalues --   -0.36411  -0.34547  -0.34382  -0.33674  -0.28511
 Alpha  occ. eigenvalues --   -0.28013  -0.27879  -0.27440  -0.26836  -0.26788
 Alpha virt. eigenvalues --   -0.11342  -0.07061  -0.03628  -0.02477  -0.01431
 Alpha virt. eigenvalues --   -0.00674   0.00607   0.01112   0.01278   0.01500
 Alpha virt. eigenvalues --    0.02506   0.02643   0.03131   0.03437   0.03525

  Beta  occ. eigenvalues --  -19.12432 -19.12313 -10.27638 -10.27543 -10.20698
  Beta  occ. eigenvalues --  -10.20645 -10.20593 -10.20553 -10.20485 -10.20298
  Beta  occ. eigenvalues --  -10.20075 -10.20022 -10.19718 -10.19699 -10.19610
  Beta  occ. eigenvalues --  -10.19485 -10.19168 -10.17090 -10.17090 -10.16822
  Beta  occ. eigenvalues --   -1.05858  -1.05630  -0.89384  -0.88376  -0.83991
  Beta  occ. eigenvalues --   -0.80274  -0.77782  -0.77404  -0.76158  -0.70174
  Beta  occ. eigenvalues --   -0.69928  -0.68565  -0.66649  -0.64339  -0.61686
  Beta  occ. eigenvalues --   -0.58506  -0.58067  -0.55948  -0.53526  -0.50175
  Beta  occ. eigenvalues --   -0.49298  -0.48690  -0.48294  -0.45561  -0.45422
  Beta  occ. eigenvalues --   -0.45144  -0.44905  -0.44874  -0.44857  -0.44255
  Beta  occ. eigenvalues --   -0.43234  -0.41390  -0.41187  -0.41019  -0.39096
  Beta  occ. eigenvalues --   -0.38751  -0.38689  -0.37926  -0.37765  -0.36701
  Beta  occ. eigenvalues --   -0.36411  -0.34547  -0.34382  -0.33674  -0.28511
  Beta  occ. eigenvalues --   -0.28013  -0.27879  -0.27440  -0.26836  -0.26788
  Beta virt. eigenvalues --   -0.11342  -0.07061  -0.03628  -0.02477  -0.01431
  Beta virt. eigenvalues --   -0.00674   0.00607   0.01112   0.01278   0.01500
  Beta virt. eigenvalues --    0.02506   0.02643   0.03131   0.03437   0.03525

 Mulliken charges and spin densities:
               1          2
     1  C   -0.645044   0.000000
     2  C    0.473643   0.000000
     3  C   -0.477753  -0.000000
     4  C   -0.645408   0.000000
     5  C    0.221068   0.000000
     6  C   -0.491353  -0.000000
     7  C   -0.009181   0.000000
     8  C    0.226005   0.000000
     9  C   -0.912753   0.000000
    10  O   -0.209645  -0.000000
    11  C    0.126845   0.000000
    12  C    0.170683   0.000000
    13  C   -0.387607   0.000000
    14  C   -0.393478   0.000000
    15  C    0.146820  -0.000000
    16  C    0.438910  -0.000000
    17  C   -0.774779   0.000000
    18  O   -0.206583  -0.000000
    19  C    0.613878  -0.000000
    20  C    0.130974  -0.000000
    21  H    0.161058  -0.000000
    22  H    0.150229  -0.000000
    23  H    0.140744   0.000000
    24  H    0.144532  -0.000000
    25  H    0.168285   0.000000
    26  H    0.144558   0.000000
    27  H    0.140986   0.000000
    28  H    0.161055  -0.000000
    29  H    0.150196   0.000000
    30  H    0.152163  -0.000000
    31  H    0.201052  -0.000000
    32  H    0.184108  -0.000000
    33  H    0.177148  -0.000000
    34  H    0.177735   0.000000
    35  H    0.184065   0.000000
    36  H    0.166845   0.000000
 Sum of Mulliken charges =  -0.00000  -0.00000

 Dipole moment (field-independent basis, Debye):
    X=             -0.9422    Y=             -0.1983    Z=              0.1079  Tot=              0.9689
 Quadrupole moment (field-independent basis, Debye-Ang):
   XX=            -93.9635   YY=           -126.7076   ZZ=           -122.1219
   XY=             -7.2068   XZ=              2.6020   YZ=              2.7015

  Exact polarizability: 325.458  -7.948 208.118  -1.239 -36.179 139.483
 Approx polarizability: 436.441   2.230 389.928  -6.540 -84.207 231.379

                      1                      2                      3
                      A                      A                      A
 Frequencies --     29.5980                36.9381                69.2126
 Red. masses --      3.9836                 4.2281                 5.1094
 Frc consts  --      0.0021                 0.0034                 0.0144
 IR Inten    --      1.9959                 1.5836                 2.0591

                      4                      5                      6
                      A                      A                      A
 Frequencies --    115.2277               123.7104               141.9967
 Red. masses --      4.6664                 4.4299                 4.8286
 Frc consts  --      0.0365                 0.0399                 0.0574
 IR Inten    --      0.0302                 0.4313                 0.2631

                      7                      8                      9
                      A                      A                      A
 Frequencies --    168.2537               217.1502               235.2228
 Red. masses --      4.6044                 1.9814                 4.1244
 Frc consts  --      0.0768                 0.0550                 0.1345
 IR Inten    --      1.2471                 0.1894                 0.2765

                     10                     11                     12
                      A                      A                      A
 Frequencies --    238.9763               245.1998               271.2379
 Red. masses --      1.5523                 2.6778                 1.2382
 Frc consts  --      0.0522                 0.0949                 0.0537
 IR Inten    --      0.0734                 0.3978                 0.2751

                     13                     14                     15
                      A                      A                      A
 Frequencies --    301.3148               321.5903               339.8855
 Red. masses --      4.0422                 1.0494                 2.9345
 Frc consts  --      0.2162                 0.0639                 0.1997
 IR Inten    --      0.1147                 0.0024                 0.0410

                     16                     17                     18
                      A                      A                      A
 Frequencies --    353.5938               383.7819               396.6323
 Red. masses --      2.8495                 7.9161                 2.6710
 Frc consts  --      0.2099                 0.6870                 0.2476
 IR Inten    --      0.1023                12.3269                 0.0610

                     19                     20                     21
                      A                      A                      A
 Frequencies --    407.1853               415.7807               439.1857
 Red. masses --      6.5885                 3.5369                 4.5879
 Frc consts  --      0.6436                 0.3602                 0.5214
 IR Inten    --     15.8548                 0.2721                 1.4074

                     22                     23                     24
                      A                      A                      A
 Frequencies --    446.8892               464.6475               470.6800
 Red. masses --      3.5048                 4.0273                 4.2999
 Frc consts  --      0.4124                 0.5123                 0.5613
 IR Inten    --      0.0653                 0.2012                 0.5555

                     25                     26                     27
                      A                      A                      A
 Frequencies --    484.6100               566.8291               583.6596
 Red. masses --      5.7404                 3.5433                 4.5758
 Frc consts  --      0.7943                 0.6708                 0.9184
 IR Inten    --      1.1979                 2.5653                 7.2421

                     28                     29                     30
                      A                      A                      A
 Frequencies --    648.8132               664.3950               686.1072
 Red. masses --      7.0110                 6.1212                 3.6529
 Frc consts  --      1.7389                 1.5920                 1.0132
 IR Inten    --      9.8012                 1.1737                13.4875

                     31                     32                     33
                      A                      A                      A
 Frequencies --    701.6364               717.3521               728.7325
 Red. masses --      6.8716                 6.6226                 2.6911
 Frc consts  --      1.9931                 2.0079                 0.8420
 IR Inten    --      0.3124                 0.0970                55.7663

                     34                     35                     36
                      A                      A                      A
 Frequencies --    744.7544               805.7904               807.6439
 Red. masses --      2.9703                 4.1206                 4.7243
 Frc consts  --      0.9707                 1.5764                 1.8156
 IR Inten    --     13.1542                 0.4823                 0.3326

                     37                     38                     39
                      A                      A                      A
 Frequencies --    809.4216               856.2041               875.6503
 Red. masses --      1.8784                 3.4838                 1.5572
 Frc consts  --      0.7251                 1.5047                 0.7035
 IR Inten    --      8.0153                13.8698                16.7301

                     40                     41                     42
                      A                      A                      A
 Frequencies --    916.6360               926.7108               939.2834
 Red. masses --      1.3926                 1.8080                 1.7154
 Frc consts  --      0.6894                 0.9148                 0.8917
 IR Inten    --      0.1916                 0.2948                 0.5722

                     43                     44                     45
                      A                      A                      A
 Frequencies --    945.5082               951.6610               962.0399
 Red. masses --      7.1316                 1.4157                 1.2002
 Frc consts  --      3.7563                 0.7554                 0.6545
 IR Inten    --     65.7645                 5.3171                 0.2799

                     46                     47                     48
                      A                      A                      A
 Frequencies --    984.6615              1002.7368              1009.9574
 Red. masses --      4.4880                 1.3752                 1.3598
 Frc consts  --      2.5637                 0.8147                 0.8172
 IR Inten    --     24.8552                 1.4178                 1.0945

                     49                     50                     51
                      A                      A                      A
 Frequencies --   1017.7356              1042.8128              1046.9368
 Red. masses --      1.3232                 1.4242                 1.4013
 Frc consts  --      0.8075                 0.9125                 0.9050
 IR Inten    --      0.0008                 1.7686                 0.0060

                     52                     53                     54
                      A                      A                      A
 Frequencies --   1057.2210              1102.8564              1113.3221
 Red. masses --      1.9872                 2.5577                 2.1174
 Frc consts  --      1.3086                 1.8329                 1.5463
 IR Inten    --      0.7730                 1.4150                 1.2950

                     55                     56                     57
                      A                      A                      A
 Frequencies --   1142.8735              1177.6666              1190.8642
 Red. masses --      2.0069                 1.3887                 1.7676
 Frc consts  --      1.5444                 1.1347                 1.4769
 IR Inten    --      1.5231                 1.1634                19.1400

                     58                     59                     60
                      A                      A                      A
 Frequencies --   1198.2022              1220.3776              1223.3848
 Red. masses --      2.0833                 2.7176                 2.4841
 Frc consts  --      1.7622                 2.3846                 2.1905
 IR Inten    --      9.1190                 3.1768                 0.4050

                     61                     62                     63
                      A                      A                      A
 Frequencies --   1240.6966              1274.3025              1293.4771
 Red. masses --      1.7841                 2.3907                 1.6418
 Frc consts  --      1.6181                 2.2872                 1.6184
 IR Inten    --     12.8292               223.8586                50.9913

                     64                     65                     66
                      A                      A                      A
 Frequencies --   1313.3586              1316.7182              1349.8533
 Red. masses --      5.5768                 2.2708                 6.9647
 Frc consts  --      5.6677                 2.3196                 7.4770
 IR Inten    --    521.2915                 8.5570                30.8420

                     67                     68                     69
                      A                      A                      A
 Frequencies --   1361.4997              1399.4616              1401.4073
 Red. masses --      8.0663                 1.2027                 1.2602
 Frc consts  --      8.8097                 1.3878                 1.4583
 IR Inten    --     11.8724                 8.5309                16.2043

                     70                     71                     72
                      A                      A                      A
 Frequencies --   1433.0411              1438.7744              1481.3520
 Red. masses --      1.2530                 3.2583                 2.3943
 Frc consts  --      1.5161                 3.9740                 3.0956
 IR Inten    --      2.5472                 4.0875                 0.4831

                     73                     74                     75
                      A                      A                      A
 Frequencies --   1483.8140              1487.5226              1490.6718
 Red. masses --      1.0481                 1.0447                 1.0725
 Frc consts  --      1.3597                 1.3620                 1.4041
 IR Inten    --      0.0197                 0.1328                 0.5479

                     76                     77                     78
                      A                      A                      A
 Frequencies --   1503.3991              1504.7933              1510.4509
 Red. masses --      2.0732                 1.2279                 1.0490
 Frc consts  --      2.7608                 1.6382                 1.4101
 IR Inten    --      5.0460                11.6439                 8.5543

                     79                     80                     81
                      A                      A                      A
 Frequencies --   1519.1185              1524.5338              1596.3176
 Red. masses --      1.4259                 1.5084                 7.0454
 Frc consts  --      1.9387                 2.0656                10.5778
 IR Inten    --     10.7678                 6.1168                 6.2736

                     82                     83                     84
                      A                      A                      A
 Frequencies --   1614.5343              1627.1645              1633.9721
 Red. masses --      7.0268                 5.9784                 5.8524
 Frc consts  --     10.7920                 9.3261                 9.2060
 IR Inten    --      9.2127               145.6128                28.4710

                     85                     86                     87
                      A                      A                      A
 Frequencies --   1716.2720              1726.9387              3022.6226
 Red. masses --     12.5770                11.9679                 1.0345
 Frc consts  --     21.8272                21.0292                 5.5686
 IR Inten    --      7.1169               320.2142                26.7529

                     88                     89                     90
                      A                      A                      A
 Frequencies --   3023.4318              3030.7172              3085.8333
 Red. masses --      1.0345                 1.0357                 1.1021
 Frc consts  --      5.5719                 5.6052                 6.1831
 IR Inten    --     24.2696                25.0484                 4.3808

                     91                     92                     93
                      A                      A                      A
 Frequencies --   3086.5109              3093.3158              3094.1199
 Red. masses --      1.1022                 1.1027                 1.1011
 Frc consts  --      6.1863                 6.2169                 6.2107
 IR Inten    --      4.6854                 7.0854                95.0512

                     94                     95                     96
                      A                      A                      A
 Frequencies --   3096.7532              3098.6221              3169.5030
 Red. masses --      1.1018                 1.1011                 1.0869
 Frc consts  --      6.2251                 6.2291                 6.4334
 IR Inten    --     27.0776                40.1869                 3.3871

                     97                     98                     99
                      A                      A                      A
 Frequencies --   3176.1469              3183.9538              3198.5805
 Red. masses --      1.0878                 1.0918                 1.0933
 Frc consts  --      6.4656                 6.5211                 6.5900
 IR Inten    --      9.4174                11.2298                 5.9161

                    100                    101                    102
                      A                      A                      A
 Frequencies --   3199.6381              3202.1921              3218.4928
 Red. masses --      1.0925                 1.0949                 1.0891
 Frc consts  --      6.5897                 6.6147                 6.6471
 IR Inten    --      0.4849                12.3592                 1.9041

 - Thermochemistry -
 -------------------
 Temperature   298.150 Kelvin.  Pressure   1.00000 Atm.
 Atom     1 has atomic number  6 and mass  12.00000

 Molecular mass:   264.11503 amu.
 Principal axes and moments of inertia in atomic units:
                           1         2         3
     Eigenvalues --  2155.765929342.46883**********
           X            0.99912   0.03613   0.02132
           Y           -0.04162   0.91725   0.39613
           Z           -0.00525  -0.39667   0.91795
 This molecule is an asymmetric top.
 Rotational symmetry number  1.
 Warning -- assumption of classical behavior for rotation
           may cause significant error
 Rotational temperatures (Kelvin)      0.04018     0.00927     0.00780
 Rotational constants (GHZ):           0.83717     0.19318     0.16262
 Zero-point vibrational energy     763892.3 (Joules/Mol)
                                  182.57464 (Kcal/Mol)
 Warning -- explicit consideration of  27 degrees of freedom as
           vibrations may cause significant error
 Vibrational temperatures:     42.58    53.15    99.58   165.79   177.99
          (Kelvin)            204.30   242.08   312.43   338.43   343.83
                              352.79   390.25   433.52   462.70   489.02
                              508.74   552.18   570.67   585.85   598.22
                              631.89   642.97   668.52   677.20   697.25
                              815.54   839.76   933.50   955.92   987.16
                             1009.50  1032.11  1048.48  1071.54  1159.35
                             1162.02  1164.58  1231.89  1259.87  1318.83
                             1333.33  1351.42  1360.38  1369.23  1384.16
                             1416.71  1442.71  1453.10  1464.29  1500.37
                             1506.31  1521.11  1586.76  1601.82  1644.34
                             1694.40  1713.39  1723.95  1755.85  1760.18
                             1785.09  1833.44  1861.03  1889.63  1894.46
                             1942.14  1958.89  2013.51  2016.31  2061.83
                             2070.08  2131.34  2134.88  2140.21  2144.74
                             2163.06  2165.06  2173.20  2185.67  2193.46
                             2296.74  2322.95  2341.13  2350.92  2469.33
                             2484.68  4348.88  4350.04  4360.53  4439.83
                             4440.80  4450.59  4451.75  4455.54  4458.23
                             4560.21  4569.77  4581.00  4602.04  4603.57
                             4607.24  4630.69

 Zero-point correction=                           0.290951 (Hartree/Particle)
 Thermal correction to Energy=                    0.307860
 Thermal correction to Enthalpy=                  0.308804
 Thermal correction to Gibbs Free Energy=         0.246478
 Sum of electronic and zero-point Energies=           -845.960484
 Sum of electronic and thermal Energies=              -845.943575
 Sum of electronic and thermal Enthalpies=            -845.942631
 Sum of electronic and thermal Free Energies=         -846.004957

                     E (Thermal)             CV                S
                      KCal/Mol        Cal/Mol-Kelvin    Cal/Mol-Kelvin
 Total                  193.185             67.793            131.176
 Electronic               0.000              0.000              0.000
 Translational            0.889              2.981             42.613
 Rotational               0.889              2.981             33.768
 Vibrational            191.408             61.831             54.795
 Vibration     1          0.593              1.984              5.856
 Vibration     2          0.594              1.982              5.417
 Vibration     3          0.598              1.969              4.176
 Vibration     4          0.608              1.937              3.179
 Vibration     5          0.610              1.929              3.042
 Vibration     6          0.615              1.911              2.777
 Vibration     7          0.625              1.882              2.455
 Vibration     8          0.646              1.815              1.983
 Vibration     9          0.655              1.787              1.839
 Vibration    10          0.657              1.781              1.810
 Vibration    11          0.660              1.771              1.765
 Vibration    12          0.675              1.726              1.588
 Vibration    13          0.693              1.671              1.410
 Vibration    14          0.707              1.632              1.302
 Vibration    15          0.720              1.596              1.213
 Vibration    16          0.730              1.568              1.150
 Vibration    17          0.753              1.505              1.024
 Vibration    18          0.763              1.477              0.975
 Vibration    19          0.772              1.455              0.937
 Vibration    20          0.779              1.436              0.906
 Vibration    21          0.799              1.385              0.829
 Vibration    22          0.806              1.368              0.805
 Vibration    23          0.822              1.328              0.753
 Vibration    24          0.828              1.315              0.736
 Vibration    25          0.841              1.284              0.698
 Vibration    26          0.923              1.103              0.510
 Vibration    27          0.941              1.067              0.479

 Optimization completed.
    -- Stationary point found.
 Normal termination of Gaussian 16 at Thu Dec 21 11:14:15 2023.
