 Q-Chem 5.4, Q-Chem, Inc., Pleasanton, CA (2021)
 Q-Chem 5.4.0 for Intel X86 EM64T Linux

User input:
--------------------------------------------------------------
$molecule
-2 1
C                  5.2483380000     -2.3237350000      0.3836840000
C                  6.0139420000     -1.5051750000     -0.4243270000
C                  5.3805180000     -0.6062450000     -1.3193870000
C                  3.8322280000     -2.3006670000      0.3512790000
C                  3.1955630000     -1.3910600000     -0.5561160000
C                  4.0002570000     -0.5621510000     -1.3716050000
C                  3.0951740000     -3.1975640000      1.2419630000
C                  1.6602510000     -3.1291850000      1.1512750000
C                  1.0246190000     -2.1983090000      0.2282440000
C                  1.7460640000     -1.3041860000     -0.6504830000
C                  0.7906940000     -3.9775530000      1.9681290000
C                 -0.6399290000     -3.8644720000      1.8630960000
C                 -0.3888710000     -2.1401370000      0.1692650000
C                 -1.2031170000     -2.9223240000      0.9429790000
O                  3.7503690000     -3.9749460000      2.0302670000
O                  1.1746940000     -0.4920100000     -1.4565340000
H                  5.7017810000     -3.0212470000      1.0801390000
H                  7.1006190000     -1.5494090000     -0.3744860000
H                  5.9772440000      0.0423110000     -1.9581990000
H                 -2.2863740000     -2.8382140000      0.8768030000
H                  3.4774310000      0.1119510000     -2.0428680000
H                 -0.8024040000     -1.4240700000     -0.5342860000
C                 -1.4761410000     -4.6920390000      2.6473870000
C                 -0.9468530000     -5.6124430000      3.5394940000
C                  0.4350270000     -5.7306350000      3.6684980000
C                  1.2803990000     -4.9370920000      2.8923240000
O                 -1.7644010000     -6.4349020000      4.3212440000
H                 -2.5559750000     -4.6158390000      2.5210740000
H                  0.8430970000     -6.4427600000      4.3797130000
H                  2.3559250000     -5.0214050000      2.9737270000
H                 -2.6569820000     -6.0670570000      4.2991040000
$end
$rem
MAX_SCF_CYCLES=200
BASIS  =  6-311++G(d,p)
GUI  =  2
JOB_TYPE  =  SP
METHOD  =  B3LYP
SOLVENT_METHOD = PCM
$end
$pcm
theory = CPCM
$end
$solvent
dielectric 37.219
opticaldielectric 1.43
$end

--------------------------------------------------------------

             Standard Nuclear Orientation (Angstroms)
    I     Atom           X                Y                Z
 ----------------------------------------------------------------
    1      C       5.2483380000    -2.3237350000     0.3836840000
    2      C       6.0139420000    -1.5051750000    -0.4243270000
    3      C       5.3805180000    -0.6062450000    -1.3193870000
    4      C       3.8322280000    -2.3006670000     0.3512790000
    5      C       3.1955630000    -1.3910600000    -0.5561160000
    6      C       4.0002570000    -0.5621510000    -1.3716050000
    7      C       3.0951740000    -3.1975640000     1.2419630000
    8      C       1.6602510000    -3.1291850000     1.1512750000
    9      C       1.0246190000    -2.1983090000     0.2282440000
   10      C       1.7460640000    -1.3041860000    -0.6504830000
   11      C       0.7906940000    -3.9775530000     1.9681290000
   12      C      -0.6399290000    -3.8644720000     1.8630960000
   13      C      -0.3888710000    -2.1401370000     0.1692650000
   14      C      -1.2031170000    -2.9223240000     0.9429790000
   15      O       3.7503690000    -3.9749460000     2.0302670000
   16      O       1.1746940000    -0.4920100000    -1.4565340000
   17      H       5.7017810000    -3.0212470000     1.0801390000
   18      H       7.1006190000    -1.5494090000    -0.3744860000
   19      H       5.9772440000     0.0423110000    -1.9581990000
   20      H      -2.2863740000    -2.8382140000     0.8768030000
   21      H       3.4774310000     0.1119510000    -2.0428680000
   22      H      -0.8024040000    -1.4240700000    -0.5342860000
   23      C      -1.4761410000    -4.6920390000     2.6473870000
   24      C      -0.9468530000    -5.6124430000     3.5394940000
   25      C       0.4350270000    -5.7306350000     3.6684980000
   26      C       1.2803990000    -4.9370920000     2.8923240000
   27      O      -1.7644010000    -6.4349020000     4.3212440000
   28      H      -2.5559750000    -4.6158390000     2.5210740000
   29      H       0.8430970000    -6.4427600000     4.3797130000
   30      H       2.3559250000    -5.0214050000     2.9737270000
   31      H      -2.6569820000    -6.0670570000     4.2991040000
 ----------------------------------------------------------------

    9    -918.1297694955      2.93e-06  Convergence criterion met
 Total energy in the final basis set =     -918.1297694955

                    Orbital Energies (a.u.)
 --------------------------------------------------------------

 Alpha MOs
 -- Occupied --
-19.1436 -19.0284 -19.0228 -10.2185 -10.1820 -10.1785 -10.1678 -10.1619
-10.1554 -10.1538 -10.1534 -10.1528 -10.1498 -10.1480 -10.1480 -10.1466
-10.1449 -10.1426 -10.1416 -10.1404 -10.1345  -1.0449  -0.9501  -0.9437
 -0.8485  -0.8299  -0.7979  -0.7586  -0.7356  -0.7262  -0.7218  -0.6931
 -0.6441  -0.6126  -0.6110  -0.5867  -0.5698  -0.5389  -0.5290  -0.5102
 -0.4911  -0.4765  -0.4525  -0.4404  -0.4351  -0.4292  -0.4126  -0.4056
 -0.4040  -0.3970  -0.3869  -0.3806  -0.3780  -0.3721  -0.3686  -0.3534
 -0.3487  -0.3377  -0.3337  -0.3187  -0.3179  -0.3160  -0.3041  -0.2870
 -0.2525  -0.2339  -0.2287  -0.2213  -0.2081  -0.1958  -0.1941  -0.1129

          Ground-State Mulliken Net Atomic Charges

     Atom                 Charge (a.u.)
  ----------------------------------------
      1 C                    -0.047937
      2 C                    -0.528293
      3 C                    -0.532559
      4 C                     0.215523
      5 C                     0.201197
      6 C                    -0.102001
      7 C                    -0.502149
      8 C                     0.515854
      9 C                     0.589380
     10 C                    -0.672977
     11 C                     0.756201
     12 C                     0.420523
     13 C                    -0.251582
     14 C                    -0.501304
     15 O                    -0.631083
     16 O                    -0.649960
     17 H                     0.146305
     18 H                     0.178173
     19 H                     0.176979
     20 H                     0.160919
     21 H                     0.148261
     22 H                     0.144816
     23 C                    -0.312393
     24 C                    -0.494726
     25 C                    -0.411807
     26 C                    -0.511399
     27 O                    -0.338674
     28 H                     0.156532
     29 H                     0.207069
     30 H                     0.157774
     31 H                     0.313338
  ----------------------------------------
  Sum of atomic charges =    -2.000001

                    Cartesian Multipole Moments
 -----------------------------------------------------------------
    Charge (ESU x 10^10)
                -9.6064
    Dipole Moment (Debye)
         X     -22.3490      Y      25.1016      Z      -5.5841
       Tot      34.0698
    Quadrupole Moments (Debye-Ang)
        XX    -192.4837     XY      62.5653     YY    -234.6258
        XZ     -20.9566     YZ      45.1941     ZZ    -166.6200

 Total job time:  125.27s(wall), 513.40s(cpu)
        *  Thank you very much for using Q-Chem.  Have a nice day.  *
