 Gaussian 16, Revision A.03,
 Gaussian 16:  ES64L-G16RevA.03 25-Dec-2016

 ----------------------------------------------------------------
 #P UB3LYP/6-311++G(d,p) SCRF=(PCM,Solvent=n,n-DiMethylFormamide)
 ----------------------------------------------------------------

 ------------------
 Quinone PCM in DMF
 ------------------
 Symbolic Z-matrix:
 Charge =  0 Multiplicity = 1

                         Standard orientation:
 ---------------------------------------------------------------------
 Center     Atomic      Atomic             Coordinates (Angstroms)
 Number     Number       Type             X           Y           Z
 ---------------------------------------------------------------------
      1          6           0       -0.085970   -0.987339   -0.092613
      2          6           0       -1.584172   -0.899477   -0.022230
      3          6           0       -2.179457    0.303204    0.062152
      4          6           0       -1.410446    1.561499    0.087304
      5          6           0        0.068791    1.462090    0.025125
      6          6           0        0.706662    0.280189   -0.037113
      7          8           0        0.451171   -2.075404   -0.217698
      8          8           0       -1.959977    2.649508    0.158146
      9          6           0        2.227944    0.287529   -0.058681
     10          6           0        2.985792   -0.862482    0.554797
     11          8           0        2.795239    1.249079   -0.532824
     12          1           0        2.901546   -1.743247   -0.085445
     13          1           0        2.563277   -1.143016    1.523417
     14          1           0        4.030499   -0.573836    0.663629
     15          1           0        0.622076    2.394792    0.037975
     16          6           0       -2.331609   -2.197040   -0.065075
     17          1           0       -3.258352    0.408466    0.109488
     18          1           0       -2.100097   -2.743790   -0.983126
     19          1           0       -3.407534   -2.028957   -0.010764
     20          1           0       -2.028102   -2.844896    0.761834
 ---------------------------------------------------------------------

 SCF Done:  E(UB3LYP) =  -573.589283403     A.U. after   15 cycles

 The electronic state is 1-A.
 Alpha  occ. eigenvalues --  -19.15136 -19.14858 -19.13907 -10.29889 -10.29282
 Alpha  occ. eigenvalues --  -10.29190 -10.22926 -10.22787 -10.22538 -10.20893
 Alpha  occ. eigenvalues --  -10.18165 -10.17899  -1.08459  -1.07790  -1.07473
 Alpha  occ. eigenvalues --   -0.87624  -0.82337  -0.76304  -0.73700  -0.70116
 Alpha  occ. eigenvalues --   -0.65361  -0.60543  -0.56364  -0.54010  -0.51479
 Alpha  occ. eigenvalues --   -0.49602  -0.47419  -0.47116  -0.45713  -0.45344
 Alpha  occ. eigenvalues --   -0.44770  -0.43663  -0.43300  -0.41562  -0.41115
 Alpha  occ. eigenvalues --   -0.40589  -0.39836  -0.38304  -0.32014  -0.30019
 Alpha  occ. eigenvalues --   -0.29887  -0.29505  -0.27609
 Alpha virt. eigenvalues --   -0.14615  -0.07150  -0.01830  -0.00742   0.00388
 Alpha virt. eigenvalues --    0.00605   0.01106   0.02636   0.02921   0.03333
 Alpha virt. eigenvalues --    0.04400   0.04714   0.05123   0.06025   0.06405

  Beta  occ. eigenvalues --  -19.15136 -19.14858 -19.13907 -10.29889 -10.29282
  Beta  occ. eigenvalues --  -10.29190 -10.22926 -10.22787 -10.22538 -10.20893
  Beta  occ. eigenvalues --  -10.18165 -10.17899  -1.08459  -1.07790  -1.07473
  Beta  occ. eigenvalues --   -0.87624  -0.82337  -0.76304  -0.73700  -0.70116
  Beta  occ. eigenvalues --   -0.65361  -0.60543  -0.56364  -0.54010  -0.51479
  Beta  occ. eigenvalues --   -0.49602  -0.47419  -0.47116  -0.45713  -0.45344
  Beta  occ. eigenvalues --   -0.44770  -0.43663  -0.43300  -0.41562  -0.41115
  Beta  occ. eigenvalues --   -0.40589  -0.39836  -0.38304  -0.32014  -0.30019
  Beta  occ. eigenvalues --   -0.29887  -0.29505  -0.27609
  Beta virt. eigenvalues --   -0.14615  -0.07150  -0.01830  -0.00742   0.00388
  Beta virt. eigenvalues --    0.00605   0.01106   0.02636   0.02921   0.03333
  Beta virt. eigenvalues --    0.04400   0.04714   0.05123   0.06025   0.06405

 Mulliken charges and spin densities:
               1          2
     1  C   -2.433222  -0.000000
     2  C    1.529761   0.000000
     3  C   -0.548202  -0.000000
     4  C   -0.299081  -0.000000
     5  C   -0.185765   0.000000
     6  C    1.832018  -0.000000
     7  O   -0.215450   0.000000
     8  O   -0.280021   0.000000
     9  C    0.246822  -0.000000
    10  C   -0.608849   0.000000
    11  O   -0.289456   0.000000
    12  H    0.209709   0.000000
    13  H    0.184082  -0.000000
    14  H    0.183260   0.000000
    15  H    0.244706   0.000000
    16  C   -0.344131   0.000000
    17  H    0.213460  -0.000000
    18  H    0.194768   0.000000
    19  H    0.172594   0.000000
    20  H    0.192997  -0.000000
 Sum of Mulliken charges =  -0.00000  -0.00000

 Dipole moment (field-independent basis, Debye):
    X=             -1.9457    Y=             -4.0139    Z=              1.5668  Tot=              4.7278
 Quadrupole moment (field-independent basis, Debye-Ang):
   XX=            -71.4229   YY=            -83.7872   ZZ=            -68.5993
   XY=              4.6371   XZ=              5.0504   YZ=              0.1951

 Normal termination of Gaussian 16 at Sun Jan 21 07:02:28 2024.
