 Q-Chem 5.4, Q-Chem, Inc., Pleasanton, CA (2021)
 Q-Chem 5.4.0 for Intel X86 EM64T Linux

User input:
--------------------------------------------------------------
$molecule
-1 2
C                  4.6230620000      1.2924760000     -0.5372470000
C                  3.3133230000      0.6065660000     -0.2306780000
C                  3.3100140000     -0.6629140000      0.3823300000
C                  2.1239060000     -1.3245650000      0.6794950000
O                  2.1936680000     -2.5574380000      1.2764110000
C                  0.8589880000     -0.7468150000      0.3764260000
C                 -0.4126590000     -1.4376760000      0.6856810000
O                 -0.4386260000     -2.5548990000      1.2238230000
C                 -1.6525920000     -0.7193270000      0.3160100000
C                 -2.9437180000     -1.2681620000      0.5569930000
O                 -3.0704280000     -2.4967490000      1.1478500000
C                 -4.1037920000     -0.5847080000      0.2054470000
C                 -4.0196600000      0.6750850000     -0.4011650000
O                 -5.2148870000      1.2940560000     -0.7222900000
C                 -2.7965780000      1.2469220000     -0.6544460000
C                 -1.6092480000      0.5664550000     -0.3038700000
C                 -0.3499130000      1.2376540000     -0.6044070000
O                 -0.3317740000      2.3765090000     -1.1538700000
C                  0.8768670000      0.5402890000     -0.2447050000
C                  2.1012930000      1.1870240000     -0.5338890000
H                  5.2120940000      1.4584230000      0.3729890000
H                  4.4542780000      2.2630400000     -1.0091820000
H                  5.2420660000      0.6916570000     -1.2146510000
H                  4.2546670000     -1.1448330000      0.6328070000
H                  3.1285190000     -2.7597160000      1.3930710000
H                 -4.0133340000     -2.6814210000      1.2192980000
H                 -5.0803630000     -1.0197730000      0.3973310000
H                 -5.0033190000      2.1412920000     -1.1277940000
H                 -2.6940920000      2.2206820000     -1.1225620000
H                  2.0422380000      2.1608660000     -1.0052070000
$end
$rem
MAX_SCF_CYCLES=200
BASIS  =  6-311++G(d,p)
GUI  =  2
JOB_TYPE  =  SP
METHOD  =  B3LYP
SOLVENT_METHOD = PCM
$end
$pcm
theory = CPCM
$end
$solvent
dielectric 37.219
opticaldielectric 1.43
$end

--------------------------------------------------------------

             Standard Nuclear Orientation (Angstroms)
    I     Atom           X                Y                Z
 ----------------------------------------------------------------
    1      C       4.6230620000     1.2924760000    -0.5372470000
    2      C       3.3133230000     0.6065660000    -0.2306780000
    3      C       3.3100140000    -0.6629140000     0.3823300000
    4      C       2.1239060000    -1.3245650000     0.6794950000
    5      O       2.1936680000    -2.5574380000     1.2764110000
    6      C       0.8589880000    -0.7468150000     0.3764260000
    7      C      -0.4126590000    -1.4376760000     0.6856810000
    8      O      -0.4386260000    -2.5548990000     1.2238230000
    9      C      -1.6525920000    -0.7193270000     0.3160100000
   10      C      -2.9437180000    -1.2681620000     0.5569930000
   11      O      -3.0704280000    -2.4967490000     1.1478500000
   12      C      -4.1037920000    -0.5847080000     0.2054470000
   13      C      -4.0196600000     0.6750850000    -0.4011650000
   14      O      -5.2148870000     1.2940560000    -0.7222900000
   15      C      -2.7965780000     1.2469220000    -0.6544460000
   16      C      -1.6092480000     0.5664550000    -0.3038700000
   17      C      -0.3499130000     1.2376540000    -0.6044070000
   18      O      -0.3317740000     2.3765090000    -1.1538700000
   19      C       0.8768670000     0.5402890000    -0.2447050000
   20      C       2.1012930000     1.1870240000    -0.5338890000
   21      H       5.2120940000     1.4584230000     0.3729890000
   22      H       4.4542780000     2.2630400000    -1.0091820000
   23      H       5.2420660000     0.6916570000    -1.2146510000
   24      H       4.2546670000    -1.1448330000     0.6328070000
   25      H       3.1285190000    -2.7597160000     1.3930710000
   26      H      -4.0133340000    -2.6814210000     1.2192980000
   27      H      -5.0803630000    -1.0197730000     0.3973310000
   28      H      -5.0033190000     2.1412920000    -1.1277940000
   29      H      -2.6940920000     2.2206820000    -1.1225620000
   30      H       2.0422380000     2.1608660000    -1.0052070000
 ----------------------------------------------------------------

    8    -954.1686197620      7.91e-06  Convergence criterion met
 Total energy in the final basis set =     -954.1686197620

                    Orbital Energies (a.u.)
 --------------------------------------------------------------

 Alpha MOs
 -- Occupied --
-19.1550 -19.1518 -19.1486 -19.0701 -19.0695 -10.2440 -10.2376 -10.2371
-10.2334 -10.2159 -10.1805 -10.1761 -10.1727 -10.1726 -10.1714 -10.1671
-10.1629 -10.1606 -10.1591 -10.1554  -1.0657  -1.0616  -1.0612  -1.0056
 -0.9948  -0.8581  -0.8480  -0.7902  -0.7556  -0.7440  -0.7392  -0.6957
 -0.6652  -0.6423  -0.6196  -0.6022  -0.5774  -0.5623  -0.5413  -0.5027
 -0.5010  -0.4972  -0.4774  -0.4634  -0.4485  -0.4373  -0.4351  -0.4222
 -0.4165  -0.4119  -0.4089  -0.4069  -0.3989  -0.3954  -0.3902  -0.3787
 -0.3742  -0.3693  -0.3680  -0.3582  -0.3472  -0.3442  -0.3238  -0.3088
 -0.2562  -0.2414  -0.2410  -0.2323  -0.2270  -0.2267  -0.1362

 Beta MOs
 -- Occupied --
-19.1549 -19.1519 -19.1486 -19.0661 -19.0639 -10.2443 -10.2380 -10.2370
-10.2324 -10.2132 -10.1804 -10.1755 -10.1721 -10.1718 -10.1709 -10.1663
-10.1618 -10.1606 -10.1583 -10.1548  -1.0658  -1.0616  -1.0611  -0.9986
 -0.9845  -0.8556  -0.8468  -0.7870  -0.7539  -0.7418  -0.7368  -0.6940
 -0.6591  -0.6405  -0.6174  -0.6012  -0.5762  -0.5602  -0.5401  -0.5013
 -0.4997  -0.4964  -0.4745  -0.4628  -0.4473  -0.4333  -0.4320  -0.4208
 -0.4153  -0.4107  -0.4048  -0.4044  -0.3977  -0.3941  -0.3780  -0.3765
 -0.3736  -0.3686  -0.3566  -0.3516  -0.3459  -0.3430  -0.3200  -0.2975
 -0.2407  -0.2364  -0.2349  -0.2231  -0.2227  -0.2220

          Ground-State Mulliken Net Atomic Charges

     Atom                 Charge (a.u.)    Spin (a.u.)
  --------------------------------------------------------
      1 C                    -0.335164       0.002235
      2 C                     0.300100       0.007076
      3 C                    -0.210816       0.096636
      4 C                     0.025521      -0.008454
      5 O                    -0.248243      -0.000982
      6 C                    -0.017144       0.038310
      7 C                    -0.280800       0.038891
      8 O                    -0.462623       0.158044
      9 C                    -0.253790       0.021860
     10 C                     0.047461      -0.004781
     11 O                    -0.242174      -0.001522
     12 C                    -0.023234       0.069346
     13 C                    -0.854805       0.002527
     14 O                    -0.310457       0.002855
     15 C                     0.122556       0.098407
     16 C                     0.779428       0.031294
     17 C                    -0.625201       0.158593
     18 O                    -0.492338       0.218228
     19 C                     0.313280       0.019763
     20 C                    -0.373120       0.074361
     21 H                     0.170970       0.001490
     22 H                     0.173884       0.000076
     23 H                     0.171084       0.001492
     24 H                     0.174413      -0.007364
     25 H                     0.311084      -0.000329
     26 H                     0.316672      -0.000371
     27 H                     0.208058      -0.005751
     28 H                     0.322491      -0.000237
     29 H                     0.163725      -0.006390
     30 H                     0.129182      -0.005304
  --------------------------------------------------------
  Sum of atomic charges =    -1.000000

                    Cartesian Multipole Moments
 -----------------------------------------------------------------
    Charge (ESU x 10^10)
                -4.8032
    Dipole Moment (Debye)
         X       3.5024      Y       1.2370      Z      -0.5262
       Tot       3.7515
    Quadrupole Moments (Debye-Ang)
        XX     -98.9538     XY      -4.2373     YY    -144.3872
        XZ       2.4978     YZ      10.5999     ZZ    -127.3070

 Total job time:  119.00s(wall), 487.30s(cpu)
        *  Thank you very much for using Q-Chem.  Have a nice day.  *
