 Gaussian 16, Revision A.03,
 Gaussian 16:  ES64L-G16RevA.03 25-Dec-2016

 ----------------------------------------------------------------
 #P UB3LYP/6-311++G(d,p) SCRF=(PCM,Solvent=n,n-DiMethylFormamide)
 ----------------------------------------------------------------

 ------------------
 Quinone PCM in DMF
 ------------------
 Symbolic Z-matrix:
 Charge =  0 Multiplicity = 1

                         Standard orientation:
 ---------------------------------------------------------------------
 Center     Atomic      Atomic             Coordinates (Angstroms)
 Number     Number       Type             X           Y           Z
 ---------------------------------------------------------------------
      1          6           0       -2.343214    0.221029    1.268858
      2          6           0       -1.692635   -0.385607    0.000037
      3          6           0       -1.968707   -1.900549   -0.000178
      4          6           0       -2.343643    0.221415   -1.268368
      5          6           0       -0.188933   -0.091723    0.000019
      6          6           0        0.755330   -1.054611   -0.000091
      7          6           0        2.211868   -0.791428   -0.000041
      8          8           0        3.018002   -1.709635   -0.000224
      9          6           0        2.654803    0.620833    0.000204
     10          6           0        1.749721    1.604502    0.000258
     11          6           0        0.285675    1.340009   -0.000038
     12          8           0       -0.482022    2.289072   -0.000461
     13          1           0       -3.409373   -0.023038    1.280687
     14          1           0       -1.895014   -0.197988    2.174659
     15          1           0       -2.239589    1.304552    1.296315
     16          1           0       -3.048608   -2.066571    0.000063
     17          1           0       -1.560547   -2.393059    0.886783
     18          1           0       -1.560922   -2.392623   -0.887548
     19          1           0       -1.894672   -0.196195   -2.174434
     20          1           0       -3.409486   -0.023960   -1.280616
     21          1           0       -2.241210    1.305068   -1.294775
     22          1           0        0.503665   -2.107391   -0.000370
     23          1           0        3.724516    0.798152    0.000337
     24          1           0        2.021802    2.654345    0.000409
 ---------------------------------------------------------------------

 SCF Done:  E(UB3LYP) =  -538.868853005     A.U. after   14 cycles

 The electronic state is 1-A.
 Alpha  occ. eigenvalues --  -19.14448 -19.14273 -10.29055 -10.28656 -10.22046
 Alpha  occ. eigenvalues --  -10.21317 -10.21168 -10.20522 -10.20434 -10.16323
 Alpha  occ. eigenvalues --  -10.16132 -10.16131  -1.07630  -1.07204  -0.87082
 Alpha  occ. eigenvalues --   -0.83236  -0.77684  -0.71011  -0.69277  -0.69125
 Alpha  occ. eigenvalues --   -0.64484  -0.61150  -0.55694  -0.52566  -0.51115
 Alpha  occ. eigenvalues --   -0.48588  -0.47348  -0.45742  -0.44821  -0.44522
 Alpha  occ. eigenvalues --   -0.44309  -0.43024  -0.42569  -0.40386  -0.39036
 Alpha  occ. eigenvalues --   -0.38544  -0.37093  -0.36079  -0.34505  -0.34046
 Alpha  occ. eigenvalues --   -0.31321  -0.29342  -0.28981  -0.27767
 Alpha virt. eigenvalues --   -0.13647  -0.03054  -0.00714  -0.00667   0.00587
 Alpha virt. eigenvalues --    0.01186   0.01972   0.02422   0.02862   0.03795
 Alpha virt. eigenvalues --    0.03861   0.04862   0.05324   0.05458   0.06467

  Beta  occ. eigenvalues --  -19.14448 -19.14273 -10.29055 -10.28656 -10.22046
  Beta  occ. eigenvalues --  -10.21317 -10.21168 -10.20522 -10.20434 -10.16323
  Beta  occ. eigenvalues --  -10.16132 -10.16131  -1.07630  -1.07204  -0.87082
  Beta  occ. eigenvalues --   -0.83236  -0.77684  -0.71011  -0.69277  -0.69125
  Beta  occ. eigenvalues --   -0.64484  -0.61150  -0.55694  -0.52566  -0.51115
  Beta  occ. eigenvalues --   -0.48588  -0.47348  -0.45742  -0.44821  -0.44522
  Beta  occ. eigenvalues --   -0.44309  -0.43024  -0.42569  -0.40386  -0.39036
  Beta  occ. eigenvalues --   -0.38544  -0.37093  -0.36079  -0.34505  -0.34046
  Beta  occ. eigenvalues --   -0.31321  -0.29342  -0.28981  -0.27767
  Beta virt. eigenvalues --   -0.13647  -0.03054  -0.00714  -0.00667   0.00587
  Beta virt. eigenvalues --    0.01186   0.01972   0.02422   0.02862   0.03795
  Beta virt. eigenvalues --    0.03861   0.04862   0.05324   0.05458   0.06467

 Mulliken charges and spin densities:
               1          2
     1  C   -0.690284   0.000000
     2  C    0.589455  -0.000000
     3  C   -0.461404   0.000000
     4  C   -0.689994   0.000000
     5  C    1.469168  -0.000000
     6  C   -0.641067   0.000000
     7  C   -0.534082  -0.000000
     8  O   -0.289638   0.000000
     9  C    0.201089   0.000000
    10  C    0.141289   0.000000
    11  C   -1.048941  -0.000000
    12  O   -0.226513   0.000000
    13  H    0.166222  -0.000000
    14  H    0.149333  -0.000000
    15  H    0.174649  -0.000000
    16  H    0.183580   0.000000
    17  H    0.141192  -0.000000
    18  H    0.141219   0.000000
    19  H    0.149349   0.000000
    20  H    0.166245  -0.000000
    21  H    0.174601  -0.000000
    22  H    0.250716   0.000000
    23  H    0.241323   0.000000
    24  H    0.242494   0.000000
 Sum of Mulliken charges =  -0.00000  -0.00000

 Dipole moment (field-independent basis, Debye):
    X=             -1.3339    Y=              0.3013    Z=              0.0015  Tot=              1.3675
 Quadrupole moment (field-independent basis, Debye-Ang):
   XX=            -75.7653   YY=            -80.7522   ZZ=            -72.3684
   XY=             15.2807   XZ=              0.0011   YZ=              0.0026

 Normal termination of Gaussian 16 at Sun Jan 21 06:57:08 2024.
