 Gaussian 16, Revision A.03,
 Gaussian 16:  ES64L-G16RevA.03 25-Dec-2016

 --------------------------------------
 #P UB3LYP/6-311++G(d,p) nosym opt freq
 --------------------------------------

 -------
 Reduced
 -------
 Symbolic Z-matrix:
 Charge = -3 Multiplicity = 1

 SCF Done:  E(UB3LYP) =  -1462.58690354     A.U. after  101 cycles
 SCF Done:  E(UB3LYP) =  -1462.64000928     A.U. after   26 cycles
 SCF Done:  E(UB3LYP) =  -1462.67531006     A.U. after   29 cycles
 SCF Done:  E(UB3LYP) =  -1462.68405722     A.U. after   25 cycles
 SCF Done:  E(UB3LYP) =  -1462.68536024     A.U. after   26 cycles
 SCF Done:  E(UB3LYP) =  -1462.68633561     A.U. after   26 cycles
 SCF Done:  E(UB3LYP) =  -1462.68634500     A.U. after   26 cycles
 SCF Done:  E(UB3LYP) =  -1462.68644001     A.U. after   26 cycles
 SCF Done:  E(UB3LYP) =  -1462.68651335     A.U. after   24 cycles
 SCF Done:  E(UB3LYP) =  -1462.68657029     A.U. after   25 cycles
 SCF Done:  E(UB3LYP) =  -1462.68656333     A.U. after   24 cycles
 SCF Done:  E(UB3LYP) =  -1462.68653935     A.U. after   24 cycles
 SCF Done:  E(UB3LYP) =  -1462.68657204     A.U. after   24 cycles
 SCF Done:  E(UB3LYP) =  -1462.68657350     A.U. after   24 cycles
 SCF Done:  E(UB3LYP) =  -1462.68657387     A.U. after   24 cycles
 Optimization completed.
    -- Stationary point found.
 Normal termination of Gaussian 16 at Fri Dec 22 01:14:01 2023.

 ----------------------------------------------------------------------
 #P Geom=AllCheck Guess=TCheck SCRF=Check GenChk UB3LYP/6-311++G(d,p) F
 req
 ----------------------------------------------------------------------

 Structure from the checkpoint file:  "194-an.chk"
 -------
 Reduced
 -------
 Charge = -3 Multiplicity = 1

                          Input orientation:
 ---------------------------------------------------------------------
 Center     Atomic      Atomic             Coordinates (Angstroms)
 Number     Number       Type             X           Y           Z
 ---------------------------------------------------------------------
      1          6           0        5.050183   -2.893422   -0.356853
      2          6           0        5.821169   -2.044123   -1.125016
      3          6           0        5.264888   -0.821476   -1.596924
      4          6           0        3.707336   -2.591226   -0.015059
      5          6           0        3.152885   -1.337092   -0.468473
      6          6           0        3.965676   -0.492637   -1.271462
      7          6           0        2.936484   -3.515707    0.776128
      8          6           0        1.582366   -3.133973    1.112233
      9          6           0        1.039427   -1.878620    0.658267
     10          6           0        1.812937   -0.952633   -0.132974
     11          6           0        0.767652   -4.021425    1.907453
     12          6           0       -0.543258   -3.661818    2.229595
     13          6           0       -0.308142   -1.556786    1.014353
     14          6           0       -1.062028   -2.429765    1.774919
     15          8           0        3.448998   -4.642921    1.177012
     16          8           0        1.305102    0.182815   -0.538116
     17          8           0        1.296571   -5.188608    2.326128
     18          1           0        5.448903   -3.832615    0.012290
     19          1           0        6.848998   -2.302874   -1.376328
     20          1           0        5.869632   -0.153125   -2.209610
     21          1           0        2.239658   -5.187642    1.952357
     22          8           0       -0.855433   -0.372559    0.595127
     23          1           0       -2.080453   -2.173144    2.036119
     24          1           0       -0.099242    0.062155    0.068515
     25          1           0        3.518328    0.433763   -1.616467
     26         16           0       -1.660455   -4.720888    3.237524
     27          8           0       -1.831231   -6.006291    2.498572
     28          8           0       -1.020467   -4.883737    4.576028
     29          8           0       -2.940063   -3.941237    3.315633
 ---------------------------------------------------------------------

 SCF Done:  E(UB3LYP) =  -1462.68657387     A.U. after    2 cycles

 Alpha  occ. eigenvalues --  -88.70710 -18.80515 -18.79837 -18.75784 -18.75752
 Alpha  occ. eigenvalues --  -18.74955 -18.74818 -18.74814  -9.91325  -9.90701
 Alpha  occ. eigenvalues --   -9.90588  -9.90468  -9.87813  -9.87722  -9.87398
 Alpha  occ. eigenvalues --   -9.87396  -9.86342  -9.86097  -9.86058  -9.85907
 Alpha  occ. eigenvalues --   -9.85843  -9.84592  -7.76515  -5.72791  -5.72771
 Alpha  occ. eigenvalues --   -5.72712  -0.76284  -0.72376  -0.72147  -0.66632
 Alpha  occ. eigenvalues --   -0.66277  -0.62631  -0.62552  -0.55137  -0.52522
 Alpha  occ. eigenvalues --   -0.47409  -0.44937  -0.43037  -0.41103  -0.36027
 Alpha  occ. eigenvalues --   -0.33264  -0.32105  -0.28580  -0.26202  -0.25433
 Alpha  occ. eigenvalues --   -0.22739  -0.21026  -0.18642  -0.18280  -0.16197
 Alpha  occ. eigenvalues --   -0.15786  -0.14728  -0.12526  -0.11623  -0.11429
 Alpha  occ. eigenvalues --   -0.11319  -0.10626  -0.10230  -0.09763  -0.09258
 Alpha  occ. eigenvalues --   -0.07899  -0.07594  -0.07179  -0.05777  -0.04614
 Alpha  occ. eigenvalues --   -0.04013  -0.03469  -0.03285  -0.02057   0.00839
 Alpha  occ. eigenvalues --    0.01163   0.01795   0.04041   0.04138   0.04603
 Alpha  occ. eigenvalues --    0.05047   0.05493   0.06432   0.07477   0.07788
 Alpha  occ. eigenvalues --    0.08886   0.11310   0.18094
 Alpha virt. eigenvalues --    0.19662   0.21524   0.24952   0.25866   0.25919
 Alpha virt. eigenvalues --    0.26790   0.28407   0.28828   0.29807   0.30824
 Alpha virt. eigenvalues --    0.31759   0.32016   0.32184   0.32704   0.33208

  Beta  occ. eigenvalues --  -88.70710 -18.80515 -18.79837 -18.75784 -18.75752
  Beta  occ. eigenvalues --  -18.74955 -18.74818 -18.74814  -9.91325  -9.90701
  Beta  occ. eigenvalues --   -9.90588  -9.90468  -9.87813  -9.87722  -9.87398
  Beta  occ. eigenvalues --   -9.87396  -9.86342  -9.86097  -9.86058  -9.85907
  Beta  occ. eigenvalues --   -9.85843  -9.84592  -7.76515  -5.72791  -5.72771
  Beta  occ. eigenvalues --   -5.72712  -0.76284  -0.72376  -0.72147  -0.66632
  Beta  occ. eigenvalues --   -0.66277  -0.62631  -0.62552  -0.55137  -0.52522
  Beta  occ. eigenvalues --   -0.47409  -0.44937  -0.43037  -0.41103  -0.36027
  Beta  occ. eigenvalues --   -0.33264  -0.32105  -0.28580  -0.26202  -0.25433
  Beta  occ. eigenvalues --   -0.22739  -0.21026  -0.18642  -0.18280  -0.16197
  Beta  occ. eigenvalues --   -0.15786  -0.14728  -0.12526  -0.11623  -0.11429
  Beta  occ. eigenvalues --   -0.11319  -0.10626  -0.10230  -0.09763  -0.09258
  Beta  occ. eigenvalues --   -0.07899  -0.07594  -0.07179  -0.05777  -0.04614
  Beta  occ. eigenvalues --   -0.04013  -0.03469  -0.03285  -0.02057   0.00839
  Beta  occ. eigenvalues --    0.01163   0.01795   0.04041   0.04138   0.04603
  Beta  occ. eigenvalues --    0.05047   0.05493   0.06432   0.07477   0.07788
  Beta  occ. eigenvalues --    0.08886   0.11310   0.18094
  Beta virt. eigenvalues --    0.19662   0.21524   0.24952   0.25866   0.25919
  Beta virt. eigenvalues --    0.26790   0.28407   0.28828   0.29807   0.30824
  Beta virt. eigenvalues --    0.31759   0.32016   0.32184   0.32704   0.33208

 Mulliken charges and spin densities:
               1          2
     1  C   -1.006740  -0.000000
     2  C    0.916166   0.000000
     3  C    0.896026   0.000000
     4  C    0.575680   0.000000
     5  C    0.762322  -0.000000
     6  C   -0.818596  -0.000000
     7  C   -0.419957   0.000000
     8  C    0.315744   0.000000
     9  C    0.829263  -0.000000
    10  C   -0.416667  -0.000000
    11  C   -0.602823   0.000000
    12  C   -0.159755  -0.000000
    13  C   -0.433399  -0.000000
    14  C   -0.175020   0.000000
    15  O   -0.525304  -0.000000
    16  O   -0.539873   0.000000
    17  O   -0.341366  -0.000000
    18  H    0.232096  -0.000000
    19  H   -1.080998   0.000000
    20  H   -1.372645   0.000000
    21  H    0.389044   0.000000
    22  O   -0.440098   0.000000
    23  H    0.208335   0.000000
    24  H    0.356436  -0.000000
    25  H    0.232390   0.000000
    26  S    0.685403  -0.000000
    27  O   -0.350522  -0.000000
    28  O   -0.346064  -0.000000
    29  O   -0.369079  -0.000000
 Sum of Mulliken charges =  -3.00000  -0.00000

 Dipole moment (field-independent basis, Debye):
    X=            -20.4343    Y=             42.6488    Z=            -15.5776  Tot=             49.7910
 Quadrupole moment (field-independent basis, Debye-Ang):
   XX=           -367.5416   YY=           -360.2341   ZZ=           -252.3195
   XY=              3.8367   XZ=             77.0908   YZ=            108.7208

  Exact polarizability:1726.349  15.562 989.151-561.191-549.070 741.302
 Approx polarizability:5873.0431309.2671183.098****************2005.085

                      1                      2                      3
                      A                      A                      A
 Frequencies --     38.4829                41.7452                83.1256
 Red. masses --     13.1842                 9.0463                 8.3748
 Frc consts  --      0.0115                 0.0093                 0.0341
 IR Inten    --      0.4825                 7.5265                 0.1072

                      4                      5                      6
                      A                      A                      A
 Frequencies --     95.6559               118.9398               142.8497
 Red. masses --      9.3788                10.6746                 5.2365
 Frc consts  --      0.0506                 0.0890                 0.0630
 IR Inten    --      0.0184                 1.7211                 0.5390

                      7                      8                      9
                      A                      A                      A
 Frequencies --    153.1300               183.8840               206.7912
 Red. masses --     10.6553                 8.8276                 9.4014
 Frc consts  --      0.1472                 0.1759                 0.2369
 IR Inten    --      1.6974                16.3221                 3.7867

                     10                     11                     12
                      A                      A                      A
 Frequencies --    229.5155               262.1376               292.7887
 Red. masses --      7.7972                 8.8981                13.4303
 Frc consts  --      0.2420                 0.3602                 0.6783
 IR Inten    --      0.2801                 5.8103                28.8725

                     13                     14                     15
                      A                      A                      A
 Frequencies --    302.2112               340.3975               359.7859
 Red. masses --      5.9792                 7.0494                 6.4464
 Frc consts  --      0.3217                 0.4813                 0.4916
 IR Inten    --      6.1352               148.6432                33.4386

                     16                     17                     18
                      A                      A                      A
 Frequencies --    392.2177               403.4995               422.8910
 Red. masses --      9.7662                12.2170                 7.0790
 Frc consts  --      0.8852                 1.1719                 0.7459
 IR Inten    --      0.3383                10.7501                 6.9647

                     19                     20                     21
                      A                      A                      A
 Frequencies --    433.7756               443.8326               461.3273
 Red. masses --      8.7103                 3.6679                12.8337
 Frc consts  --      0.9656                 0.4257                 1.6092
 IR Inten    --      0.7259                12.9787               337.8545

                     22                     23                     24
                      A                      A                      A
 Frequencies --    481.6732               491.0993               493.4896
 Red. masses --     10.6153                 7.1472                14.2724
 Frc consts  --      1.4511                 1.0156                 2.0479
 IR Inten    --    190.6774                 3.2623                 6.7180

                     25                     26                     27
                      A                      A                      A
 Frequencies --    536.4183               542.6440               547.4849
 Red. masses --      8.4991                 7.9833                 8.6471
 Frc consts  --      1.4409                 1.3850                 1.5271
 IR Inten    --     51.5717                16.0333                85.1857

                     28                     29                     30
                      A                      A                      A
 Frequencies --    606.6756               612.8330               652.1977
 Red. masses --     13.7714                 4.6475                 6.6658
 Frc consts  --      2.9864                 1.0284                 1.6706
 IR Inten    --    609.7168                 2.1709                 3.1927

                     31                     32                     33
                      A                      A                      A
 Frequencies --    659.3923               682.9427               714.7277
 Red. masses --      7.2357                 7.3805                 7.0156
 Frc consts  --      1.8536                 2.0282                 2.1115
 IR Inten    --      5.7780               413.1790                 4.7917

                     34                     35                     36
                      A                      A                      A
 Frequencies --    729.3163               740.3189               782.1001
 Red. masses --      6.3381                 6.6337                 6.3538
 Frc consts  --      1.9863                 2.1421                 2.2899
 IR Inten    --    147.6993                 0.4791                 1.9094

                     37                     38                     39
                      A                      A                      A
 Frequencies --    782.8629               842.2985               865.3371
 Red. masses --      7.6465                 1.4667                 1.5107
 Frc consts  --      2.7611                 0.6131                 0.6665
 IR Inten    --     12.4023                38.5320                49.0955

                     40                     41                     42
                      A                      A                      A
 Frequencies --    872.9264               890.8097               907.9432
 Red. masses --      1.3701                 8.5317                 8.1674
 Frc consts  --      0.6151                 3.9889                 3.9669
 IR Inten    --     31.0672               111.2511               216.1814

                     43                     44                     45
                      A                      A                      A
 Frequencies --    944.5018               955.0865               979.1896
 Red. masses --      1.0531                12.9054                 1.2158
 Frc consts  --      0.5535                 6.9360                 0.6868
 IR Inten    --     59.9018              1259.9179                14.9974

                     46                     47                     48
                      A                      A                      A
 Frequencies --    982.7218               995.3185              1010.6392
 Red. masses --      1.0536                 6.8051                 2.2813
 Frc consts  --      0.5995                 3.9720                 1.3728
 IR Inten    --     64.7541               415.2554               318.1726

                     49                     50                     51
                      A                      A                      A
 Frequencies --   1044.1370              1087.5935              1095.5052
 Red. masses --      1.2561                 4.2688                 2.4293
 Frc consts  --      0.8069                 2.9750                 1.7177
 IR Inten    --    759.3416               169.7738                60.1239

                     52                     53                     54
                      A                      A                      A
 Frequencies --   1109.6153              1134.6824              1136.5141
 Red. masses --     11.9612                20.6292                 1.2988
 Frc consts  --      8.6770                15.6488                 0.9884
 IR Inten    --    152.9517               343.8050               198.8759

                     55                     56                     57
                      A                      A                      A
 Frequencies --   1173.6702              1202.5139              1234.5915
 Red. masses --      1.8310                 1.8701                 4.8552
 Frc consts  --      1.4860                 1.5933                 4.3601
 IR Inten    --    198.2100                 9.2396               239.6574

                     58                     59                     60
                      A                      A                      A
 Frequencies --   1252.1034              1267.9351              1286.9048
 Red. masses --      2.9723                 3.9236                 7.0414
 Frc consts  --      2.7455                 3.7164                 6.8707
 IR Inten    --    507.1035              1608.7341              1237.5864

                     61                     62                     63
                      A                      A                      A
 Frequencies --   1302.4606              1327.4105              1356.3547
 Red. masses --      8.0038                 4.0349                 6.3467
 Frc consts  --      7.9997                 4.1889                 6.8794
 IR Inten    --   2579.1531               139.8748                43.2569

                     64                     65                     66
                      A                      A                      A
 Frequencies --   1387.3755              1413.7105              1463.6807
 Red. masses --      2.8541                 9.2802                 4.9675
 Frc consts  --      3.2368                10.9277                 6.2701
 IR Inten    --    131.1340               507.5348               498.1757

                     67                     68                     69
                      A                      A                      A
 Frequencies --   1468.5105              1480.8489              1519.5970
 Red. masses --      2.9583                 3.9300                 3.7509
 Frc consts  --      3.7588                 5.0777                 5.1032
 IR Inten    --    738.3601                34.3189               267.0414

                     70                     71                     72
                      A                      A                      A
 Frequencies --   1534.7995              1570.2505              1587.8900
 Red. masses --      4.8083                 5.4088                 5.0676
 Frc consts  --      6.6734                 7.8576                 7.5282
 IR Inten    --     47.7783              3845.8346                95.0244

                     73                     74                     75
                      A                      A                      A
 Frequencies --   1647.0412              1670.7589              2741.8823
 Red. masses --      1.3660                 1.7230                 1.0793
 Frc consts  --      2.1833                 2.8337                 4.7805
 IR Inten    --    116.0912                34.7571               721.7015

                     76                     77                     78
                      A                      A                      A
 Frequencies --   2805.7809              3089.5970              3114.7619
 Red. masses --      1.0795                 1.0852                 1.0912
 Frc consts  --      5.0069                 6.1030                 6.2374
 IR Inten    --   1125.9983              1257.5047               117.2799

                     79                     80                     81
                      A                      A                      A
 Frequencies --   3162.3907              3164.4772              3198.3759
 Red. masses --      1.0904                 1.0908                 1.0885
 Frc consts  --      6.4246                 6.4355                 6.5607
 IR Inten    --      2.6726                43.3315                 9.4937

 - Thermochemistry -
 -------------------
 Temperature   298.150 Kelvin.  Pressure   1.00000 Atm.
 Atom     1 has atomic number  6 and mass  12.00000

 Molecular mass:   318.99125 amu.
 Principal axes and moments of inertia in atomic units:
                           1         2         3
     Eigenvalues --  3072.24149********************
           X            0.75505  -0.56773   0.32800
           Y            0.40614   0.79769   0.44579
           Z           -0.51473  -0.20338   0.83288
 This molecule is an asymmetric top.
 Rotational symmetry number  1.
 Warning -- assumption of classical behavior for rotation
           may cause significant error
 Rotational temperatures (Kelvin)      0.02819     0.00778     0.00625
 Rotational constants (GHZ):           0.58743     0.16212     0.13032
 Zero-point vibrational energy     488947.6 (Joules/Mol)
                                  116.86128 (Kcal/Mol)
 Warning -- explicit consideration of  29 degrees of freedom as
           vibrations may cause significant error
 Vibrational temperatures:     55.37    60.06   119.60   137.63   171.13
          (Kelvin)            205.53   220.32   264.57   297.53   330.22
                              377.16   421.26   434.81   489.76   517.65
                              564.31   580.55   608.45   624.11   638.58
                              663.75   693.02   706.58   710.02   771.79
                              780.74   787.71   872.87   881.73   938.37
                              948.72   982.60  1028.33  1049.32  1065.15
                             1125.27  1126.37  1211.88  1245.03  1255.95
                             1281.68  1306.33  1358.93  1374.16  1408.84
                             1413.92  1432.04  1454.08  1502.28  1564.80
                             1576.19  1596.49  1632.55  1635.19  1688.65
                             1730.15  1776.30  1801.50  1824.28  1851.57
                             1873.95  1909.85  1951.49  1996.12  2034.01
                             2105.91  2112.86  2130.61  2186.36  2208.23
                             2259.24  2284.62  2369.72  2403.85  3944.96
                             4036.89  4445.24  4481.45  4549.97  4552.98
                             4601.75

 Zero-point correction=                           0.186230 (Hartree/Particle)
 Thermal correction to Energy=                    0.202987
 Thermal correction to Enthalpy=                  0.203931
 Thermal correction to Gibbs Free Energy=         0.141445
 Sum of electronic and zero-point Energies=          -1462.500344
 Sum of electronic and thermal Energies=             -1462.483587
 Sum of electronic and thermal Enthalpies=           -1462.482643
 Sum of electronic and thermal Free Energies=        -1462.545129

                     E (Thermal)             CV                S
                      KCal/Mol        Cal/Mol-Kelvin    Cal/Mol-Kelvin
 Total                  127.376             66.566            131.514
 Electronic               0.000              0.000              0.000
 Translational            0.889              2.981             43.176
 Rotational               0.889              2.981             34.515
 Vibrational            125.599             60.605             53.824
 Vibration     1          0.594              1.982              5.336
 Vibration     2          0.594              1.980              5.174
 Vibration     3          0.600              1.961              3.816
 Vibration     4          0.603              1.952              3.541
 Vibration     5          0.609              1.934              3.118
 Vibration     6          0.616              1.910              2.765
 Vibration     7          0.619              1.899              2.633
 Vibration     8          0.631              1.862              2.289
 Vibration     9          0.641              1.830              2.072
 Vibration    10          0.652              1.796              1.883
 Vibration    11          0.669              1.742              1.647
 Vibration    12          0.688              1.687              1.458
 Vibration    13          0.694              1.670              1.405
 Vibration    14          0.720              1.595              1.210
 Vibration    15          0.734              1.555              1.123
 Vibration    16          0.760              1.487              0.992
 Vibration    17          0.769              1.463              0.950
 Vibration    18          0.785              1.420              0.882
 Vibration    19          0.795              1.397              0.846
 Vibration    20          0.803              1.374              0.815
 Vibration    21          0.819              1.336              0.762
 Vibration    22          0.838              1.291              0.706
 Vibration    23          0.847              1.270              0.681
 Vibration    24          0.849              1.264              0.675
 Vibration    25          0.891              1.169              0.573
 Vibration    26          0.898              1.156              0.560
 Vibration    27          0.903              1.145              0.549
 Vibration    28          0.965              1.018              0.438
 Vibration    29          0.972              1.005              0.428

 Optimization completed.
    -- Stationary point found.
 Normal termination of Gaussian 16 at Fri Dec 22 02:15:46 2023.
