 Gaussian 16, Revision A.03,
 Gaussian 16:  ES64L-G16RevA.03 25-Dec-2016

 ----------------------------------------------------------------------
 #P UB3LYP/6-311++G(d,p) nosym opt freq SCRF=(PCM,Solvent=n,n-DiMethylF
 ormamide)
 ----------------------------------------------------------------------

 -------
 Radical
 -------
 Symbolic Z-matrix:
 Charge = -1 Multiplicity = 2

 SCF Done:  E(UB3LYP) =  -1204.08847405     A.U. after   20 cycles
 SCF Done:  E(UB3LYP) =  -1204.08869589     A.U. after   16 cycles
 SCF Done:  E(UB3LYP) =  -1204.08879187     A.U. after   16 cycles
 SCF Done:  E(UB3LYP) =  -1204.08882197     A.U. after   15 cycles
 SCF Done:  E(UB3LYP) =  -1204.08883476     A.U. after   13 cycles
 SCF Done:  E(UB3LYP) =  -1204.08884207     A.U. after   14 cycles
 SCF Done:  E(UB3LYP) =  -1204.08884502     A.U. after   12 cycles
 SCF Done:  E(UB3LYP) =  -1204.08884586     A.U. after   12 cycles
 SCF Done:  E(UB3LYP) =  -1204.08884620     A.U. after   10 cycles
 SCF Done:  E(UB3LYP) =  -1204.08884632     A.U. after   10 cycles
 Optimization completed.
    -- Stationary point found.
 Normal termination of Gaussian 16 at Sat Feb 10 16:58:53 2024.

 ----------------------------------------------------------------------
 #P Geom=AllCheck Guess=TCheck SCRF=Check GenChk UB3LYP/6-311++G(d,p) F
 req
 ----------------------------------------------------------------------

 Structure from the checkpoint file:  "153-rad.chk"
 -------
 Radical
 -------
 Charge = -1 Multiplicity = 2

                          Input orientation:
 ---------------------------------------------------------------------
 Center     Atomic      Atomic             Coordinates (Angstroms)
 Number     Number       Type             X           Y           Z
 ---------------------------------------------------------------------
      1          7           0       -2.802340   -2.044985    0.398047
      2          6           0       -2.487052   -0.718777    0.204208
      3          6           0       -3.525928    0.211492    0.063684
      4          6           0       -3.261531    1.557041   -0.199222
      5          6           0       -1.958843    2.003618   -0.328197
      6          6           0       -0.882506    1.105189   -0.184408
      7          6           0        0.472134    1.626075   -0.317806
      8          8           0        0.688003    2.851581   -0.546711
      9          6           0        1.576510    0.681642   -0.185639
     10          6           0        2.886084    1.183144   -0.347506
     11          6           0        3.983660    0.359849   -0.246699
     12          6           0        3.799306   -1.008114    0.015166
     13          6           0        2.525365   -1.517677    0.180374
     14         17           0        2.488893   -3.270184    0.471713
     15          6           0        1.355627   -0.708658    0.098162
     16          6           0       -0.012301   -1.210880    0.293487
     17          8           0       -0.220550   -2.411825    0.637398
     18          6           0       -1.119103   -0.277705    0.093356
     19          1           0       -3.731672   -2.255802    0.728099
     20          1           0       -2.029871   -2.629195    0.702683
     21          1           0       -4.550270   -0.135879    0.153914
     22          1           0       -4.089305    2.250870   -0.304222
     23          1           0       -1.737723    3.041751   -0.536570
     24          1           0        2.995522    2.239408   -0.555436
     25          1           0        4.986985    0.750485   -0.372633
     26          1           0        4.650910   -1.672465    0.084757
 ---------------------------------------------------------------------

 SCF Done:  E(UB3LYP) =  -1204.08884632     A.U. after    2 cycles

 Alpha  occ. eigenvalues -- -101.54571 -19.07782 -19.07268 -14.30728 -10.23865
 Alpha  occ. eigenvalues --  -10.23501 -10.22207 -10.21907 -10.19018 -10.18025
 Alpha  occ. eigenvalues --  -10.17928 -10.17776 -10.17527 -10.17240 -10.17182
 Alpha  occ. eigenvalues --  -10.17110 -10.16246 -10.15704  -9.46053  -7.22504
 Alpha  occ. eigenvalues --   -7.21576  -7.21466  -1.00794  -0.99675  -0.91572
 Alpha  occ. eigenvalues --   -0.88576  -0.84328  -0.83092  -0.78679  -0.74413
 Alpha  occ. eigenvalues --   -0.73868  -0.72806  -0.66817  -0.63947  -0.62730
 Alpha  occ. eigenvalues --   -0.58351  -0.56076  -0.54707  -0.52634  -0.50236
 Alpha  occ. eigenvalues --   -0.48020  -0.47597  -0.46800  -0.44799  -0.44430
 Alpha  occ. eigenvalues --   -0.43033  -0.42879  -0.41709  -0.41002  -0.39845
 Alpha  occ. eigenvalues --   -0.38929  -0.38413  -0.37992  -0.36362  -0.35722
 Alpha  occ. eigenvalues --   -0.34938  -0.34542  -0.32910  -0.31373  -0.30938
 Alpha  occ. eigenvalues --   -0.27101  -0.25222  -0.25114  -0.24423  -0.23404
 Alpha  occ. eigenvalues --   -0.21104  -0.14106
 Alpha virt. eigenvalues --   -0.05270  -0.02558  -0.00225   0.00089   0.00407
 Alpha virt. eigenvalues --    0.00770   0.01450   0.02157   0.02935   0.03944
 Alpha virt. eigenvalues --    0.04282   0.04353   0.05056   0.05208   0.05643

  Beta  occ. eigenvalues -- -101.54569 -19.07275 -19.06714 -14.30712 -10.23875
  Beta  occ. eigenvalues --  -10.23348 -10.22011 -10.21920 -10.18915 -10.17956
  Beta  occ. eigenvalues --  -10.17840 -10.17726 -10.17511 -10.17186 -10.17172
  Beta  occ. eigenvalues --  -10.17093 -10.16137 -10.15646  -9.46051  -7.22504
  Beta  occ. eigenvalues --   -7.21570  -7.21466  -0.99930  -0.98688  -0.91504
  Beta  occ. eigenvalues --   -0.88448  -0.84105  -0.82995  -0.78308  -0.74230
  Beta  occ. eigenvalues --   -0.73590  -0.72623  -0.66127  -0.63760  -0.62497
  Beta  occ. eigenvalues --   -0.58262  -0.55874  -0.54487  -0.52500  -0.50152
  Beta  occ. eigenvalues --   -0.47810  -0.47381  -0.46684  -0.44690  -0.44308
  Beta  occ. eigenvalues --   -0.42993  -0.41865  -0.41542  -0.40499  -0.39623
  Beta  occ. eigenvalues --   -0.38676  -0.37872  -0.36532  -0.36253  -0.34815
  Beta  occ. eigenvalues --   -0.34719  -0.34199  -0.32510  -0.31300  -0.30243
  Beta  occ. eigenvalues --   -0.25277  -0.24671  -0.24324  -0.23937  -0.22953
  Beta  occ. eigenvalues --   -0.20318
  Beta virt. eigenvalues --   -0.08449  -0.04298  -0.01514  -0.00210   0.00373
  Beta virt. eigenvalues --    0.00471   0.00780   0.01458   0.02165   0.02948
  Beta virt. eigenvalues --    0.03975   0.04362   0.04442   0.05185   0.05738

 Mulliken charges and spin densities:
               1          2
     1  N   -0.401093   0.006644
     2  C    0.198110   0.021003
     3  C   -0.228034   0.095184
     4  C   -0.399528   0.014424
     5  C   -0.042536   0.077305
     6  C    0.235056   0.000949
     7  C   -0.765492   0.105257
     8  O   -0.458573   0.208603
     9  C    0.156615   0.016934
    10  C    0.285353   0.032818
    11  C   -0.691925   0.034555
    12  C   -0.173913   0.060291
    13  C    1.065349   0.019681
    14  Cl   0.309336   0.000521
    15  C   -0.032434   0.072010
    16  C   -1.506275   0.065081
    17  O   -0.350750   0.183545
    18  C    0.161962   0.010575
    19  H    0.269887  -0.000557
    20  H    0.314339  -0.002845
    21  H    0.159335  -0.006564
    22  H    0.183030  -0.001403
    23  H    0.154782  -0.004624
    24  H    0.172132  -0.002025
    25  H    0.183720  -0.003161
    26  H    0.201547  -0.004202
 Sum of Mulliken charges =  -1.00000   1.00000

 Dipole moment (field-independent basis, Debye):
    X=             -2.5489    Y=             -0.7626    Z=              0.6869  Tot=              2.7478
 Quadrupole moment (field-independent basis, Debye-Ang):
   XX=           -105.0659   YY=           -149.4950   ZZ=           -119.4031
   XY=              4.2110   XZ=             -3.8265   YZ=              4.2241

  Exact polarizability: 492.747 -15.910 398.503  -9.628 -47.854 152.593
 Approx polarizability: 504.422  -4.158 469.508 -11.637 -58.689 175.945

                      1                      2                      3
                      A                      A                      A
 Frequencies --     22.1259                49.9161                86.8317
 Red. masses --     10.2505                 6.7686                 7.0773
 Frc consts  --      0.0030                 0.0099                 0.0314
 IR Inten    --      4.0031                10.4406                 0.7055

                      4                      5                      6
                      A                      A                      A
 Frequencies --    161.6205               172.2142               188.1490
 Red. masses --      6.8924                10.1226                 4.3541
 Frc consts  --      0.1061                 0.1769                 0.0908
 IR Inten    --      1.6356                 9.6012                 0.3583

                      7                      8                      9
                      A                      A                      A
 Frequencies --    219.3663               264.7573               276.0266
 Red. masses --      4.6749                 5.3388                 5.7014
 Frc consts  --      0.1325                 0.2205                 0.2559
 IR Inten    --      4.4358                17.5593                 5.1754

                     10                     11                     12
                      A                      A                      A
 Frequencies --    341.8737               345.4783               376.4854
 Red. masses --      5.2809                 8.8390                 1.5242
 Frc consts  --      0.3637                 0.6216                 0.1273
 IR Inten    --     17.7532                16.7378               327.7548

                     13                     14                     15
                      A                      A                      A
 Frequencies --    400.9514               409.1297               417.3325
 Red. masses --      6.5270                 5.5906                 6.0789
 Frc consts  --      0.6182                 0.5514                 0.6238
 IR Inten    --      5.4552                 9.3851                 2.9756

                     16                     17                     18
                      A                      A                      A
 Frequencies --    431.2323               464.3870               497.7094
 Red. masses --      6.1071                 5.6673                 4.9724
 Frc consts  --      0.6691                 0.7201                 0.7257
 IR Inten    --     95.0113                13.5435                 1.4239

                     19                     20                     21
                      A                      A                      A
 Frequencies --    500.1406               509.5375               560.2940
 Red. masses --      5.2848                 4.9957                 5.6424
 Frc consts  --      0.7789                 0.7642                 1.0436
 IR Inten    --      9.2931                 8.7458                 2.5109

                     22                     23                     24
                      A                      A                      A
 Frequencies --    578.6532               613.8091               640.7858
 Red. masses --      4.4225                 4.8889                 1.3340
 Frc consts  --      0.8725                 1.0853                 0.3227
 IR Inten    --      7.3073                86.3858               105.1115

                     25                     26                     27
                      A                      A                      A
 Frequencies --    644.3703               695.1510               722.5562
 Red. masses --      3.4828                 6.8186                 2.7621
 Frc consts  --      0.8520                 1.9414                 0.8496
 IR Inten    --     13.0006                21.9063                28.6903

                     28                     29                     30
                      A                      A                      A
 Frequencies --    734.5475               740.2421               777.8621
 Red. masses --      2.7604                 7.2243                 2.3569
 Frc consts  --      0.8775                 2.3323                 0.8402
 IR Inten    --     85.7151                87.4046                33.8198

                     31                     32                     33
                      A                      A                      A
 Frequencies --    792.8447               797.2217               817.7258
 Red. masses --      1.8072                 5.3217                 3.8933
 Frc consts  --      0.6693                 1.9928                 1.5338
 IR Inten    --      6.5831                14.9505                51.3229

                     34                     35                     36
                      A                      A                      A
 Frequencies --    873.9077               908.5019               911.8768
 Red. masses --      1.4782                 7.8036                 1.3943
 Frc consts  --      0.6651                 3.7949                 0.6831
 IR Inten    --      0.1799               117.5661                 0.4188

                     37                     38                     39
                      A                      A                      A
 Frequencies --    922.7530               978.1466               995.1539
 Red. masses --      6.5081                 1.2919                 1.3131
 Frc consts  --      3.2649                 0.7283                 0.7662
 IR Inten    --     11.4711                 0.5569                 1.3861

                     40                     41                     42
                      A                      A                      A
 Frequencies --   1025.0930              1068.8117              1089.0648
 Red. masses --      3.1902                 2.2823                 2.1038
 Frc consts  --      1.9751                 1.5361                 1.4702
 IR Inten    --      9.6428                90.0662                35.3748

                     43                     44                     45
                      A                      A                      A
 Frequencies --   1121.1221              1142.1529              1159.3587
 Red. masses --      3.0130                 1.4889                 1.6449
 Frc consts  --      2.2313                 1.1444                 1.3026
 IR Inten    --     12.0255               110.2791                83.0821

                     46                     47                     48
                      A                      A                      A
 Frequencies --   1174.3345              1186.9500              1227.1467
 Red. masses --      1.8376                 1.5657                 2.8925
 Frc consts  --      1.4931                 1.2996                 2.5664
 IR Inten    --     10.4130                27.0702                 3.3309

                     49                     50                     51
                      A                      A                      A
 Frequencies --   1233.8006              1311.3377              1326.8234
 Red. masses --      2.5370                 2.6986                 7.6629
 Frc consts  --      2.2755                 2.7341                 7.9482
 IR Inten    --    260.5843                 4.5030                29.2728

                     52                     53                     54
                      A                      A                      A
 Frequencies --   1355.1534              1361.1791              1389.9870
 Red. masses --      6.1291                 3.6770                 3.5205
 Frc consts  --      6.6317                 4.0139                 4.0075
 IR Inten    --    137.1658                20.9789               918.4689

                     55                     56                     57
                      A                      A                      A
 Frequencies --   1429.5860              1449.3842              1472.3677
 Red. masses --      2.5795                 3.8372                 3.1454
 Frc consts  --      3.1061                 4.7493                 4.0176
 IR Inten    --    309.2125                29.2537               114.7545

                     58                     59                     60
                      A                      A                      A
 Frequencies --   1499.1330              1512.7241              1553.3583
 Red. masses --      5.1934                 3.8335                 3.9341
 Frc consts  --      6.8768                 5.1685                 5.5930
 IR Inten    --   1447.9616               328.9815               156.4191

                     61                     62                     63
                      A                      A                      A
 Frequencies --   1585.9628              1599.3879              1609.5028
 Red. masses --      1.4576                 6.0171                 6.5668
 Frc consts  --      2.1602                 9.0687                10.0228
 IR Inten    --    239.3249               108.8841               200.0136

                     64                     65                     66
                      A                      A                      A
 Frequencies --   1613.8364              3150.8067              3167.7470
 Red. masses --      6.0430                 1.0866                 1.0930
 Frc consts  --      9.2730                 6.3554                 6.4622
 IR Inten    --      5.8050                31.8013                48.0565

                     67                     68                     69
                      A                      A                      A
 Frequencies --   3173.4580              3196.8568              3202.1198
 Red. masses --      1.0878                 1.0914                 1.0933
 Frc consts  --      6.4543                 6.5715                 6.6051
 IR Inten    --     19.1046                 3.4036                35.8913

                     70                     71                     72
                      A                      A                      A
 Frequencies --   3202.6748              3458.0075              3650.5540
 Red. masses --      1.0933                 1.0559                 1.0938
 Frc consts  --      6.6073                 7.4391                 8.5880
 IR Inten    --      5.4052               171.1991               105.1761

 - Thermochemistry -
 -------------------
 Temperature   298.150 Kelvin.  Pressure   1.00000 Atm.
 Atom     1 has atomic number  7 and mass  14.00307

 Molecular mass:   257.02436 amu.
 Principal axes and moments of inertia in atomic units:
                           1         2         3
     Eigenvalues --  2873.894315478.255268346.20863
           X            0.92965   0.36646   0.03814
           Y           -0.36692   0.91141   0.18628
           Z            0.03350  -0.18717   0.98176
 This molecule is an asymmetric top.
 Rotational symmetry number  1.
 Warning -- assumption of classical behavior for rotation
           may cause significant error
 Rotational temperatures (Kelvin)      0.03014     0.01581     0.01038
 Rotational constants (GHZ):           0.62798     0.32944     0.21623
 Zero-point vibrational energy     481744.9 (Joules/Mol)
                                  115.13979 (Kcal/Mol)
 Warning -- explicit consideration of  23 degrees of freedom as
           vibrations may cause significant error
 Vibrational temperatures:     31.83    71.82   124.93   232.54   247.78
          (Kelvin)            270.70   315.62   380.93   397.14   491.88
                              497.07   541.68   576.88   588.65   600.45
                              620.45   668.15   716.09   719.59   733.11
                              806.14   832.55   883.13   921.95   927.11
                             1000.17  1039.60  1056.85  1065.04  1119.17
                             1140.73  1147.02  1176.53  1257.36  1307.13
                             1311.99  1327.64  1407.33  1431.80  1474.88
                             1537.78  1566.92  1613.04  1643.30  1668.06
                             1689.61  1707.76  1765.59  1775.16  1886.72
                             1909.00  1949.76  1958.43  1999.88  2056.86
                             2085.34  2118.41  2156.92  2176.47  2234.94
                             2281.85  2301.16  2315.72  2321.95  4533.31
                             4557.68  4565.90  4599.56  4607.14  4607.93
                             4975.30  5252.33

 Zero-point correction=                           0.183487 (Hartree/Particle)
 Thermal correction to Energy=                    0.197352
 Thermal correction to Enthalpy=                  0.198297
 Thermal correction to Gibbs Free Energy=         0.141306
 Sum of electronic and zero-point Energies=          -1203.905359
 Sum of electronic and thermal Energies=             -1203.891494
 Sum of electronic and thermal Enthalpies=           -1203.890550
 Sum of electronic and thermal Free Energies=        -1203.947540

                     E (Thermal)             CV                S
                      KCal/Mol        Cal/Mol-Kelvin    Cal/Mol-Kelvin
 Total                  123.841             55.716            119.947
 Electronic               0.000              0.000              1.377
 Translational            0.889              2.981             42.532
 Rotational               0.889              2.981             33.241
 Vibrational            122.063             49.755             42.797
 Vibration     1          0.593              1.985              6.434
 Vibration     2          0.595              1.978              4.821
 Vibration     3          0.601              1.958              3.730
 Vibration     4          0.622              1.889              2.531
 Vibration     5          0.626              1.877              2.411
 Vibration     6          0.633              1.856              2.246
 Vibration     7          0.647              1.812              1.964
 Vibration     8          0.671              1.738              1.630
 Vibration     9          0.678              1.718              1.558
 Vibration    10          0.721              1.592              1.203
 Vibration    11          0.724              1.584              1.187
 Vibration    12          0.747              1.520              1.053
 Vibration    13          0.767              1.468              0.959
 Vibration    14          0.773              1.450              0.930
 Vibration    15          0.780              1.433              0.901
 Vibration    16          0.792              1.402              0.855
 Vibration    17          0.822              1.329              0.753
 Vibration    18          0.853              1.255              0.664
 Vibration    19          0.856              1.250              0.658
 Vibration    20          0.865              1.229              0.635
 Vibration    21          0.916              1.117              0.523
 Vibration    22          0.935              1.077              0.488
 Vibration    23          0.973              1.003              0.427

                           ! Non-Optimized Parameters !
 Normal termination of Gaussian 16 at Sat Feb 10 17:50:38 2024.
