 Q-Chem 5.4, Q-Chem, Inc., Pleasanton, CA (2021)
 Q-Chem 5.4.0 for Intel X86 EM64T Linux

User input:
--------------------------------------------------------------
$molecule
0 1
C                 -1.2775970000      2.8579960000      0.2260640000
C                 -2.6091920000      2.4264950000      0.1863820000
C                 -2.9171070000      1.0944790000     -0.0199490000
C                 -0.2353800000      1.9261160000      0.0304250000
C                 -0.5718930000      0.5671870000     -0.1923610000
C                 -1.9063220000      0.1462520000     -0.1920500000
C                  1.1989330000      2.3388320000      0.0774380000
C                  2.2221110000      1.2777170000     -0.1108080000
C                  1.9077170000      0.0051310000     -0.3727860000
C                  0.5043760000     -0.4267690000     -0.5114320000
O                  1.5692190000      3.4839650000      0.2697460000
O                  0.2416270000     -1.5510060000     -0.9055500000
O                 -0.9850730000      4.1589000000      0.4416310000
H                 -3.9532170000      0.7784180000     -0.0465200000
H                  2.6556470000     -0.7625530000     -0.5376460000
C                 -2.3442760000     -1.2817730000     -0.3773390000
O                 -2.9939540000     -1.6638950000     -1.3186950000
O                 -2.0357290000     -2.0330310000      0.6920020000
C                 -2.3521230000     -3.4349580000      0.5845570000
H                 -3.4055400000      3.1520570000      0.3238480000
H                  3.2482710000      1.6208140000     -0.0366370000
H                 -1.8034780000      4.6576110000      0.5483290000
H                 -2.0609630000     -3.8706830000      1.5375360000
H                 -1.7818750000     -3.8788280000     -0.2324520000
H                 -3.4186320000     -3.5746140000      0.4048580000
$end
$rem
MAX_SCF_CYCLES=200
BASIS  =  6-311++G(d,p)
GUI  =  2
JOB_TYPE  =  SP
METHOD  =  B3LYP
SOLVENT_METHOD = PCM
$end
$pcm
theory = CPCM
$end
$solvent
dielectric 37.219
opticaldielectric 1.43
$end

--------------------------------------------------------------

             Standard Nuclear Orientation (Angstroms)
    I     Atom           X                Y                Z
 ----------------------------------------------------------------
    1      C      -1.2775970000     2.8579960000     0.2260640000
    2      C      -2.6091920000     2.4264950000     0.1863820000
    3      C      -2.9171070000     1.0944790000    -0.0199490000
    4      C      -0.2353800000     1.9261160000     0.0304250000
    5      C      -0.5718930000     0.5671870000    -0.1923610000
    6      C      -1.9063220000     0.1462520000    -0.1920500000
    7      C       1.1989330000     2.3388320000     0.0774380000
    8      C       2.2221110000     1.2777170000    -0.1108080000
    9      C       1.9077170000     0.0051310000    -0.3727860000
   10      C       0.5043760000    -0.4267690000    -0.5114320000
   11      O       1.5692190000     3.4839650000     0.2697460000
   12      O       0.2416270000    -1.5510060000    -0.9055500000
   13      O      -0.9850730000     4.1589000000     0.4416310000
   14      H      -3.9532170000     0.7784180000    -0.0465200000
   15      H       2.6556470000    -0.7625530000    -0.5376460000
   16      C      -2.3442760000    -1.2817730000    -0.3773390000
   17      O      -2.9939540000    -1.6638950000    -1.3186950000
   18      O      -2.0357290000    -2.0330310000     0.6920020000
   19      C      -2.3521230000    -3.4349580000     0.5845570000
   20      H      -3.4055400000     3.1520570000     0.3238480000
   21      H       3.2482710000     1.6208140000    -0.0366370000
   22      H      -1.8034780000     4.6576110000     0.5483290000
   23      H      -2.0609630000    -3.8706830000     1.5375360000
   24      H      -1.7818750000    -3.8788280000    -0.2324520000
   25      H      -3.4186320000    -3.5746140000     0.4048580000
 ----------------------------------------------------------------

    8    -838.4588463064      9.30e-06  Convergence criterion met
 Total energy in the final basis set =     -838.4588463064

                    Orbital Energies (a.u.)
 --------------------------------------------------------------

 Alpha MOs
 -- Occupied --
-19.1806 -19.1774 -19.1427 -19.1353 -19.1316 -10.3243 -10.2910 -10.2882
-10.2757 -10.2249 -10.2232 -10.2179 -10.2172 -10.2122 -10.2106 -10.2103
-10.2035  -1.1253  -1.0955  -1.0766  -1.0686  -1.0411  -0.8992  -0.8457
 -0.7977  -0.7871  -0.7379  -0.7058  -0.6715  -0.6567  -0.6206  -0.5939
 -0.5654  -0.5487  -0.5321  -0.5187  -0.5020  -0.4977  -0.4952  -0.4828
 -0.4658  -0.4642  -0.4533  -0.4381  -0.4349  -0.4330  -0.4191  -0.4167
 -0.4091  -0.3981  -0.3873  -0.3707  -0.3683  -0.3232  -0.3121  -0.3060
 -0.2923  -0.2898  -0.2775  -0.2589

          Ground-State Mulliken Net Atomic Charges

     Atom                 Charge (a.u.)
  ----------------------------------------
      1 C                     0.155000
      2 C                     0.013825
      3 C                    -0.316288
      4 C                    -0.023133
      5 C                     0.698354
      6 C                     0.673994
      7 C                    -0.345540
      8 C                    -0.176455
      9 C                    -0.168233
     10 C                    -0.595223
     11 O                    -0.303830
     12 O                    -0.248094
     13 O                    -0.226630
     14 H                     0.236591
     15 H                     0.255588
     16 C                    -0.476456
     17 O                    -0.255197
     18 O                    -0.000217
     19 C                    -0.270411
     20 H                     0.226585
     21 H                     0.250988
     22 H                     0.332159
     23 H                     0.184798
     24 H                     0.195591
     25 H                     0.182235
  ----------------------------------------
  Sum of atomic charges =     0.000000

                    Cartesian Multipole Moments
 -----------------------------------------------------------------
    Charge (ESU x 10^10)
                 0.0000
    Dipole Moment (Debye)
         X      -2.5167      Y       1.1877      Z       2.9622
       Tot       4.0644
    Quadrupole Moments (Debye-Ang)
        XX     -80.8420     XY     -22.4122     YY     -94.0375
        XZ     -10.9979     YZ      -7.2040     ZZ    -103.1871

 Total job time:  54.18s(wall), 269.03s(cpu)
        *  Thank you very much for using Q-Chem.  Have a nice day.  *
