 Q-Chem 5.4, Q-Chem, Inc., Pleasanton, CA (2021)
 Q-Chem 5.4.0 for Intel X86 EM64T Linux

User input:
--------------------------------------------------------------
$molecule
-2 1
C                  2.0816210000      3.8669450000      5.6660830000
C                  2.8607810000      3.2965410000      4.5805810000
C                  2.3769870000      2.3770130000      3.6805780000
C                  1.0218560000      1.8651400000      3.7087240000
C                  0.2427160000      2.4074630000      4.7556200000
C                  0.7096040000      3.3611750000      5.7201700000
O                  2.6062420000      4.7220380000      6.4478300000
O                  0.6066880000      0.9946510000      2.8391380000
H                  3.8886900000      3.6531100000      4.5121120000
H                  3.0240820000      1.9914320000      2.8901420000
H                 -0.7800580000      2.0583330000      4.8331620000
C                 -0.1818590000      3.8237830000      6.7646120000
O                  0.0316630000      4.5423900000      7.7325660000
O                 -1.5125140000      3.3445500000      6.5931960000
C                 -2.4070530000      3.6821640000      7.6316420000
H                 -3.3850010000      3.2867970000      7.3389820000
H                 -2.4795170000      4.7654600000      7.7774420000
H                 -2.1139070000      3.2388670000      8.5942620000
$end
$rem
MAX_SCF_CYCLES=200
BASIS  =  6-311++G(d,p)
GUI  =  2
JOB_TYPE  =  SP
METHOD  =  B3LYP
SOLVENT_METHOD = PCM
$end
$pcm
theory = CPCM
$end
$solvent
dielectric 37.219
opticaldielectric 1.43
$end

--------------------------------------------------------------

             Standard Nuclear Orientation (Angstroms)
    I     Atom           X                Y                Z
 ----------------------------------------------------------------
    1      C       2.0816210000     3.8669450000     5.6660830000
    2      C       2.8607810000     3.2965410000     4.5805810000
    3      C       2.3769870000     2.3770130000     3.6805780000
    4      C       1.0218560000     1.8651400000     3.7087240000
    5      C       0.2427160000     2.4074630000     4.7556200000
    6      C       0.7096040000     3.3611750000     5.7201700000
    7      O       2.6062420000     4.7220380000     6.4478300000
    8      O       0.6066880000     0.9946510000     2.8391380000
    9      H       3.8886900000     3.6531100000     4.5121120000
   10      H       3.0240820000     1.9914320000     2.8901420000
   11      H      -0.7800580000     2.0583330000     4.8331620000
   12      C      -0.1818590000     3.8237830000     6.7646120000
   13      O       0.0316630000     4.5423900000     7.7325660000
   14      O      -1.5125140000     3.3445500000     6.5931960000
   15      C      -2.4070530000     3.6821640000     7.6316420000
   16      H      -3.3850010000     3.2867970000     7.3389820000
   17      H      -2.4795170000     4.7654600000     7.7774420000
   18      H      -2.1139070000     3.2388670000     8.5942620000
 ----------------------------------------------------------------

    9    -609.7927441130      7.48e-06  Convergence criterion met
 Total energy in the final basis set =     -609.7927441130

                    Orbital Energies (a.u.)
 --------------------------------------------------------------

 Alpha MOs
 -- Occupied --
-19.1337 -19.0859 -19.0344 -19.0195 -10.2720 -10.2015 -10.1941 -10.1749
-10.1433 -10.1406 -10.1345 -10.1240  -1.0686  -0.9877  -0.9550  -0.9311
 -0.7898  -0.7360  -0.6831  -0.6559  -0.5967  -0.5547  -0.5211  -0.4757
 -0.4561  -0.4531  -0.4336  -0.4257  -0.4157  -0.3860  -0.3793  -0.3681
 -0.3539  -0.3456  -0.3389  -0.3229  -0.3201  -0.2836  -0.2660  -0.2363
 -0.2278  -0.2040  -0.1996  -0.1309

          Ground-State Mulliken Net Atomic Charges

     Atom                 Charge (a.u.)
  ----------------------------------------
      1 C                    -0.806562
      2 C                    -0.058379
      3 C                    -0.002849
      4 C                    -0.452780
      5 C                    -0.293048
      6 C                     0.904015
      7 O                    -0.655113
      8 O                    -0.763501
      9 H                     0.159539
     10 H                     0.164542
     11 H                     0.162489
     12 C                     0.036255
     13 O                    -0.421324
     14 O                    -0.210183
     15 C                    -0.250646
     16 H                     0.149962
     17 H                     0.166411
     18 H                     0.171172
  ----------------------------------------
  Sum of atomic charges =    -2.000000

                    Cartesian Multipole Moments
 -----------------------------------------------------------------
    Charge (ESU x 10^10)
                -9.6064
    Dipole Moment (Debye)
         X     -12.2415      Y     -28.9993      Z     -48.2251
       Tot      57.5888
    Quadrupole Moments (Debye-Ang)
        XX     -98.4793     XY     -49.1459     YY    -196.2578
        XZ     -74.1149     YZ    -179.6729     ZZ    -356.0553

 Total job time:  22.08s(wall), 110.05s(cpu)
        *  Thank you very much for using Q-Chem.  Have a nice day.  *
