 Gaussian 16, Revision A.03,
 Gaussian 16:  ES64L-G16RevA.03 25-Dec-2016

 ----------------------------------------------------------------------
 #P UB3LYP/6-311++G(d,p) nosym opt freq SCRF=(PCM,Solvent=n,n-DiMethylF
 ormamide)
 ----------------------------------------------------------------------

 -------
 Reduced
 -------
 Symbolic Z-matrix:
 Charge = -2 Multiplicity = 1

 SCF Done:  E(UB3LYP) =  -799.942531709     A.U. after   17 cycles
 SCF Done:  E(UB3LYP) =  -799.943142320     A.U. after   13 cycles
 SCF Done:  E(UB3LYP) =  -799.943675450     A.U. after   13 cycles
 SCF Done:  E(UB3LYP) =  -799.943821712     A.U. after   12 cycles
 SCF Done:  E(UB3LYP) =  -799.943936087     A.U. after   12 cycles
 SCF Done:  E(UB3LYP) =  -799.943980697     A.U. after   11 cycles
 SCF Done:  E(UB3LYP) =  -799.943992524     A.U. after   11 cycles
 SCF Done:  E(UB3LYP) =  -799.943995883     A.U. after   10 cycles
 SCF Done:  E(UB3LYP) =  -799.943996707     A.U. after   10 cycles
 SCF Done:  E(UB3LYP) =  -799.943997422     A.U. after   10 cycles
 SCF Done:  E(UB3LYP) =  -799.943997642     A.U. after   10 cycles
 Optimization completed.
    -- Stationary point found.
 Normal termination of Gaussian 16 at Sat Feb 10 18:40:43 2024.

 ----------------------------------------------------------------------
 #P Geom=AllCheck Guess=TCheck SCRF=Check GenChk UB3LYP/6-311++G(d,p) F
 req
 ----------------------------------------------------------------------

 Structure from the checkpoint file:  "166-an.chk"
 -------
 Reduced
 -------
 Charge = -2 Multiplicity = 1

                          Input orientation:
 ---------------------------------------------------------------------
 Center     Atomic      Atomic             Coordinates (Angstroms)
 Number     Number       Type             X           Y           Z
 ---------------------------------------------------------------------
      1          7           0       -2.039796    2.906264   -0.269764
      2          6           0       -2.068411    1.516809   -0.008393
      3          6           0       -3.280124    0.867532    0.094326
      4          6           0       -3.351777   -0.541473    0.212140
      5          6           0       -2.212836   -1.318207    0.226747
      6          7           0       -2.328852   -2.727181    0.204524
      7          6           0       -0.902687   -0.694024    0.202179
      8          6           0        0.289554   -1.492479    0.339203
      9          8           0        0.275398   -2.795713    0.520788
     10          6           0        1.543012   -0.796998    0.291398
     11          6           0        2.764159   -1.526261    0.378519
     12          6           0        3.992198   -0.906323    0.356160
     13          6           0        4.063490    0.511425    0.250387
     14          6           0        2.903808    1.247277    0.170112
     15          6           0        1.615283    0.638519    0.182014
     16          6           0        0.438322    1.454719    0.110721
     17          8           0        0.555833    2.765149    0.092482
     18          6           0       -0.828720    0.767980    0.084982
     19          1           0       -1.105182    3.276463   -0.058582
     20          1           0       -2.802173    3.410920    0.164386
     21          1           0       -4.198137    1.446685    0.034327
     22          1           0       -4.323982   -1.026891    0.243523
     23          1           0       -3.131786   -3.070708    0.715908
     24          1           0       -1.433059   -3.151151    0.474307
     25          1           0        2.692200   -2.604114    0.464429
     26          1           0        4.903946   -1.492639    0.419678
     27          1           0        5.029754    1.006570    0.233441
     28          1           0        2.940562    2.327851    0.093382
 ---------------------------------------------------------------------

 SCF Done:  E(UB3LYP) =  -799.943997642     A.U. after    1 cycles

 Alpha  occ. eigenvalues --  -19.02106 -19.02099 -14.27199 -14.27191 -10.17619
 Alpha  occ. eigenvalues --  -10.17610 -10.17559 -10.17548 -10.14859 -10.14816
 Alpha  occ. eigenvalues --  -10.14581 -10.14579 -10.14246 -10.14211 -10.13585
 Alpha  occ. eigenvalues --  -10.13546 -10.13191 -10.13144  -0.93692  -0.93268
 Alpha  occ. eigenvalues --   -0.87700  -0.86822  -0.82479  -0.78784  -0.74821
 Alpha  occ. eigenvalues --   -0.72248  -0.70436  -0.68307  -0.63471  -0.60431
 Alpha  occ. eigenvalues --   -0.59479  -0.55023  -0.52590  -0.51647  -0.49775
 Alpha  occ. eigenvalues --   -0.47864  -0.45288  -0.44415  -0.43901  -0.42995
 Alpha  occ. eigenvalues --   -0.41513  -0.40418  -0.39696  -0.38408  -0.37642
 Alpha  occ. eigenvalues --   -0.36101  -0.35713  -0.35072  -0.34851  -0.33511
 Alpha  occ. eigenvalues --   -0.33330  -0.31606  -0.30604  -0.30052  -0.29990
 Alpha  occ. eigenvalues --   -0.24440  -0.22860  -0.22197  -0.21421  -0.20210
 Alpha  occ. eigenvalues --   -0.19842  -0.16697  -0.10416
 Alpha virt. eigenvalues --   -0.01912   0.00110   0.00272   0.00750   0.01179
 Alpha virt. eigenvalues --    0.02364   0.02386   0.03019   0.04096   0.04490
 Alpha virt. eigenvalues --    0.04853   0.05416   0.06317   0.06535   0.06878

  Beta  occ. eigenvalues --  -19.02106 -19.02099 -14.27199 -14.27191 -10.17619
  Beta  occ. eigenvalues --  -10.17610 -10.17559 -10.17548 -10.14859 -10.14816
  Beta  occ. eigenvalues --  -10.14581 -10.14579 -10.14246 -10.14211 -10.13585
  Beta  occ. eigenvalues --  -10.13546 -10.13191 -10.13144  -0.93692  -0.93268
  Beta  occ. eigenvalues --   -0.87700  -0.86822  -0.82479  -0.78784  -0.74821
  Beta  occ. eigenvalues --   -0.72248  -0.70436  -0.68307  -0.63471  -0.60431
  Beta  occ. eigenvalues --   -0.59479  -0.55023  -0.52590  -0.51647  -0.49775
  Beta  occ. eigenvalues --   -0.47864  -0.45288  -0.44415  -0.43901  -0.42995
  Beta  occ. eigenvalues --   -0.41513  -0.40418  -0.39696  -0.38408  -0.37642
  Beta  occ. eigenvalues --   -0.36101  -0.35713  -0.35072  -0.34851  -0.33511
  Beta  occ. eigenvalues --   -0.33330  -0.31606  -0.30604  -0.30052  -0.29990
  Beta  occ. eigenvalues --   -0.24440  -0.22860  -0.22197  -0.21421  -0.20210
  Beta  occ. eigenvalues --   -0.19842  -0.16697  -0.10416
  Beta virt. eigenvalues --   -0.01912   0.00110   0.00272   0.00750   0.01179
  Beta virt. eigenvalues --    0.02364   0.02386   0.03019   0.04096   0.04490
  Beta virt. eigenvalues --    0.04853   0.05416   0.06317   0.06535   0.06878

 Mulliken charges and spin densities:
               1          2
     1  N   -0.463739   0.000000
     2  C   -0.183264  -0.000000
     3  C   -0.337013   0.000000
     4  C   -0.331639  -0.000000
     5  C   -0.182335  -0.000000
     6  N   -0.464079   0.000000
     7  C    0.494434   0.000000
     8  C   -0.375787  -0.000000
     9  O   -0.645783  -0.000000
    10  C    0.007483  -0.000000
    11  C    0.023719   0.000000
    12  C   -0.508944   0.000000
    13  C   -0.510857  -0.000000
    14  C    0.025222   0.000000
    15  C    0.014164   0.000000
    16  C   -0.380727   0.000000
    17  O   -0.645637   0.000000
    18  C    0.502709   0.000000
    19  H    0.300897  -0.000000
    20  H    0.239907  -0.000000
    21  H    0.137359   0.000000
    22  H    0.137520   0.000000
    23  H    0.240039  -0.000000
    24  H    0.300647  -0.000000
    25  H    0.146911  -0.000000
    26  H    0.155675   0.000000
    27  H    0.155560  -0.000000
    28  H    0.147559  -0.000000
 Sum of Mulliken charges =  -2.00000   0.00000

 Dipole moment (field-independent basis, Debye):
    X=             -2.0608    Y=              0.2969    Z=              0.0632  Tot=              2.0830
 Quadrupole moment (field-independent basis, Debye-Ang):
   XX=           -133.7051   YY=           -162.9681   ZZ=           -121.0229
   XY=             -2.1135   XZ=             -7.5912   YZ=              3.6005

  Exact polarizability: 577.431  -7.918 408.247   7.577 -19.343 170.182
 Approx polarizability: 635.492  -7.059 485.070   6.646 -23.939 187.461

                      1                      2                      3
                      A                      A                      A
 Frequencies --     43.9212                62.7320               103.9209
 Red. masses --      6.3584                 6.1999                 4.4304
 Frc consts  --      0.0072                 0.0144                 0.0282
 IR Inten    --     12.1386                11.4527                 7.8053

                      4                      5                      6
                      A                      A                      A
 Frequencies --    135.1568               176.0463               219.5120
 Red. masses --      4.3450                 7.4181                 4.7968
 Frc consts  --      0.0468                 0.1355                 0.1362
 IR Inten    --      0.7805                 0.6492                16.0155

                      7                      8                      9
                      A                      A                      A
 Frequencies --    260.4815               320.8472               324.6182
 Red. masses --      4.9896                 3.1053                 4.2849
 Frc consts  --      0.1995                 0.1883                 0.2660
 IR Inten    --      6.9946                80.2979                28.9321

                     10                     11                     12
                      A                      A                      A
 Frequencies --    349.5888               379.1901               397.0290
 Red. masses --      4.3344                10.2142                 8.1576
 Frc consts  --      0.3121                 0.8653                 0.7576
 IR Inten    --     31.0627                 4.7503                 0.4960

                     13                     14                     15
                      A                      A                      A
 Frequencies --    406.4820               423.7486               428.6120
 Red. masses --      3.3925                 1.5581                 7.2324
 Frc consts  --      0.3303                 0.1648                 0.7828
 IR Inten    --     61.6288               177.4844                11.5185

                     16                     17                     18
                      A                      A                      A
 Frequencies --    433.0630               449.2658               476.2754
 Red. masses --      1.5021                 2.5741                 5.0971
 Frc consts  --      0.1660                 0.3061                 0.6812
 IR Inten    --    206.2267                40.4198                 4.8867

                     19                     20                     21
                      A                      A                      A
 Frequencies --    485.8066               496.7291               519.3315
 Red. masses --      4.3741                 4.3273                 8.2019
 Frc consts  --      0.6082                 0.6291                 1.3033
 IR Inten    --      4.0801                 0.6744                 5.1371

                     22                     23                     24
                      A                      A                      A
 Frequencies --    587.7485               598.1464               625.7061
 Red. masses --      5.0376                 3.0481                 4.2954
 Frc consts  --      1.0253                 0.6425                 0.9908
 IR Inten    --    103.9479               103.2076                 2.9314

                     25                     26                     27
                      A                      A                      A
 Frequencies --    652.3457               702.1235               714.3107
 Red. masses --      6.3751                 6.1100                 2.2267
 Frc consts  --      1.5984                 1.7747                 0.6694
 IR Inten    --      3.3815                 9.2929                16.4078

                     28                     29                     30
                      A                      A                      A
 Frequencies --    732.3736               748.5934               773.2111
 Red. masses --      4.2443                 5.0011                 1.7328
 Frc consts  --      1.3413                 1.6512                 0.6104
 IR Inten    --    112.1874               189.9469               121.0323

                     31                     32                     33
                      A                      A                      A
 Frequencies --    781.4696               797.4625               824.4353
 Red. masses --      1.6309                 3.8553                 1.6286
 Frc consts  --      0.5868                 1.4445                 0.6522
 IR Inten    --     19.6444                45.5578               354.3413

                     34                     35                     36
                      A                      A                      A
 Frequencies --    837.7379               846.6752               853.6581
 Red. masses --      2.0464                 1.5711                 1.7134
 Frc consts  --      0.8462                 0.6636                 0.7357
 IR Inten    --    273.0019                71.0533                14.5435

                     37                     38                     39
                      A                      A                      A
 Frequencies --    859.8412               903.7298               951.7522
 Red. masses --      2.7554                 3.9380                 6.0016
 Frc consts  --      1.2002                 1.8950                 3.2031
 IR Inten    --    153.0201                39.0653               162.2405

                     40                     41                     42
                      A                      A                      A
 Frequencies --    976.3333               984.0514              1012.2888
 Red. masses --      1.3372                 1.2600                 2.2787
 Frc consts  --      0.7510                 0.7189                 1.3758
 IR Inten    --      2.8102                 0.7691                98.4722

                     43                     44                     45
                      A                      A                      A
 Frequencies --   1042.3474              1090.8090              1118.8659
 Red. masses --      2.2426                 2.8981                 1.6413
 Frc consts  --      1.4356                 2.0317                 1.2106
 IR Inten    --     71.3384               505.8354               529.0485

                     46                     47                     48
                      A                      A                      A
 Frequencies --   1148.1382              1149.6843              1178.4304
 Red. masses --      2.4683                 1.5120                 1.3462
 Frc consts  --      1.9170                 1.1775                 1.1014
 IR Inten    --     84.5492               457.6823               334.9065

                     49                     50                     51
                      A                      A                      A
 Frequencies --   1192.8565              1216.1763              1235.8997
 Red. masses --      1.4206                 2.0858                 4.7131
 Frc consts  --      1.1910                 1.8177                 4.2415
 IR Inten    --     13.7386               142.2484                44.6619

                     52                     53                     54
                      A                      A                      A
 Frequencies --   1251.9476              1259.1065              1277.7658
 Red. masses --      2.8621                 2.7829                 6.1157
 Frc consts  --      2.6431                 2.5994                 5.8830
 IR Inten    --    283.9117               122.4196                17.1454

                     55                     56                     57
                      A                      A                      A
 Frequencies --   1343.1338              1351.5223              1388.9327
 Red. masses --      8.2328                 3.4383                 1.9174
 Frc consts  --      8.7505                 3.7003                 2.1794
 IR Inten    --    321.1425              2157.6510                 7.3877

                     58                     59                     60
                      A                      A                      A
 Frequencies --   1423.9535              1449.9514              1454.2374
 Red. masses --      7.7845                 2.3889                 2.8958
 Frc consts  --      9.2998                 2.9591                 3.6082
 IR Inten    --     65.4615                13.0070               446.9336

                     61                     62                     63
                      A                      A                      A
 Frequencies --   1477.0542              1492.3663              1541.7099
 Red. masses --      2.4506                 5.6284                 4.7747
 Frc consts  --      3.1501                 7.3856                 6.6866
 IR Inten    --     25.0321                27.3640               133.2537

                     64                     65                     66
                      A                      A                      A
 Frequencies --   1577.5611              1585.2398              1603.3713
 Red. masses --      1.2349                 1.3129                 6.0119
 Frc consts  --      1.8107                 1.9440                 9.1061
 IR Inten    --    141.3711               317.0839                 3.7994

                     67                     68                     69
                      A                      A                      A
 Frequencies --   1605.7535              1614.7904              3123.1545
 Red. masses --      5.2729                 3.9883                 1.0851
 Frc consts  --      8.0104                 6.1273                 6.2362
 IR Inten    --     20.6488               228.2309                89.1041

                     70                     71                     72
                      A                      A                      A
 Frequencies --   3138.6989              3142.1493              3154.9107
 Red. masses --      1.0849                 1.0929                 1.0902
 Frc consts  --      6.2973                 6.3575                 6.3931
 IR Inten    --     28.8448                95.9000                47.3653

                     73                     74                     75
                      A                      A                      A
 Frequencies --   3178.2255              3182.7199              3257.2834
 Red. masses --      1.0911                 1.0921                 1.0674
 Frc consts  --      6.4935                 6.5180                 6.6725
 IR Inten    --     40.6878                67.1278               192.5788

                     76                     77                     78
                      A                      A                      A
 Frequencies --   3264.0409              3576.3319              3577.8951
 Red. masses --      1.0672                 1.0816                 1.0818
 Frc consts  --      6.6987                 8.1508                 8.1589
 IR Inten    --    653.0357                23.0012                23.2436

 - Thermochemistry -
 -------------------
 Temperature   298.150 Kelvin.  Pressure   1.00000 Atm.
 Atom     1 has atomic number  7 and mass  14.00307

 Molecular mass:   238.07423 amu.
 Principal axes and moments of inertia in atomic units:
                           1         2         3
     Eigenvalues --  2619.645114659.644027269.15268
           X            0.99831   0.05034  -0.02887
           Y           -0.04786   0.99555   0.08120
           Z            0.03283  -0.07968   0.99628
 This molecule is an asymmetric top.
 Rotational symmetry number  1.
 Warning -- assumption of classical behavior for rotation
           may cause significant error
 Rotational temperatures (Kelvin)      0.03306     0.01859     0.01192
 Rotational constants (GHZ):           0.68893     0.38731     0.24827
 Zero-point vibrational energy     546235.0 (Joules/Mol)
                                  130.55331 (Kcal/Mol)
 Warning -- explicit consideration of  23 degrees of freedom as
           vibrations may cause significant error
 Vibrational temperatures:     63.19    90.26   149.52   194.46   253.29
          (Kelvin)            315.83   374.77   461.63   467.05   502.98
                              545.57   571.24   584.84   609.68   616.68
                              623.08   646.39   685.25   698.97   714.68
                              747.20   845.64   860.60   900.25   938.58
                             1010.20  1027.73  1053.72  1077.06  1112.48
                             1124.36  1147.37  1186.18  1205.32  1218.18
                             1228.22  1237.12  1300.27  1369.36  1404.73
                             1415.83  1456.46  1499.71  1569.43  1609.80
                             1651.91  1654.14  1695.50  1716.25  1749.81
                             1778.18  1801.27  1811.57  1838.42  1932.47
                             1944.54  1998.36  2048.75  2086.16  2092.32
                             2125.15  2147.18  2218.18  2269.76  2280.81
                             2306.89  2310.32  2323.32  4493.52  4515.89
                             4520.85  4539.21  4572.76  4579.22  4686.50
                             4696.23  5145.54  5147.79

 Zero-point correction=                           0.208050 (Hartree/Particle)
 Thermal correction to Energy=                    0.221774
 Thermal correction to Enthalpy=                  0.222718
 Thermal correction to Gibbs Free Energy=         0.167948
 Sum of electronic and zero-point Energies=           -799.735948
 Sum of electronic and thermal Energies=              -799.722224
 Sum of electronic and thermal Enthalpies=            -799.721280
 Sum of electronic and thermal Free Energies=         -799.776050

                     E (Thermal)             CV                S
                      KCal/Mol        Cal/Mol-Kelvin    Cal/Mol-Kelvin
 Total                  139.165             57.081            115.273
 Electronic               0.000              0.000              0.000
 Translational            0.889              2.981             42.304
 Rotational               0.889              2.981             32.850
 Vibrational            137.388             51.120             40.119
 Vibration     1          0.595              1.980              5.074
 Vibration     2          0.597              1.972              4.369
 Vibration     3          0.605              1.946              3.379
 Vibration     4          0.613              1.918              2.871
 Vibration     5          0.628              1.872              2.370
 Vibration     6          0.647              1.811              1.963
 Vibration     7          0.669              1.745              1.659
 Vibration     8          0.706              1.634              1.306
 Vibration     9          0.709              1.626              1.287
 Vibration    10          0.727              1.576              1.168
 Vibration    11          0.749              1.515              1.042
 Vibration    12          0.764              1.477              0.974
 Vibration    13          0.771              1.456              0.939
 Vibration    14          0.786              1.419              0.879
 Vibration    15          0.790              1.408              0.863
 Vibration    16          0.794              1.398              0.849
 Vibration    17          0.808              1.363              0.798
 Vibration    18          0.833              1.303              0.720
 Vibration    19          0.842              1.282              0.695
 Vibration    20          0.852              1.257              0.666
 Vibration    21          0.874              1.207              0.612
 Vibration    22          0.945              1.058              0.471
 Vibration    23          0.956              1.036              0.453

                           ! Non-Optimized Parameters !
 Normal termination of Gaussian 16 at Sat Feb 10 19:18:02 2024.
