 Gaussian 16, Revision A.03,
 Gaussian 16:  ES64L-G16RevA.03 25-Dec-2016

 ----------------------------------------------------------------
 #P UB3LYP/6-311++G(d,p) SCRF=(PCM,Solvent=n,n-DiMethylFormamide)
 ----------------------------------------------------------------

 ------------------
 Quinone PCM in DMF
 ------------------
 Symbolic Z-matrix:
 Charge =  0 Multiplicity = 1

                         Standard orientation:
 ---------------------------------------------------------------------
 Center     Atomic      Atomic             Coordinates (Angstroms)
 Number     Number       Type             X           Y           Z
 ---------------------------------------------------------------------
      1          6           0        2.709007   -1.633248    0.000068
      2          6           0        4.017394   -1.165294    0.000056
      3          6           0        4.268859    0.209365    0.000011
      4          6           0        1.641414   -0.728939    0.000033
      5          6           0        1.893437    0.655431   -0.000030
      6          6           0        3.212793    1.114192   -0.000017
      7          6           0        0.252398   -1.245113    0.000037
      8          6           0       -0.848346   -0.275190   -0.000046
      9          6           0       -0.607876    1.122364   -0.000090
     10          6           0        0.776887    1.652432   -0.000045
     11          6           0       -2.170434   -0.744725   -0.000034
     12          6           0       -3.246680    0.168801    0.000056
     13          6           0       -1.682229    2.005342   -0.000058
     14          6           0       -2.995183    1.533381    0.000024
     15          8           0        0.028520   -2.465059   -0.000003
     16          8           0        1.009716    2.851857    0.000014
     17          8           0       -2.506403   -2.049464   -0.000143
     18          1           0        2.491158   -2.693885    0.000046
     19          1           0        4.842767   -1.867915    0.000065
     20          1           0        5.290346    0.572501    0.000024
     21          1           0        3.385762    2.183219    0.000012
     22          1           0       -1.658872   -2.563037   -0.000314
     23          8           0       -4.516573   -0.295442    0.000141
     24          1           0       -1.478178    3.068367   -0.000001
     25          1           0       -3.836243    2.216217    0.000097
     26          1           0       -4.487469   -1.263407    0.000207
 ---------------------------------------------------------------------

 SCF Done:  E(UB3LYP) =  -839.474433852     A.U. after   15 cycles

 The electronic state is 1-A.
 Alpha  occ. eigenvalues --  -19.17927 -19.17539 -19.14547 -19.12886 -10.29456
 Alpha  occ. eigenvalues --  -10.28262 -10.27148 -10.26564 -10.21457 -10.21291
 Alpha  occ. eigenvalues --  -10.21143 -10.20760 -10.20174 -10.20164 -10.20145
 Alpha  occ. eigenvalues --  -10.20046 -10.20044 -10.19952  -1.11036  -1.08604
 Alpha  occ. eigenvalues --   -1.06584  -1.06367  -0.89783  -0.88342  -0.81696
 Alpha  occ. eigenvalues --   -0.78306  -0.77715  -0.77268  -0.69994  -0.68045
 Alpha  occ. eigenvalues --   -0.66082  -0.63517  -0.60350  -0.58692  -0.56803
 Alpha  occ. eigenvalues --   -0.55129  -0.53371  -0.51777  -0.50121  -0.48327
 Alpha  occ. eigenvalues --   -0.47514  -0.46841  -0.46455  -0.45502  -0.45220
 Alpha  occ. eigenvalues --   -0.44527  -0.43561  -0.42524  -0.42474  -0.39968
 Alpha  occ. eigenvalues --   -0.39756  -0.38987  -0.38468  -0.38355  -0.37151
 Alpha  occ. eigenvalues --   -0.35261  -0.29955  -0.29195  -0.28184  -0.27947
 Alpha  occ. eigenvalues --   -0.27336  -0.24466
 Alpha virt. eigenvalues --   -0.12287  -0.07378  -0.03746  -0.02212  -0.00938
 Alpha virt. eigenvalues --   -0.00148   0.00613   0.01667   0.01888   0.03031
 Alpha virt. eigenvalues --    0.03701   0.03737   0.03963   0.04199   0.04535

  Beta  occ. eigenvalues --  -19.17927 -19.17539 -19.14547 -19.12886 -10.29456
  Beta  occ. eigenvalues --  -10.28262 -10.27148 -10.26564 -10.21457 -10.21291
  Beta  occ. eigenvalues --  -10.21143 -10.20760 -10.20174 -10.20164 -10.20145
  Beta  occ. eigenvalues --  -10.20046 -10.20044 -10.19952  -1.11036  -1.08604
  Beta  occ. eigenvalues --   -1.06584  -1.06367  -0.89783  -0.88342  -0.81696
  Beta  occ. eigenvalues --   -0.78306  -0.77715  -0.77268  -0.69994  -0.68045
  Beta  occ. eigenvalues --   -0.66082  -0.63517  -0.60350  -0.58692  -0.56803
  Beta  occ. eigenvalues --   -0.55129  -0.53371  -0.51777  -0.50121  -0.48327
  Beta  occ. eigenvalues --   -0.47514  -0.46841  -0.46455  -0.45502  -0.45220
  Beta  occ. eigenvalues --   -0.44527  -0.43561  -0.42524  -0.42474  -0.39968
  Beta  occ. eigenvalues --   -0.39756  -0.38987  -0.38468  -0.38355  -0.37151
  Beta  occ. eigenvalues --   -0.35261  -0.29955  -0.29195  -0.28184  -0.27947
  Beta  occ. eigenvalues --   -0.27336  -0.24466
  Beta virt. eigenvalues --   -0.12287  -0.07378  -0.03746  -0.02212  -0.00938
  Beta virt. eigenvalues --   -0.00148   0.00613   0.01667   0.01888   0.03031
  Beta virt. eigenvalues --    0.03701   0.03737   0.03963   0.04199   0.04535

 Mulliken charges and spin densities:
               1          2
     1  C    0.206451   0.000000
     2  C   -0.427920  -0.000000
     3  C   -0.438782  -0.000000
     4  C    0.211283  -0.000000
     5  C   -0.107456   0.000000
     6  C    0.166196   0.000000
     7  C   -0.465955  -0.000000
     8  C    0.595408   0.000000
     9  C    0.459199  -0.000000
    10  C   -0.522135   0.000000
    11  C   -0.103258  -0.000000
    12  C   -0.356425  -0.000000
    13  C    0.088563  -0.000000
    14  C    0.027324   0.000000
    15  O   -0.311184   0.000000
    16  O   -0.288254  -0.000000
    17  O   -0.369222   0.000000
    18  H    0.191666   0.000000
    19  H    0.208460   0.000000
    20  H    0.208690  -0.000000
    21  H    0.184963   0.000000
    22  H    0.363285  -0.000000
    23  O   -0.260689  -0.000000
    24  H    0.185677  -0.000000
    25  H    0.237542   0.000000
    26  H    0.316574   0.000000
 Sum of Mulliken charges =  -0.00000  -0.00000

 Dipole moment (field-independent basis, Debye):
    X=              2.0656    Y=             -1.8659    Z=             -0.0000  Tot=              2.7836
 Quadrupole moment (field-independent basis, Debye-Ang):
   XX=            -84.5811   YY=           -110.2945   ZZ=           -105.0187
   XY=             -5.5868   XZ=             -0.0005   YZ=              0.0005

 Normal termination of Gaussian 16 at Tue Jan 16 05:02:44 2024.
