 Q-Chem 5.4, Q-Chem, Inc., Pleasanton, CA (2021)
 Q-Chem 5.4.0 for Intel X86 EM64T Linux

User input:
--------------------------------------------------------------
$molecule
0 1
C                 -4.6989380000     -0.3684880000     -0.5524400000
C                 -3.9940560000     -0.4286000000      0.8149130000
C                 -2.5692790000      0.0723950000      0.7589180000
C                 -2.2762520000      1.4320170000      0.9481450000
C                 -0.9740700000      1.9052060000      0.8632180000
C                  0.0788840000      1.0281820000      0.5859090000
C                  1.4675440000      1.5588090000      0.5022160000
O                  1.7076400000      2.7445700000      0.6670410000
C                  2.5589520000      0.5828740000      0.2075970000
C                  3.8761320000      1.0436920000      0.1201310000
C                  4.9105380000      0.1564080000     -0.1527210000
C                  4.6382200000     -1.2015600000     -0.3410040000
C                  3.3321320000     -1.6688310000     -0.2558870000
C                  2.2848820000     -0.7835220000      0.0181240000
C                  0.8919790000     -1.3136370000      0.1038290000
O                  0.6554400000     -2.4998710000     -0.0597240000
C                 -0.1982010000     -0.3371470000      0.3959720000
C                 -1.5137130000     -0.7980510000      0.4849190000
H                 -4.1750800000     -0.9811910000     -1.2907090000
H                 -5.7255850000     -0.7357970000     -0.4735440000
H                 -4.7335640000      0.6558310000     -0.9330960000
H                 -4.5587350000      0.1659140000      1.5399270000
H                 -4.0004190000     -1.4598440000      1.1800500000
H                 -3.0825010000      2.1241190000      1.1700640000
H                 -0.7474600000      2.9537610000      1.0126560000
H                  4.0639260000      2.0997400000      0.2696080000
H                  5.9300480000      0.5190070000     -0.2194780000
H                  5.4464800000     -1.8920640000     -0.5536760000
H                  3.0981210000     -2.7166200000     -0.3980570000
H                 -1.6930630000     -1.8573040000      0.3388000000
$end
$rem
MAX_SCF_CYCLES=200
BASIS  =  6-311++G(d,p)
GUI  =  2
JOB_TYPE  =  SP
METHOD  =  B3LYP
SOLVENT_METHOD = PCM
$end
$pcm
theory = CPCM
$end
$solvent
dielectric 37.219
opticaldielectric 1.43
$end

--------------------------------------------------------------

             Standard Nuclear Orientation (Angstroms)
    I     Atom           X                Y                Z
 ----------------------------------------------------------------
    1      C      -4.6989380000    -0.3684880000    -0.5524400000
    2      C      -3.9940560000    -0.4286000000     0.8149130000
    3      C      -2.5692790000     0.0723950000     0.7589180000
    4      C      -2.2762520000     1.4320170000     0.9481450000
    5      C      -0.9740700000     1.9052060000     0.8632180000
    6      C       0.0788840000     1.0281820000     0.5859090000
    7      C       1.4675440000     1.5588090000     0.5022160000
    8      O       1.7076400000     2.7445700000     0.6670410000
    9      C       2.5589520000     0.5828740000     0.2075970000
   10      C       3.8761320000     1.0436920000     0.1201310000
   11      C       4.9105380000     0.1564080000    -0.1527210000
   12      C       4.6382200000    -1.2015600000    -0.3410040000
   13      C       3.3321320000    -1.6688310000    -0.2558870000
   14      C       2.2848820000    -0.7835220000     0.0181240000
   15      C       0.8919790000    -1.3136370000     0.1038290000
   16      O       0.6554400000    -2.4998710000    -0.0597240000
   17      C      -0.1982010000    -0.3371470000     0.3959720000
   18      C      -1.5137130000    -0.7980510000     0.4849190000
   19      H      -4.1750800000    -0.9811910000    -1.2907090000
   20      H      -5.7255850000    -0.7357970000    -0.4735440000
   21      H      -4.7335640000     0.6558310000    -0.9330960000
   22      H      -4.5587350000     0.1659140000     1.5399270000
   23      H      -4.0004190000    -1.4598440000     1.1800500000
   24      H      -3.0825010000     2.1241190000     1.1700640000
   25      H      -0.7474600000     2.9537610000     1.0126560000
   26      H       4.0639260000     2.0997400000     0.2696080000
   27      H       5.9300480000     0.5190070000    -0.2194780000
   28      H       5.4464800000    -1.8920640000    -0.5536760000
   29      H       3.0981210000    -2.7166200000    -0.3980570000
   30      H      -1.6930630000    -1.8573040000     0.3388000000
 ----------------------------------------------------------------

    8    -767.6198567882      9.92e-06  Convergence criterion met
 Total energy in the final basis set =     -767.6198567882

                    Orbital Energies (a.u.)
 --------------------------------------------------------------

 Alpha MOs
 -- Occupied --
-19.1313 -19.1301 -10.2830 -10.2820 -10.2075 -10.2070 -10.2060 -10.2038
-10.2028 -10.1966 -10.1962 -10.1957 -10.1956 -10.1944 -10.1922 -10.1918
-10.1763 -10.1619  -1.0666  -1.0645  -0.8932  -0.8816  -0.8198  -0.7891
 -0.7773  -0.7722  -0.7433  -0.6874  -0.6678  -0.6461  -0.6199  -0.6065
 -0.5846  -0.5583  -0.5440  -0.5051  -0.4912  -0.4842  -0.4740  -0.4595
 -0.4549  -0.4525  -0.4494  -0.4442  -0.4405  -0.4240  -0.4197  -0.4169
 -0.3947  -0.3841  -0.3792  -0.3725  -0.3649  -0.3586  -0.3493  -0.3441
 -0.2884  -0.2868  -0.2784  -0.2752  -0.2749  -0.2668

          Ground-State Mulliken Net Atomic Charges

     Atom                 Charge (a.u.)
  ----------------------------------------
      1 C                    -0.679812
      2 C                    -0.160668
      3 C                     0.685815
      4 C                    -0.600079
      5 C                     0.082924
      6 C                     0.173032
      7 C                    -0.686667
      8 O                    -0.291687
      9 C                     0.098390
     10 C                     0.192807
     11 C                    -0.451915
     12 C                    -0.442033
     13 C                     0.154549
     14 C                     0.336212
     15 C                    -0.644943
     16 O                    -0.284074
     17 C                     0.361624
     18 C                    -0.117200
     19 H                     0.153043
     20 H                     0.155092
     21 H                     0.152444
     22 H                     0.176716
     23 H                     0.177329
     24 H                     0.225139
     25 H                     0.200241
     26 H                     0.196368
     27 H                     0.223398
     28 H                     0.224546
     29 H                     0.194938
     30 H                     0.194473
  ----------------------------------------
  Sum of atomic charges =     0.000000

                    Cartesian Multipole Moments
 -----------------------------------------------------------------
    Charge (ESU x 10^10)
                 0.0000
    Dipole Moment (Debye)
         X      -1.0120      Y      -0.2788      Z      -0.0302
       Tot       1.0501
    Quadrupole Moments (Debye-Ang)
        XX     -70.3355     XY      -7.7246     YY    -117.2771
        XZ      -5.9496     YZ      -0.6676     ZZ    -107.1954

 Total job time:  50.89s(wall), 368.70s(cpu)
        *  Thank you very much for using Q-Chem.  Have a nice day.  *
