 Gaussian 16, Revision A.03,
 Gaussian 16:  ES64L-G16RevA.03 25-Dec-2016

 ----------------------------------------------------------------
 #P UB3LYP/6-311++G(d,p) SCRF=(PCM,Solvent=n,n-DiMethylFormamide)
 ----------------------------------------------------------------

 -------
 Reduced
 -------
 Symbolic Z-matrix:
 Charge = -2 Multiplicity = 1

                         Standard orientation:
 ---------------------------------------------------------------------
 Center     Atomic      Atomic             Coordinates (Angstroms)
 Number     Number       Type             X           Y           Z
 ---------------------------------------------------------------------
      1          6           0       -2.017870   -0.000961   -3.057517
      2          6           0       -1.797602   -1.187237   -2.274472
      3          6           0       -1.802451    1.184608   -2.271975
      4          6           0       -1.174689    1.191255   -1.030753
      5          6           0       -0.551889   -0.000600   -0.497421
      6          6           0       -1.169778   -1.193830   -1.033239
      7          6           0        0.551883    0.000584    0.497487
      8          6           0        1.174666   -1.191280    1.030820
      9          6           0        1.169766    1.193806    1.033325
     10          6           0        1.802417   -1.184649    2.272057
     11          6           0        1.797582    1.187206    2.274552
     12          6           0        2.017861    0.000916    3.057586
     13          8           0       -2.494089   -0.000667   -4.240712
     14          8           0        2.494042    0.000631    4.240798
     15          6           0       -1.459370    2.414505   -0.156152
     16          6           0       -2.953434    2.514092    0.217746
     17          6           0       -3.261110    3.698806    1.142038
     18          6           0       -4.743104    3.807290    1.520383
     19          6           0        1.448782    2.420395    0.161657
     20          6           0        2.941571    2.525763   -0.215875
     21          6           0        3.242737    3.714948   -1.136522
     22          6           0        4.722889    3.828733   -1.520473
     23          6           0        1.459376   -2.414507    0.156202
     24          6           0        2.953418   -2.513909   -0.217833
     25          6           0        3.261176   -3.698606   -1.142121
     26          6           0        4.743149   -3.806894   -1.520594
     27          6           0       -1.448790   -2.420435   -0.161590
     28          6           0       -2.941592   -2.525908    0.215844
     29          6           0       -3.242707   -3.715093    1.136506
     30          6           0       -4.722873   -3.829005    1.520373
     31          1           0       -2.248452   -2.105445   -2.649251
     32          1           0       -2.257381    2.101588   -2.644815
     33          1           0        2.257291   -2.101665    2.644878
     34          1           0        2.248465    2.105394    2.649343
     35          1           0       -1.169431    3.346962   -0.661330
     36          1           0       -0.897310    2.366586    0.774724
     37          1           0       -3.253262    1.580728    0.709525
     38          1           0       -3.560513    2.589614   -0.690980
     39          1           0       -2.942514    4.630470    0.655035
     40          1           0       -2.658153    3.613112    2.054604
     41          1           0       -5.369351    3.925125    0.628953
     42          1           0       -4.934987    4.662144    2.180010
     43          1           0       -5.081729    2.904031    2.039233
     44          1           0        1.157312    3.350318    0.670633
     45          1           0        0.884864    2.374022   -0.768118
     46          1           0        3.242622    1.595271   -0.712356
     47          1           0        3.550989    2.599551    0.691434
     48          1           0        2.923705    4.643847   -0.644541
     49          1           0        2.636306    3.631309   -2.046979
     50          1           0        5.352564    3.944611   -0.631197
     51          1           0        4.909874    4.686694   -2.177466
     52          1           0        5.061636    2.928429   -2.044361
     53          1           0        0.897213   -2.366697   -0.774615
     54          1           0        1.169605   -3.346976    0.661458
     55          1           0        3.560578   -2.589321    0.690848
     56          1           0        3.253073   -1.580518   -0.709664
     57          1           0        2.658125   -3.613016   -2.054636
     58          1           0        2.942751   -4.630302   -0.655065
     59          1           0        5.081602   -2.903602   -2.039502
     60          1           0        4.935095   -4.661740   -2.180212
     61          1           0        5.369492   -3.924613   -0.629216
     62          1           0       -0.884924   -2.374018    0.768219
     63          1           0       -1.157223   -3.350350   -0.670525
     64          1           0       -3.550949   -2.599783   -0.691499
     65          1           0       -3.242760   -1.595426    0.712273
     66          1           0       -2.636339   -3.631377    2.046996
     67          1           0       -2.923562   -4.643978    0.644570
     68          1           0       -5.061724   -2.928733    2.044249
     69          1           0       -4.909822   -4.686987    2.177348
     70          1           0       -5.352489   -3.944929    0.631061
 ---------------------------------------------------------------------

 SCF Done:  E(UB3LYP) =  -1242.06653491     A.U. after   16 cycles

 The electronic state is 1-A.
 Alpha  occ. eigenvalues --  -19.03129 -19.03129 -10.18361 -10.18361 -10.15594
 Alpha  occ. eigenvalues --  -10.15594 -10.15594 -10.15594 -10.15161 -10.15161
 Alpha  occ. eigenvalues --  -10.15161 -10.15160 -10.15076 -10.15076 -10.15075
 Alpha  occ. eigenvalues --  -10.15075 -10.14966 -10.14966 -10.14965 -10.14965
 Alpha  occ. eigenvalues --  -10.14769 -10.14769 -10.14766 -10.14766 -10.14606
 Alpha  occ. eigenvalues --  -10.14577 -10.11907 -10.11907 -10.11906 -10.11906
 Alpha  occ. eigenvalues --   -0.94862  -0.94859  -0.83196  -0.80873  -0.79519
 Alpha  occ. eigenvalues --   -0.78958  -0.77943  -0.77593  -0.74981  -0.74065
 Alpha  occ. eigenvalues --   -0.71647  -0.71058  -0.70628  -0.67858  -0.67841
 Alpha  occ. eigenvalues --   -0.65316  -0.63142  -0.62647  -0.61195  -0.61037
 Alpha  occ. eigenvalues --   -0.57622  -0.57296  -0.56817  -0.56492  -0.54741
 Alpha  occ. eigenvalues --   -0.53782  -0.52239  -0.52110  -0.47624  -0.46808
 Alpha  occ. eigenvalues --   -0.46410  -0.45935  -0.45737  -0.44546  -0.42614
 Alpha  occ. eigenvalues --   -0.42559  -0.42247  -0.42078  -0.41806  -0.41590
 Alpha  occ. eigenvalues --   -0.41551  -0.40588  -0.40381  -0.39660  -0.39532
 Alpha  occ. eigenvalues --   -0.39464  -0.38737  -0.38013  -0.38001  -0.37177
 Alpha  occ. eigenvalues --   -0.36856  -0.36647  -0.36487  -0.35975  -0.35569
 Alpha  occ. eigenvalues --   -0.34507  -0.34469  -0.34364  -0.34098  -0.33435
 Alpha  occ. eigenvalues --   -0.33417  -0.33201  -0.33173  -0.32624  -0.32607
 Alpha  occ. eigenvalues --   -0.32322  -0.31856  -0.31836  -0.31801  -0.31332
 Alpha  occ. eigenvalues --   -0.31122  -0.31103  -0.30373  -0.30188  -0.28508
 Alpha  occ. eigenvalues --   -0.28381  -0.24628  -0.20738  -0.20563  -0.19578
 Alpha  occ. eigenvalues --   -0.19518  -0.18510  -0.12502
 Alpha virt. eigenvalues --   -0.00987  -0.00501  -0.00151  -0.00008   0.00791
 Alpha virt. eigenvalues --    0.00921   0.01033   0.01401   0.01551   0.01790
 Alpha virt. eigenvalues --    0.02089   0.02566   0.02577   0.02937   0.03109

  Beta  occ. eigenvalues --  -19.03129 -19.03129 -10.18361 -10.18361 -10.15594
  Beta  occ. eigenvalues --  -10.15594 -10.15594 -10.15594 -10.15161 -10.15161
  Beta  occ. eigenvalues --  -10.15161 -10.15160 -10.15076 -10.15076 -10.15075
  Beta  occ. eigenvalues --  -10.15075 -10.14966 -10.14966 -10.14965 -10.14965
  Beta  occ. eigenvalues --  -10.14769 -10.14769 -10.14766 -10.14766 -10.14606
  Beta  occ. eigenvalues --  -10.14577 -10.11907 -10.11907 -10.11906 -10.11906
  Beta  occ. eigenvalues --   -0.94862  -0.94859  -0.83196  -0.80873  -0.79519
  Beta  occ. eigenvalues --   -0.78958  -0.77943  -0.77593  -0.74981  -0.74065
  Beta  occ. eigenvalues --   -0.71647  -0.71058  -0.70628  -0.67858  -0.67841
  Beta  occ. eigenvalues --   -0.65316  -0.63142  -0.62647  -0.61195  -0.61037
  Beta  occ. eigenvalues --   -0.57622  -0.57296  -0.56817  -0.56492  -0.54741
  Beta  occ. eigenvalues --   -0.53782  -0.52239  -0.52110  -0.47624  -0.46808
  Beta  occ. eigenvalues --   -0.46410  -0.45935  -0.45737  -0.44546  -0.42614
  Beta  occ. eigenvalues --   -0.42559  -0.42247  -0.42078  -0.41806  -0.41590
  Beta  occ. eigenvalues --   -0.41551  -0.40588  -0.40381  -0.39660  -0.39532
  Beta  occ. eigenvalues --   -0.39464  -0.38737  -0.38013  -0.38001  -0.37177
  Beta  occ. eigenvalues --   -0.36856  -0.36647  -0.36487  -0.35975  -0.35569
  Beta  occ. eigenvalues --   -0.34507  -0.34469  -0.34364  -0.34098  -0.33435
  Beta  occ. eigenvalues --   -0.33417  -0.33201  -0.33173  -0.32624  -0.32607
  Beta  occ. eigenvalues --   -0.32322  -0.31856  -0.31836  -0.31801  -0.31332
  Beta  occ. eigenvalues --   -0.31122  -0.31103  -0.30373  -0.30188  -0.28508
  Beta  occ. eigenvalues --   -0.28381  -0.24628  -0.20738  -0.20563  -0.19578
  Beta  occ. eigenvalues --   -0.19518  -0.18510  -0.12502
  Beta virt. eigenvalues --   -0.00987  -0.00501  -0.00151  -0.00008   0.00791
  Beta virt. eigenvalues --    0.00921   0.01033   0.01401   0.01551   0.01790
  Beta virt. eigenvalues --    0.02089   0.02566   0.02577   0.02937   0.03109

 Mulliken charges and spin densities:
               1          2
     1  C   -0.444380   0.000000
     2  C   -0.344471   0.000000
     3  C   -0.342967   0.000000
     4  C    1.041771  -0.000000
     5  C   -0.030237   0.000000
     6  C    1.040243  -0.000000
     7  C   -0.030162   0.000000
     8  C    1.041727  -0.000000
     9  C    1.040092  -0.000000
    10  C   -0.342951   0.000000
    11  C   -0.344444   0.000000
    12  C   -0.444418  -0.000000
    13  O   -0.660126  -0.000000
    14  O   -0.660127   0.000000
    15  C   -0.358127   0.000000
    16  C   -0.745979   0.000000
    17  C   -0.151165  -0.000000
    18  C   -0.711049   0.000000
    19  C   -0.358799  -0.000000
    20  C   -0.740958   0.000000
    21  C   -0.152107  -0.000000
    22  C   -0.710271   0.000000
    23  C   -0.358229   0.000000
    24  C   -0.745805  -0.000000
    25  C   -0.151216  -0.000000
    26  C   -0.711013   0.000000
    27  C   -0.358780  -0.000000
    28  C   -0.741116   0.000000
    29  C   -0.152105  -0.000000
    30  C   -0.710287   0.000000
    31  H    0.149792   0.000000
    32  H    0.149863   0.000000
    33  H    0.149863  -0.000000
    34  H    0.149793   0.000000
    35  H    0.183684  -0.000000
    36  H    0.106510   0.000000
    37  H    0.045204   0.000000
    38  H    0.153933  -0.000000
    39  H    0.133135   0.000000
    40  H    0.134243   0.000000
    41  H    0.136269   0.000000
    42  H    0.147895  -0.000000
    43  H    0.144603  -0.000000
    44  H    0.183786   0.000000
    45  H    0.105230  -0.000000
    46  H    0.043948  -0.000000
    47  H    0.154557  -0.000000
    48  H    0.133157   0.000000
    49  H    0.134202  -0.000000
    50  H    0.136199  -0.000000
    51  H    0.147884   0.000000
    52  H    0.144630   0.000000
    53  H    0.106470   0.000000
    54  H    0.183682  -0.000000
    55  H    0.153953  -0.000000
    56  H    0.045160  -0.000000
    57  H    0.134241  -0.000000
    58  H    0.133136   0.000000
    59  H    0.144603   0.000000
    60  H    0.147898   0.000000
    61  H    0.136268   0.000000
    62  H    0.105280   0.000000
    63  H    0.183792  -0.000000
    64  H    0.154547  -0.000000
    65  H    0.043973  -0.000000
    66  H    0.134203  -0.000000
    67  H    0.133156  -0.000000
    68  H    0.144630  -0.000000
    69  H    0.147882   0.000000
    70  H    0.136199  -0.000000
 Sum of Mulliken charges =  -2.00000   0.00000

 Dipole moment (field-independent basis, Debye):
    X=              0.0002    Y=              0.0001    Z=             -0.0004  Tot=              0.0005
 Quadrupole moment (field-independent basis, Debye-Ang):
   XX=           -253.1050   YY=           -200.6889   ZZ=           -335.5313
   XY=             -0.0267   XZ=            -75.9897   YZ=             -0.0155

 Normal termination of Gaussian 16 at Sat Jan 13 19:42:55 2024.
