 Gaussian 16, Revision A.03,
 Gaussian 16:  ES64L-G16RevA.03 25-Dec-2016

 ----------------------------------------------------------------------
 #P UB3LYP/6-311++G(d,p) nosym opt freq SCRF=(PCM,Solvent=n,n-DiMethylF
 ormamide)
 ----------------------------------------------------------------------

 -------
 Radical
 -------
 Symbolic Z-matrix:
 Charge = -1 Multiplicity = 2

 SCF Done:  E(UB3LYP) =  -692.716279408     A.U. after   18 cycles
 SCF Done:  E(UB3LYP) =  -692.716590117     A.U. after   13 cycles
 SCF Done:  E(UB3LYP) =  -692.716575674     A.U. after   12 cycles
 SCF Done:  E(UB3LYP) =  -692.716577347     A.U. after   10 cycles
 SCF Done:  E(UB3LYP) =  -692.716565579     A.U. after   12 cycles
 SCF Done:  E(UB3LYP) =  -692.716578096     A.U. after   12 cycles
 SCF Done:  E(UB3LYP) =  -692.716566316     A.U. after   12 cycles
 SCF Done:  E(UB3LYP) =  -692.716578613     A.U. after   12 cycles
 SCF Done:  E(UB3LYP) =  -692.716566059     A.U. after   12 cycles
 SCF Done:  E(UB3LYP) =  -692.716578625     A.U. after   12 cycles
 SCF Done:  E(UB3LYP) =  -692.716565913     A.U. after   12 cycles
 SCF Done:  E(UB3LYP) =  -692.716578632     A.U. after   12 cycles
 Optimization completed.
    -- Stationary point found.
 Normal termination of Gaussian 16 at Sun Feb 11 02:37:16 2024.

 ----------------------------------------------------------------------
 #P Geom=AllCheck Guess=TCheck SCRF=Check GenChk UB3LYP/6-311++G(d,p) F
 req
 ----------------------------------------------------------------------

 Structure from the checkpoint file:  "256-rad.chk"
 -------
 Radical
 -------
 Charge = -1 Multiplicity = 2

                          Input orientation:
 ---------------------------------------------------------------------
 Center     Atomic      Atomic             Coordinates (Angstroms)
 Number     Number       Type             X           Y           Z
 ---------------------------------------------------------------------
      1          6           0       -1.542696    2.785835   -0.057696
      2          6           0       -2.804667    2.211493   -0.024108
      3          6           0       -2.912600    0.794089    0.047214
      4          6           0       -0.359940    2.020804   -0.024665
      5          6           0       -0.467227    0.612609    0.047093
      6          6           0       -1.752157    0.035263    0.081305
      7          6           0        0.952792    2.677689   -0.065415
      8          6           0        2.117070    1.821736   -0.025030
      9          6           0        2.011329    0.434460    0.045940
     10          6           0        0.730952   -0.235219    0.084752
     11          8           0        1.041630    3.943899   -0.133673
     12          8           0        0.627379   -1.500431    0.148442
     13          6           0        3.474200    2.480795   -0.063012
     14          6           0        3.252252   -0.423566    0.084649
     15          1           0       -1.443620    3.864129   -0.111792
     16          6           0       -4.040574    3.077825   -0.063504
     17          6           0       -4.265433    0.124794    0.085363
     18          1           0        3.364024    3.562967   -0.115429
     19          1           0        4.059867    2.150411   -0.928540
     20          1           0        4.066988    2.235882    0.825726
     21          1           0        3.880185   -0.187001    0.951290
     22          1           0        3.876736   -0.271187   -0.803072
     23          1           0        2.978046   -1.476300    0.135804
     24          1           0       -1.817762   -1.045771    0.136011
     25          1           0       -3.774221    4.135019   -0.115636
     26          1           0       -4.665320    2.931144    0.824195
     27          1           0       -4.668865    2.845702   -0.930268
     28          1           0       -4.852752    0.450049    0.950901
     29          1           0       -4.162113   -0.960498    0.138435
     30          1           0       -4.859376    0.363607   -0.803488
 ---------------------------------------------------------------------

 SCF Done:  E(UB3LYP) =  -692.716578632     A.U. after    1 cycles

 Alpha  occ. eigenvalues --  -19.06750 -19.06748 -10.21282 -10.21276 -10.17572
 Alpha  occ. eigenvalues --  -10.17528 -10.16388 -10.16341 -10.16270 -10.16215
 Alpha  occ. eigenvalues --  -10.16165 -10.16165 -10.16081 -10.16075 -10.15015
 Alpha  occ. eigenvalues --  -10.15010  -0.98916  -0.98641  -0.85718  -0.81549
 Alpha  occ. eigenvalues --   -0.77488  -0.75992  -0.71994  -0.69950  -0.69761
 Alpha  occ. eigenvalues --   -0.64909  -0.63452  -0.59014  -0.56620  -0.54351
 Alpha  occ. eigenvalues --   -0.49948  -0.47059  -0.46901  -0.43468  -0.43422
 Alpha  occ. eigenvalues --   -0.42806  -0.42065  -0.41694  -0.40211  -0.39680
 Alpha  occ. eigenvalues --   -0.39175  -0.38779  -0.38417  -0.38243  -0.37944
 Alpha  occ. eigenvalues --   -0.37437  -0.36419  -0.36073  -0.34946  -0.33075
 Alpha  occ. eigenvalues --   -0.32786  -0.32534  -0.25725  -0.24582  -0.23914
 Alpha  occ. eigenvalues --   -0.22857  -0.22855  -0.14525
 Alpha virt. eigenvalues --   -0.02491  -0.00628  -0.00611   0.00073   0.01162
 Alpha virt. eigenvalues --    0.02257   0.02269   0.03043   0.03698   0.03814
 Alpha virt. eigenvalues --    0.04364   0.04710   0.05335   0.05510   0.05709

  Beta  occ. eigenvalues --  -19.06134 -19.06132 -10.21103 -10.21097 -10.17545
  Beta  occ. eigenvalues --  -10.17500 -10.16344 -10.16297 -10.16168 -10.16167
  Beta  occ. eigenvalues --  -10.16132 -10.16076 -10.16070 -10.16064 -10.15026
  Beta  occ. eigenvalues --  -10.15020  -0.97837  -0.97532  -0.85562  -0.81089
  Beta  occ. eigenvalues --   -0.77368  -0.75881  -0.71629  -0.69814  -0.69578
  Beta  occ. eigenvalues --   -0.64785  -0.62779  -0.58965  -0.56319  -0.54006
  Beta  occ. eigenvalues --   -0.49794  -0.46871  -0.46676  -0.43208  -0.43158
  Beta  occ. eigenvalues --   -0.42397  -0.42004  -0.41499  -0.39629  -0.39609
  Beta  occ. eigenvalues --   -0.38723  -0.38381  -0.38145  -0.37892  -0.37784
  Beta  occ. eigenvalues --   -0.37371  -0.36276  -0.34809  -0.33743  -0.32927
  Beta  occ. eigenvalues --   -0.32391  -0.31711  -0.23921  -0.23344  -0.23248
  Beta  occ. eigenvalues --   -0.22296  -0.22206
  Beta virt. eigenvalues --   -0.07905  -0.01783  -0.00595   0.00081   0.00418
  Beta virt. eigenvalues --    0.01174   0.02262   0.02287   0.03145   0.03705
  Beta virt. eigenvalues --    0.03829   0.04376   0.04713   0.05425   0.05529

 Mulliken charges and spin densities:
               1          2
     1  C   -0.263801   0.020259
     2  C    0.286225   0.024793
     3  C    0.285620   0.024703
     4  C    0.069783   0.007661
     5  C    0.069808   0.007601
     6  C   -0.264428   0.020377
     7  C   -0.672232   0.111864
     8  C    0.401157   0.101340
     9  C    0.402797   0.101413
    10  C   -0.670285   0.111870
    11  O   -0.498874   0.224697
    12  O   -0.498931   0.224646
    13  C   -0.429385   0.002157
    14  C   -0.429212   0.002153
    15  H    0.129559  -0.002523
    16  C   -0.486089  -0.001317
    17  C   -0.485992  -0.001310
    18  H    0.181628  -0.001070
    19  H    0.148228   0.004762
    20  H    0.147934   0.004713
    21  H    0.148210   0.004761
    22  H    0.147811   0.004724
    23  H    0.182135  -0.001070
    24  H    0.129065  -0.002536
    25  H    0.172619   0.000074
    26  H    0.155865   0.001298
    27  H    0.156157   0.001298
    28  H    0.156058   0.001297
    29  H    0.172614   0.000074
    30  H    0.155958   0.001292
 Sum of Mulliken charges =  -1.00000   1.00000

 Dipole moment (field-independent basis, Debye):
    X=             -4.2190    Y=             -5.8510    Z=             -0.0352  Tot=              7.2136
 Quadrupole moment (field-independent basis, Debye-Ang):
   XX=            -93.4202   YY=           -144.5589   ZZ=           -100.8091
   XY=             -8.8019   XZ=              0.1210   YZ=              1.8739

  Exact polarizability: 367.129  -2.375 335.537  -0.805  -9.676 146.695
 Approx polarizability: 367.784   1.583 388.467  -0.883 -11.271 168.743

                      1                      2                      3
                      A                      A                      A
 Frequencies --     18.3387                59.2479                71.8894
 Red. masses --      1.2763                 2.9072                 3.5548
 Frc consts  --      0.0003                 0.0060                 0.0108
 IR Inten    --      3.4154                15.7647                 0.5389

                      4                      5                      6
                      A                      A                      A
 Frequencies --    116.7200               127.0906               135.1226
 Red. masses --      1.4388                 2.8303                 1.8342
 Frc consts  --      0.0115                 0.0269                 0.0197
 IR Inten    --      0.5468                 0.3839                 1.6874

                      7                      8                      9
                      A                      A                      A
 Frequencies --    140.7735               178.5525               183.5426
 Red. masses --      1.0845                 1.1442                 4.0852
 Frc consts  --      0.0127                 0.0215                 0.0811
 IR Inten    --      0.0742                 1.2218                 6.8619

                     10                     11                     12
                      A                      A                      A
 Frequencies --    234.1897               244.1597               291.0108
 Red. masses --      3.4790                 3.2021                 2.6988
 Frc consts  --      0.1124                 0.1125                 0.1347
 IR Inten    --      0.0052                 0.8572                 3.9898

                     13                     14                     15
                      A                      A                      A
 Frequencies --    319.9270               333.4009               352.5895
 Red. masses --      2.7533                 3.6996                 4.1319
 Frc consts  --      0.1660                 0.2423                 0.3026
 IR Inten    --      0.1634                 7.0923                11.8426

                     16                     17                     18
                      A                      A                      A
 Frequencies --    355.5887               369.7210               418.5509
 Red. masses --      5.0197                 5.0130                 7.1753
 Frc consts  --      0.3740                 0.4037                 0.7406
 IR Inten    --     11.9133                 0.5262                25.6162

                     19                     20                     21
                      A                      A                      A
 Frequencies --    445.4564               447.8843               469.5369
 Red. masses --      5.2836                 2.9641                 3.7570
 Frc consts  --      0.6177                 0.3503                 0.4880
 IR Inten    --      0.0500                 4.3360                 5.2411

                     22                     23                     24
                      A                      A                      A
 Frequencies --    508.1062               564.7996               584.1602
 Red. masses --     10.4576                 4.2497                 4.3626
 Frc consts  --      1.5907                 0.7987                 0.8771
 IR Inten    --      0.2375                15.8626                 0.0005

                     25                     26                     27
                      A                      A                      A
 Frequencies --    658.5573               676.2816               692.2581
 Red. masses --      4.3917                 5.6508                 3.7818
 Frc consts  --      1.1222                 1.5227                 1.0678
 IR Inten    --     15.1831                 5.3707                 0.0613

                     28                     29                     30
                      A                      A                      A
 Frequencies --    716.7003               744.0398               753.2794
 Red. masses --      5.8322                 3.9235                 4.5006
 Frc consts  --      1.7651                 1.2797                 1.5046
 IR Inten    --     25.5314                24.6750                 7.3908

                     31                     32                     33
                      A                      A                      A
 Frequencies --    782.7851               905.5037               917.4202
 Red. masses --      5.2322                 1.4205                 2.5796
 Frc consts  --      1.8890                 0.6862                 1.2792
 IR Inten    --      0.0023                11.8859                 2.9175

                     34                     35                     36
                      A                      A                      A
 Frequencies --    920.4854               925.8652              1000.1980
 Red. masses --      1.3576                 3.1229                 1.4426
 Frc consts  --      0.6777                 1.5772                 0.8503
 IR Inten    --     16.0215                 1.2677                59.6453

                     37                     38                     39
                      A                      A                      A
 Frequencies --   1024.1146              1026.3565              1029.6815
 Red. masses --      1.4203                 1.5911                 1.5280
 Frc consts  --      0.8777                 0.9875                 0.9545
 IR Inten    --      0.3721                 3.5603                 1.9272

                     40                     41                     42
                      A                      A                      A
 Frequencies --   1044.6730              1052.6829              1065.5259
 Red. masses --      1.4468                 1.5282                 1.6000
 Frc consts  --      0.9303                 0.9977                 1.0703
 IR Inten    --     11.4116                 0.0008                 0.0092

                     43                     44                     45
                      A                      A                      A
 Frequencies --   1103.5535              1119.0888              1151.4255
 Red. masses --      3.7330                 3.2405                 1.8542
 Frc consts  --      2.6785                 2.3911                 1.4484
 IR Inten    --     69.4499                 4.7464                 2.1429

                     46                     47                     48
                      A                      A                      A
 Frequencies --   1203.3195              1228.2504              1251.2849
 Red. masses --      4.5943                 5.3821                 1.5039
 Frc consts  --      3.9195                 4.7839                 1.3873
 IR Inten    --     55.5931                12.6264                35.0738

                     49                     50                     51
                      A                      A                      A
 Frequencies --   1256.9202              1355.9006              1359.8333
 Red. masses --      4.5977                 7.3815                 2.5034
 Frc consts  --      4.2797                 7.9955                 2.7274
 IR Inten    --      4.7371                 0.1134                73.3724

                     52                     53                     54
                      A                      A                      A
 Frequencies --   1380.6740              1389.5055              1405.2028
 Red. masses --      1.7293                 1.2737                 1.2949
 Frc consts  --      1.9422                 1.4489                 1.5065
 IR Inten    --    318.5778                 6.4148                 0.0587

                     55                     56                     57
                      A                      A                      A
 Frequencies --   1411.9354              1442.1499              1464.9216
 Red. masses --      1.2326                 2.3238                 1.4726
 Frc consts  --      1.4478                 2.8476                 1.8619
 IR Inten    --      1.5119               154.0122                 4.0141

                     58                     59                     60
                      A                      A                      A
 Frequencies --   1469.2105              1471.9467              1478.7341
 Red. masses --      1.0446                 2.3535                 1.0507
 Frc consts  --      1.3285                 3.0044                 1.3536
 IR Inten    --      0.0228               889.5665                 0.4546

                     61                     62                     63
                      A                      A                      A
 Frequencies --   1479.6646              1480.9461              1482.2574
 Red. masses --      1.8787                 1.0439                 1.3890
 Frc consts  --      2.4234                 1.3489                 1.7981
 IR Inten    --     53.1514                24.5603                71.9967

                     64                     65                     66
                      A                      A                      A
 Frequencies --   1483.5038              1492.6980              1492.7336
 Red. masses --      2.1673                 1.6651                 1.1632
 Frc consts  --      2.8103                 2.1860                 1.5271
 IR Inten    --     64.0116                15.9006                23.5771

                     67                     68                     69
                      A                      A                      A
 Frequencies --   1498.6167              1531.6293              1600.8117
 Red. masses --      2.0114                 4.2712                 8.4560
 Frc consts  --      2.6616                 5.9035                12.7672
 IR Inten    --    525.1456                10.5827                 0.1770

                     70                     71                     72
                      A                      A                      A
 Frequencies --   1640.7925              3006.1981              3006.6667
 Red. masses --      6.6259                 1.0409                 1.0417
 Frc consts  --     10.5101                 5.5422                 5.5481
 IR Inten    --      2.2863               143.7621                72.8705

                     73                     74                     75
                      A                      A                      A
 Frequencies --   3013.0385              3013.7398              3040.9318
 Red. masses --      1.0387                 1.0380                 1.0992
 Frc consts  --      5.5561                 5.5547                 5.9888
 IR Inten    --     11.8949               127.2763                88.4252

                     76                     77                     78
                      A                      A                      A
 Frequencies --   3043.9431              3054.3595              3055.5873
 Red. masses --      1.0994                 1.0996                 1.0997
 Frc consts  --      6.0020                 6.0441                 6.0495
 IR Inten    --      0.0187                65.7196                 0.0821

                     79                     80                     81
                      A                      A                      A
 Frequencies --   3099.0750              3100.2770              3120.9677
 Red. masses --      1.0995                 1.0991                 1.0954
 Frc consts  --      6.2216                 6.2244                 6.2862
 IR Inten    --     68.9635                 4.0345                15.7032

                     82                     83                     84
                      A                      A                      A
 Frequencies --   3124.5620              3170.0020              3173.9354
 Red. masses --      1.0945                 1.0894                 1.0890
 Frc consts  --      6.2958                 6.4499                 6.4635
 IR Inten    --     17.4249                16.6132                16.1308

 - Thermochemistry -
 -------------------
 Temperature   298.150 Kelvin.  Pressure   1.00000 Atm.
 Atom     1 has atomic number  6 and mass  12.00000

 Molecular mass:   214.09938 amu.
 Principal axes and moments of inertia in atomic units:
                           1         2         3
     Eigenvalues --  1901.782104668.523376525.88789
           X            0.99711   0.07583   0.00408
           Y           -0.07594   0.99581   0.05089
           Z           -0.00020  -0.05105   0.99870
 This molecule is an asymmetric top.
 Rotational symmetry number  1.
 Warning -- assumption of classical behavior for rotation
           may cause significant error
 Rotational temperatures (Kelvin)      0.04554     0.01855     0.01327
 Rotational constants (GHZ):           0.94897     0.38658     0.27655
 Zero-point vibrational energy     628383.8 (Joules/Mol)
                                  150.18733 (Kcal/Mol)
 Warning -- explicit consideration of  24 degrees of freedom as
           vibrations may cause significant error
 Vibrational temperatures:     26.39    85.24   103.43   167.93   182.85
          (Kelvin)            194.41   202.54   256.90   264.08   336.95
                              351.29   418.70   460.30   479.69   507.30
                              511.61   531.95   602.20   640.91   644.41
                              675.56   731.05   812.62   840.48   947.52
                              973.02   996.01  1031.17  1070.51  1083.80
                             1126.25  1302.82  1319.96  1324.37  1332.11
                             1439.06  1473.47  1476.70  1481.48  1503.05
                             1514.58  1533.05  1587.77  1610.12  1656.64
                             1731.31  1767.18  1800.32  1808.43  1950.84
                             1956.50  1986.48  1999.19  2021.77  2031.46
                             2074.93  2107.70  2113.87  2117.80  2127.57
                             2128.91  2130.75  2132.64  2134.43  2147.66
                             2147.71  2156.18  2203.67  2303.21  2360.73
                             4325.25  4325.92  4335.09  4336.10  4375.22
                             4379.56  4394.54  4396.31  4458.88  4460.61
                             4490.38  4495.55  4560.93  4566.59

 Zero-point correction=                           0.239339 (Hartree/Particle)
 Thermal correction to Energy=                    0.254908
 Thermal correction to Enthalpy=                  0.255853
 Thermal correction to Gibbs Free Energy=         0.195393
 Sum of electronic and zero-point Energies=           -692.477240
 Sum of electronic and thermal Energies=              -692.461670
 Sum of electronic and thermal Enthalpies=            -692.460726
 Sum of electronic and thermal Free Energies=         -692.521186

                     E (Thermal)             CV                S
                      KCal/Mol        Cal/Mol-Kelvin    Cal/Mol-Kelvin
 Total                  159.957             58.571            127.248
 Electronic               0.000              0.000              1.377
 Translational            0.889              2.981             41.987
 Rotational               0.889              2.981             32.427
 Vibrational            158.180             52.609             51.456
 Vibration     1          0.593              1.986              6.806
 Vibration     2          0.597              1.974              4.482
 Vibration     3          0.598              1.967              4.101
 Vibration     4          0.608              1.935              3.154
 Vibration     5          0.611              1.926              2.990
 Vibration     6          0.613              1.918              2.872
 Vibration     7          0.615              1.913              2.793
 Vibration     8          0.629              1.869              2.343
 Vibration     9          0.631              1.862              2.292
 Vibration    10          0.654              1.789              1.847
 Vibration    11          0.659              1.772              1.772
 Vibration    12          0.687              1.690              1.468
 Vibration    13          0.706              1.635              1.310
 Vibration    14          0.715              1.609              1.244
 Vibration    15          0.729              1.570              1.155
 Vibration    16          0.731              1.564              1.141
 Vibration    17          0.742              1.534              1.081
 Vibration    18          0.781              1.430              0.897
 Vibration    19          0.805              1.371              0.810
 Vibration    20          0.807              1.366              0.802
 Vibration    21          0.827              1.318              0.739
 Vibration    22          0.863              1.232              0.638
 Vibration    23          0.921              1.107              0.514
 Vibration    24          0.941              1.066              0.478

 Optimization completed on the basis of negligible forces.
    -- Stationary point found.
 Normal termination of Gaussian 16 at Sun Feb 11 03:59:15 2024.
