 Gaussian 16, Revision A.03,
 Gaussian 16:  ES64L-G16RevA.03 25-Dec-2016

 ----------------------------------------------------------------------
 #P UB3LYP/6-311++G(d,p) nosym opt freq SCRF=(PCM,Solvent=n,n-DiMethylF
 ormamide)
 ----------------------------------------------------------------------

 --------
 Oxidized
 --------
 Symbolic Z-matrix:
 Charge =  0 Multiplicity = 1

 SCF Done:  E(UB3LYP) =  -627.534021574     A.U. after   15 cycles
 SCF Done:  E(UB3LYP) =  -627.534096863     A.U. after   11 cycles
 SCF Done:  E(UB3LYP) =  -627.534102848     A.U. after   11 cycles
 SCF Done:  E(UB3LYP) =  -627.534106905     A.U. after   10 cycles
 SCF Done:  E(UB3LYP) =  -627.534107218     A.U. after    9 cycles
 Optimization completed.
    -- Stationary point found.
 Normal termination of Gaussian 16 at Sat Feb 10 23:26:22 2024.

 ----------------------------------------------------------------------
 #P Geom=AllCheck Guess=TCheck SCRF=Check GenChk UB3LYP/6-311++G(d,p) F
 req
 ----------------------------------------------------------------------

 Structure from the checkpoint file:  "227.chk"
 --------
 Oxidized
 --------
 Charge =  0 Multiplicity = 1

                          Input orientation:
 ---------------------------------------------------------------------
 Center     Atomic      Atomic             Coordinates (Angstroms)
 Number     Number       Type             X           Y           Z
 ---------------------------------------------------------------------
      1          6           0        5.680556   -5.108425    1.281408
      2          6           0        6.694907   -5.021038    0.338608
      3          6           0        6.602153   -4.074656   -0.695158
      4          6           0        4.573340   -4.261174    1.205117
      5          6           0        4.482098   -3.314924    0.169269
      6          6           0        5.496561   -3.222297   -0.780129
      7          6           0        3.487471   -4.365298    2.227156
      8          6           0        2.338934   -3.441428    2.099614
      9          6           0        2.253763   -2.539754    1.111317
     10          6           0        3.303326   -2.401966    0.077446
     11          8           0        3.537253   -5.179081    3.137655
     12          8           0        3.199468   -1.570166   -0.812001
     13          6           0        7.647794   -3.980204   -1.668629
     14          7           0        8.492735   -3.904923   -2.453025
     15          1           0        5.737912   -5.832595    2.083654
     16          1           0        7.554353   -5.676436    0.395635
     17          1           0        5.418642   -2.491010   -1.573904
     18          1           0        1.567105   -3.537830    2.854791
     19          1           0        1.409359   -1.865688    1.022462
 ---------------------------------------------------------------------

 SCF Done:  E(UB3LYP) =  -627.534107218     A.U. after    2 cycles

 Alpha  occ. eigenvalues --  -19.14854 -19.14802 -14.33915 -10.29679 -10.29676
 Alpha  occ. eigenvalues --  -10.24940 -10.23854 -10.22822 -10.22656 -10.22476
 Alpha  occ. eigenvalues --  -10.22379 -10.22144 -10.22063 -10.21532  -1.07968
 Alpha  occ. eigenvalues --   -1.07781  -0.94124  -0.91155  -0.85773  -0.80932
 Alpha  occ. eigenvalues --   -0.79884  -0.71955  -0.68849  -0.66610  -0.61175
 Alpha  occ. eigenvalues --   -0.58896  -0.55576  -0.52533  -0.51691  -0.48269
 Alpha  occ. eigenvalues --   -0.47680  -0.47103  -0.46589  -0.45598  -0.44362
 Alpha  occ. eigenvalues --   -0.43028  -0.42198  -0.41484  -0.39871  -0.39346
 Alpha  occ. eigenvalues --   -0.37226  -0.36465  -0.31851  -0.30051  -0.29844
 Alpha  occ. eigenvalues --   -0.29434  -0.29025
 Alpha virt. eigenvalues --   -0.14128  -0.08438  -0.06024  -0.00743   0.00379
 Alpha virt. eigenvalues --    0.00509   0.00797   0.01150   0.01935   0.02376
 Alpha virt. eigenvalues --    0.02832   0.04118   0.04146   0.05243   0.06008

  Beta  occ. eigenvalues --  -19.14854 -19.14802 -14.33915 -10.29679 -10.29676
  Beta  occ. eigenvalues --  -10.24940 -10.23854 -10.22822 -10.22656 -10.22476
  Beta  occ. eigenvalues --  -10.22379 -10.22144 -10.22063 -10.21532  -1.07968
  Beta  occ. eigenvalues --   -1.07781  -0.94124  -0.91155  -0.85773  -0.80932
  Beta  occ. eigenvalues --   -0.79884  -0.71955  -0.68849  -0.66610  -0.61175
  Beta  occ. eigenvalues --   -0.58896  -0.55576  -0.52533  -0.51691  -0.48269
  Beta  occ. eigenvalues --   -0.47680  -0.47103  -0.46589  -0.45598  -0.44362
  Beta  occ. eigenvalues --   -0.43028  -0.42198  -0.41484  -0.39871  -0.39346
  Beta  occ. eigenvalues --   -0.37226  -0.36465  -0.31851  -0.30051  -0.29844
  Beta  occ. eigenvalues --   -0.29434  -0.29025
  Beta virt. eigenvalues --   -0.14128  -0.08438  -0.06024  -0.00743   0.00379
  Beta virt. eigenvalues --    0.00509   0.00797   0.01150   0.01935   0.02376
  Beta virt. eigenvalues --    0.02832   0.04118   0.04146   0.05243   0.06008

 Mulliken charges and spin densities:
               1          2
     1  C    0.576532   0.000000
     2  C   -0.880686  -0.000000
     3  C    2.020528   0.000000
     4  C    0.185527  -0.000000
     5  C   -0.061160  -0.000000
     6  C    0.368032   0.000000
     7  C   -0.709182  -0.000000
     8  C    0.196479   0.000000
     9  C    0.133460  -0.000000
    10  C   -0.537859   0.000000
    11  O   -0.268605   0.000000
    12  O   -0.271256  -0.000000
    13  C   -1.648796  -0.000000
    14  N   -0.228467   0.000000
    15  H    0.198892  -0.000000
    16  H    0.235715   0.000000
    17  H    0.203146  -0.000000
    18  H    0.242008  -0.000000
    19  H    0.245692  -0.000000
 Sum of Mulliken charges =  -0.00000   0.00000

 Dipole moment (field-independent basis, Debye):
    X=             -2.9380    Y=             -0.8125    Z=              3.3853  Tot=              4.5555
 Quadrupole moment (field-independent basis, Debye-Ang):
   XX=           -114.4086   YY=            -77.1716   ZZ=            -95.8144
   XY=              2.3384   XZ=             26.2774   YZ=             -4.4275

  Exact polarizability: 212.012 -36.895 162.376 -61.649 -59.733 206.423
 Approx polarizability: 236.672 -40.674 209.104 -64.247 -92.545 263.160

                      1                      2                      3
                      A                      A                      A
 Frequencies --     68.3648                80.8898               126.3748
 Red. masses --      6.4825                 8.8787                11.4197
 Frc consts  --      0.0179                 0.0342                 0.1075
 IR Inten    --      3.2082                22.5107                 8.4907

                      4                      5                      6
                      A                      A                      A
 Frequencies --    137.9976               221.7874               262.1414
 Red. masses --      5.5710                 7.1033                 4.3897
 Frc consts  --      0.0625                 0.2059                 0.1777
 IR Inten    --      2.8852                 1.6377                 0.1240

                      7                      8                      9
                      A                      A                      A
 Frequencies --    272.0436               334.3244               406.2674
 Red. masses --      7.9784                12.3594                 3.5477
 Frc consts  --      0.3479                 0.8139                 0.3450
 IR Inten    --      3.5050                13.5346                 0.3924

                     10                     11                     12
                      A                      A                      A
 Frequencies --    423.5081               446.7438               450.3238
 Red. masses --      8.6514                 5.4312                11.5685
 Frc consts  --      0.9142                 0.6386                 1.3822
 IR Inten    --     16.3548                 1.1663                14.0298

                     13                     14                     15
                      A                      A                      A
 Frequencies --    512.7969               569.5303               589.3447
 Red. masses --      8.8230                 7.2497                 3.9213
 Frc consts  --      1.3670                 1.3855                 0.8025
 IR Inten    --     23.8214                 0.7543                12.8708

                     16                     17                     18
                      A                      A                      A
 Frequencies --    612.6235               619.4314               642.4315
 Red. masses --      5.4280                 2.7313                 5.8633
 Frc consts  --      1.2003                 0.6174                 1.4258
 IR Inten    --      0.3060                 0.4872                 5.7800

                     19                     20                     21
                      A                      A                      A
 Frequencies --    698.9133               718.5664               778.1467
 Red. masses --      3.7579                 7.0458                 7.0473
 Frc consts  --      1.0815                 2.1435                 2.5142
 IR Inten    --     13.3034                 5.3514                 3.3993

                     22                     23                     24
                      A                      A                      A
 Frequencies --    800.9837               854.1887               886.3186
 Red. masses --      5.2396                 1.6824                 1.7353
 Frc consts  --      1.9806                 0.7233                 0.8032
 IR Inten    --      0.9182               123.6375                 1.2793

                     25                     26                     27
                      A                      A                      A
 Frequencies --    895.8120               949.3788              1009.7889
 Red. masses --      5.4725                 1.4736                 1.3597
 Frc consts  --      2.5874                 0.7826                 0.8169
 IR Inten    --     17.4302                 7.7298                 0.1179

                     28                     29                     30
                      A                      A                      A
 Frequencies --   1018.7312              1058.7589              1073.4313
 Red. masses --      1.2621                 3.5516                 2.5217
 Frc consts  --      0.7717                 2.3457                 1.7120
 IR Inten    --      0.0057                94.0338                20.0192

                     31                     32                     33
                      A                      A                      A
 Frequencies --   1153.7169              1161.7363              1205.8742
 Red. masses --      1.3958                 1.5100                 2.9608
 Frc consts  --      1.0947                 1.2008                 2.5367
 IR Inten    --     29.7325                66.6640                 5.7126

                     34                     35                     36
                      A                      A                      A
 Frequencies --   1248.7533              1297.2334              1312.6504
 Red. masses --      2.0611                 1.8018                 3.7310
 Frc consts  --      1.8937                 1.7865                 3.7877
 IR Inten    --      7.1649                17.1679               509.6946

                     37                     38                     39
                      A                      A                      A
 Frequencies --   1342.3521              1391.0325              1439.8384
 Red. masses --      7.7700                 1.7406                 4.1040
 Frc consts  --      8.2490                 1.9844                 5.0128
 IR Inten    --     23.6195                 8.6305                 5.4056

                     40                     41                     42
                      A                      A                      A
 Frequencies --   1510.2435              1592.8888              1633.8449
 Red. masses --      2.8126                 7.4968                 6.2436
 Frc consts  --      3.7797                11.2071                 9.8199
 IR Inten    --      3.0826                18.8739               168.6837

                     43                     44                     45
                      A                      A                      A
 Frequencies --   1659.7071              1706.9089              1711.3099
 Red. masses --      8.4638                11.2732                10.1645
 Frc consts  --     13.7365                19.3517                17.5386
 IR Inten    --     79.8865               959.7296                33.0939

                     46                     47                     48
                      A                      A                      A
 Frequencies --   2330.7109              3183.1137              3198.7226
 Red. masses --     12.6820                 1.0878                 1.0989
 Frc consts  --     40.5897                 6.4940                 6.6247
 IR Inten    --    114.0400                 2.2382                 3.9912

                     49                     50                     51
                      A                      A                      A
 Frequencies --   3202.8932              3210.8729              3214.8061
 Red. masses --      1.0893                 1.0923                 1.0956
 Frc consts  --      6.5840                 6.6347                 6.6716
 IR Inten    --      0.1983                 2.4996                 1.9018

 - Thermochemistry -
 -------------------
 Temperature   298.150 Kelvin.  Pressure   1.00000 Atm.
 Atom     1 has atomic number  6 and mass  12.00000

 Molecular mass:   183.03203 amu.
 Principal axes and moments of inertia in atomic units:
                           1         2         3
     Eigenvalues --  1396.441163443.209954839.64850
           X            0.81365  -0.33740   0.47343
           Y           -0.08404   0.73754   0.67006
           Z           -0.57525  -0.58498   0.57174
 This molecule is an asymmetric top.
 Rotational symmetry number  1.
 Warning -- assumption of classical behavior for rotation
           may cause significant error
 Rotational temperatures (Kelvin)      0.06202     0.02515     0.01790
 Rotational constants (GHZ):           1.29239     0.52414     0.37291
 Zero-point vibrational energy     342306.4 (Joules/Mol)
                                   81.81318 (Kcal/Mol)
 Warning -- explicit consideration of  17 degrees of freedom as
           vibrations may cause significant error
 Vibrational temperatures:     98.36   116.38   181.83   198.55   319.10
          (Kelvin)            377.16   391.41   481.02   584.53   609.33
                              642.76   647.92   737.80   819.43   847.94
                              881.43   891.22   924.32  1005.58  1033.86
                             1119.58  1152.44  1228.99  1275.21  1288.87
                             1365.94  1452.86  1465.73  1523.32  1544.43
                             1659.94  1671.48  1734.98  1796.68  1866.43
                             1888.61  1931.35  2001.39  2071.61  2172.90
                             2291.81  2350.74  2387.95  2455.86  2462.19
                             3353.37  4579.79  4602.25  4608.25  4619.73
                             4625.39

 Zero-point correction=                           0.130378 (Hartree/Particle)
 Thermal correction to Energy=                    0.140942
 Thermal correction to Enthalpy=                  0.141887
 Thermal correction to Gibbs Free Energy=         0.093497
 Sum of electronic and zero-point Energies=           -627.403730
 Sum of electronic and thermal Energies=              -627.393165
 Sum of electronic and thermal Enthalpies=            -627.392221
 Sum of electronic and thermal Free Energies=         -627.440610

                     E (Thermal)             CV                S
                      KCal/Mol        Cal/Mol-Kelvin    Cal/Mol-Kelvin
 Total                   88.443             40.622            101.845
 Electronic               0.000              0.000              0.000
 Translational            0.889              2.981             41.520
 Rotational               0.889              2.981             31.521
 Vibrational             86.665             34.660             28.805
 Vibration     1          0.598              1.969              4.200
 Vibration     2          0.600              1.962              3.869
 Vibration     3          0.611              1.927              3.000
 Vibration     4          0.614              1.915              2.831
 Vibration     5          0.648              1.808              1.944
 Vibration     6          0.669              1.742              1.647
 Vibration     7          0.675              1.725              1.583
 Vibration     8          0.716              1.607              1.239
 Vibration     9          0.771              1.457              0.940
 Vibration    10          0.786              1.419              0.880
 Vibration    11          0.806              1.368              0.806
 Vibration    12          0.809              1.360              0.795
 Vibration    13          0.868              1.222              0.627
 Vibration    14          0.926              1.097              0.505
 Vibration    15          0.947              1.054              0.468
 Vibration    16          0.972              1.005              0.428
 Vibration    17          0.979              0.991              0.417

 Optimization completed.
    -- Stationary point found.
 Normal termination of Gaussian 16 at Sat Feb 10 23:37:20 2024.
