 Q-Chem 5.4, Q-Chem, Inc., Pleasanton, CA (2021)
 Q-Chem 5.4.0 for Intel X86 EM64T Linux

User input:
--------------------------------------------------------------
$molecule
-2 1
C                  1.0566050000      1.7409920000     -0.0393200000
C                 -0.1712870000      1.0894630000      0.4161080000
C                 -0.4349570000     -0.2284550000      0.2338360000
C                  0.5087460000     -1.1739140000     -0.3621250000
C                  1.7404580000     -0.5870870000     -0.8332980000
C                  1.9220660000      0.8626160000     -0.7634340000
O                  1.2393850000      2.9753150000      0.2010630000
O                  0.2273570000     -2.4160750000     -0.3321920000
S                  3.0929370000      1.6532640000     -1.8249400000
C                  4.4654070000      2.2300130000     -0.7706630000
C                  4.2989030000      3.3878900000     -0.0077970000
C                  5.6576020000      1.5083090000     -0.7364580000
C                  6.7106240000      1.9698980000      0.0533390000
C                  5.3573080000      3.8361370000      0.7815650000
C                  6.5670110000      3.1361370000      0.8089140000
O                  2.5443190000      2.8879310000     -2.4307430000
O                  3.6855860000      0.6822370000     -2.7719220000
H                 -0.8880010000      1.7462710000      0.9069810000
H                 -1.3667970000     -0.6680800000      0.5862040000
H                  3.3313820000      3.8784920000     -0.0228050000
H                  5.7264610000      0.5911680000     -1.3073960000
H                  7.6422840000      1.4117560000      0.0863490000
H                  5.2356760000      4.7332270000      1.3827180000
H                  7.3890090000      3.4909190000      1.4254270000
C                  2.8780090000     -1.4762470000     -1.0244090000
C                  2.6932090000     -2.8068630000     -1.7281740000
C                  1.7503940000     -2.9898540000     -2.7461460000
C                  3.5834770000     -3.8494210000     -1.4511860000
C                  1.7017240000     -4.1789470000     -3.4674570000
C                  2.5833030000     -5.2232830000     -3.1699990000
C                  3.5225930000     -5.0540000000     -2.1525610000
O                  4.0322400000     -1.2184640000     -0.6408720000
H                  1.0607830000     -2.1831140000     -2.9603100000
H                  4.3288690000     -3.6873160000     -0.6809490000
H                  0.9670530000     -4.2991320000     -4.2591580000
H                  2.5389500000     -6.1552160000     -3.7280460000
H                  4.2146040000     -5.8577960000     -1.9123210000
$end

$rem
BASIS  =  6-311++G(d,p)
GUI  =  2
JOB_TYPE  =  SP
METHOD  =  B3LYP
SCF_CONVERGENCE  = 8
SOLVENT_METHOD = sm12
$end

$smx
solvent dimethylformamide
charges CM5
$end

--------------------------------------------------------------

             Standard Nuclear Orientation (Angstroms)
    I     Atom           X                Y                Z
 ----------------------------------------------------------------
    1      C       1.0566050000     1.7409920000    -0.0393200000
    2      C      -0.1712870000     1.0894630000     0.4161080000
    3      C      -0.4349570000    -0.2284550000     0.2338360000
    4      C       0.5087460000    -1.1739140000    -0.3621250000
    5      C       1.7404580000    -0.5870870000    -0.8332980000
    6      C       1.9220660000     0.8626160000    -0.7634340000
    7      O       1.2393850000     2.9753150000     0.2010630000
    8      O       0.2273570000    -2.4160750000    -0.3321920000
    9      S       3.0929370000     1.6532640000    -1.8249400000
   10      C       4.4654070000     2.2300130000    -0.7706630000
   11      C       4.2989030000     3.3878900000    -0.0077970000
   12      C       5.6576020000     1.5083090000    -0.7364580000
   13      C       6.7106240000     1.9698980000     0.0533390000
   14      C       5.3573080000     3.8361370000     0.7815650000
   15      C       6.5670110000     3.1361370000     0.8089140000
   16      O       2.5443190000     2.8879310000    -2.4307430000
   17      O       3.6855860000     0.6822370000    -2.7719220000
   18      H      -0.8880010000     1.7462710000     0.9069810000
   19      H      -1.3667970000    -0.6680800000     0.5862040000
   20      H       3.3313820000     3.8784920000    -0.0228050000
   21      H       5.7264610000     0.5911680000    -1.3073960000
   22      H       7.6422840000     1.4117560000     0.0863490000
   23      H       5.2356760000     4.7332270000     1.3827180000
   24      H       7.3890090000     3.4909190000     1.4254270000
   25      C       2.8780090000    -1.4762470000    -1.0244090000
   26      C       2.6932090000    -2.8068630000    -1.7281740000
   27      C       1.7503940000    -2.9898540000    -2.7461460000
   28      C       3.5834770000    -3.8494210000    -1.4511860000
   29      C       1.7017240000    -4.1789470000    -3.4674570000
   30      C       2.5833030000    -5.2232830000    -3.1699990000
   31      C       3.5225930000    -5.0540000000    -2.1525610000
   32      O       4.0322400000    -1.2184640000    -0.6408720000
   33      H       1.0607830000    -2.1831140000    -2.9603100000
   34      H       4.3288690000    -3.6873160000    -0.6809490000
   35      H       0.9670530000    -4.2991320000    -4.2591580000
   36      H       2.5389500000    -6.1552160000    -3.7280460000
   37      H       4.2146040000    -5.8577960000    -1.9123210000
 ----------------------------------------------------------------

   18   -1505.8049547973      3.79e-09  Convergence criterion met
 Total energy in the final basis set =    -1506.0708448467

                    Orbital Energies (a.u.)
 --------------------------------------------------------------

 Alpha MOs
 -- Occupied --
-89.0220 -19.0857 -19.0839 -19.0764 -19.0402 -19.0358 -10.2321 -10.2075
-10.2045 -10.1981 -10.1875 -10.1855 -10.1851 -10.1835 -10.1830 -10.1811
-10.1807 -10.1795 -10.1786 -10.1769 -10.1760 -10.1642 -10.1624 -10.1611
-10.1479  -8.0850  -6.0481  -6.0469  -6.0458  -1.0759  -1.0042  -0.9702
 -0.9623  -0.9587  -0.8671  -0.8596  -0.8074  -0.7702  -0.7621  -0.7563
 -0.7508  -0.7430  -0.6975  -0.6506  -0.6332  -0.6158  -0.6110  -0.6048
 -0.5869  -0.5544  -0.5411  -0.5230  -0.5038  -0.4797  -0.4695  -0.4653
 -0.4621  -0.4577  -0.4536  -0.4480  -0.4414  -0.4317  -0.4291  -0.4265
 -0.4215  -0.4084  -0.3861  -0.3840  -0.3795  -0.3792  -0.3703  -0.3642
 -0.3600  -0.3576  -0.3517  -0.3467  -0.3430  -0.3318  -0.3105  -0.2958
 -0.2791  -0.2768  -0.2659  -0.2634  -0.2608  -0.2582  -0.2490  -0.2381
 -0.2291  -0.2115  -0.2025  -0.1446

          Ground-State Mulliken Net Atomic Charges

     Atom                 Charge (a.u.)
  ----------------------------------------
      1 C                    -0.648869
      2 C                     0.023540
      3 C                     0.112231
      4 C                    -1.495022
      5 C                    -0.863520
      6 C                    -1.190808
      7 O                    -0.266308
      8 O                    -0.272181
      9 S                    -0.345412
     10 C                    -2.706602
     11 C                    -1.064841
     12 C                    -0.311131
     13 C                     0.933633
     14 C                     0.840754
     15 C                     2.042714
     16 O                    -0.044397
     17 O                    -0.157073
     18 H                     0.236134
     19 H                     0.231185
     20 H                     0.109231
     21 H                     0.141599
     22 H                     0.373870
     23 H                     0.365768
     24 H                     0.478190
     25 C                    -2.209605
     26 C                    -0.072670
     27 C                    -2.075357
     28 C                     0.530333
     29 C                     0.625606
     30 C                     1.881264
     31 C                     1.585031
     32 O                    -0.139825
     33 H                    -0.017663
     34 H                     0.185071
     35 H                     0.340796
     36 H                     0.457320
     37 H                     0.387015
  ----------------------------------------
  Sum of atomic charges =    -2.000000

                    Cartesian Multipole Moments
 -----------------------------------------------------------------
    Charge (ESU x 10^10)
                -9.6064
    Dipole Moment (Debye)
         X     -18.6427      Y      -3.0617      Z       9.7233
       Tot      21.2477
    Quadrupole Moments (Debye-Ang)
        XX    -220.0685     XY     -13.1006     YY    -221.1711
        XZ      35.2759     YZ       9.5174     ZZ    -187.6650

 Total job time:  1821.56s(wall), 13935.77s(cpu)
        *  Thank you very much for using Q-Chem.  Have a nice day.  *
