 Gaussian 16, Revision A.03,
 Gaussian 16:  ES64L-G16RevA.03 25-Dec-2016

 --------------------------------------
 #P UB3LYP/6-311++G(d,p) nosym opt freq
 --------------------------------------

 -------
 Reduced
 -------
 Symbolic Z-matrix:
 Charge = -2 Multiplicity = 1

 SCF Done:  E(UB3LYP) =  -1505.81708985     A.U. after   23 cycles
 SCF Done:  E(UB3LYP) =  -1505.81708986     A.U. after   12 cycles
 Optimization completed.
    -- Stationary point found.
 Normal termination of Gaussian 16 at Wed Jan 10 05:24:24 2024.

 ----------------------------------------------------------------------
 #P Geom=AllCheck Guess=TCheck SCRF=Check GenChk UB3LYP/6-311++G(d,p) F
 req
 ----------------------------------------------------------------------

 Structure from the checkpoint file:  "069-an.chk"
 -------
 Reduced
 -------
 Charge = -2 Multiplicity = 1

                          Input orientation:
 ---------------------------------------------------------------------
 Center     Atomic      Atomic             Coordinates (Angstroms)
 Number     Number       Type             X           Y           Z
 ---------------------------------------------------------------------
      1          6           0        1.056605    1.740992   -0.039320
      2          6           0       -0.171287    1.089463    0.416108
      3          6           0       -0.434957   -0.228455    0.233836
      4          6           0        0.508746   -1.173914   -0.362125
      5          6           0        1.740458   -0.587087   -0.833298
      6          6           0        1.922066    0.862616   -0.763434
      7          8           0        1.239385    2.975315    0.201063
      8          8           0        0.227357   -2.416075   -0.332192
      9         16           0        3.092937    1.653264   -1.824940
     10          6           0        4.465407    2.230013   -0.770663
     11          6           0        4.298903    3.387890   -0.007797
     12          6           0        5.657602    1.508309   -0.736458
     13          6           0        6.710624    1.969898    0.053339
     14          6           0        5.357308    3.836137    0.781565
     15          6           0        6.567011    3.136137    0.808914
     16          8           0        2.544319    2.887931   -2.430743
     17          8           0        3.685586    0.682237   -2.771922
     18          1           0       -0.888001    1.746271    0.906981
     19          1           0       -1.366797   -0.668080    0.586204
     20          1           0        3.331382    3.878492   -0.022805
     21          1           0        5.726461    0.591168   -1.307396
     22          1           0        7.642284    1.411756    0.086349
     23          1           0        5.235676    4.733227    1.382718
     24          1           0        7.389009    3.490919    1.425427
     25          6           0        2.878009   -1.476247   -1.024409
     26          6           0        2.693209   -2.806863   -1.728174
     27          6           0        1.750394   -2.989854   -2.746146
     28          6           0        3.583477   -3.849421   -1.451186
     29          6           0        1.701724   -4.178947   -3.467457
     30          6           0        2.583303   -5.223283   -3.169999
     31          6           0        3.522593   -5.054000   -2.152561
     32          8           0        4.032240   -1.218464   -0.640872
     33          1           0        1.060783   -2.183114   -2.960310
     34          1           0        4.328869   -3.687316   -0.680949
     35          1           0        0.967053   -4.299132   -4.259158
     36          1           0        2.538950   -6.155216   -3.728046
     37          1           0        4.214604   -5.857796   -1.912321
 ---------------------------------------------------------------------

 SCF Done:  E(UB3LYP) =  -1505.81708986     A.U. after    2 cycles

 Alpha  occ. eigenvalues --  -88.79687 -18.85962 -18.85788 -18.84927 -18.81106
 Alpha  occ. eigenvalues --  -18.80715 -10.00548  -9.99064  -9.98627  -9.98551
 Alpha  occ. eigenvalues --   -9.98510  -9.98433  -9.98140  -9.97792  -9.97744
 Alpha  occ. eigenvalues --   -9.97564  -9.97491  -9.97235  -9.96809  -9.96712
 Alpha  occ. eigenvalues --   -9.96639  -9.93332  -9.93263  -9.93151  -9.91841
 Alpha  occ. eigenvalues --   -7.85973  -5.82275  -5.82174  -5.82045  -0.85013
 Alpha  occ. eigenvalues --   -0.77741  -0.74346  -0.73296  -0.72904  -0.66312
 Alpha  occ. eigenvalues --   -0.65446  -0.57806  -0.56175  -0.55336  -0.55268
 Alpha  occ. eigenvalues --   -0.54630  -0.51802  -0.47345  -0.43119  -0.41803
 Alpha  occ. eigenvalues --   -0.41195  -0.40516  -0.39258  -0.36844  -0.33945
 Alpha  occ. eigenvalues --   -0.33058  -0.31027  -0.29199  -0.26623  -0.26089
 Alpha  occ. eigenvalues --   -0.25427  -0.24672  -0.24517  -0.23686  -0.23275
 Alpha  occ. eigenvalues --   -0.22816  -0.22414  -0.22101  -0.20650  -0.19636
 Alpha  occ. eigenvalues --   -0.18607  -0.17603  -0.17305  -0.17215  -0.15808
 Alpha  occ. eigenvalues --   -0.15317  -0.14817  -0.14414  -0.14127  -0.13520
 Alpha  occ. eigenvalues --   -0.12820  -0.11768  -0.10353  -0.08491  -0.07231
 Alpha  occ. eigenvalues --   -0.06593  -0.05994  -0.05564  -0.05458  -0.04444
 Alpha  occ. eigenvalues --   -0.04229  -0.01915  -0.01318  -0.00069   0.01705
 Alpha  occ. eigenvalues --    0.02541   0.08555
 Alpha virt. eigenvalues --    0.13621   0.13672   0.15467   0.15829   0.16290
 Alpha virt. eigenvalues --    0.17029   0.17052   0.17510   0.17587   0.18183
 Alpha virt. eigenvalues --    0.18817   0.19767   0.19951   0.20159   0.20909

  Beta  occ. eigenvalues --  -88.79687 -18.85962 -18.85788 -18.84927 -18.81106
  Beta  occ. eigenvalues --  -18.80715 -10.00548  -9.99064  -9.98627  -9.98551
  Beta  occ. eigenvalues --   -9.98510  -9.98433  -9.98140  -9.97792  -9.97744
  Beta  occ. eigenvalues --   -9.97564  -9.97491  -9.97235  -9.96809  -9.96712
  Beta  occ. eigenvalues --   -9.96639  -9.93332  -9.93263  -9.93151  -9.91841
  Beta  occ. eigenvalues --   -7.85973  -5.82275  -5.82174  -5.82045  -0.85013
  Beta  occ. eigenvalues --   -0.77741  -0.74346  -0.73296  -0.72904  -0.66312
  Beta  occ. eigenvalues --   -0.65446  -0.57806  -0.56175  -0.55336  -0.55268
  Beta  occ. eigenvalues --   -0.54630  -0.51802  -0.47345  -0.43119  -0.41803
  Beta  occ. eigenvalues --   -0.41195  -0.40516  -0.39258  -0.36844  -0.33945
  Beta  occ. eigenvalues --   -0.33058  -0.31027  -0.29199  -0.26623  -0.26089
  Beta  occ. eigenvalues --   -0.25427  -0.24672  -0.24517  -0.23686  -0.23275
  Beta  occ. eigenvalues --   -0.22816  -0.22414  -0.22101  -0.20650  -0.19636
  Beta  occ. eigenvalues --   -0.18607  -0.17603  -0.17305  -0.17215  -0.15808
  Beta  occ. eigenvalues --   -0.15317  -0.14817  -0.14414  -0.14127  -0.13520
  Beta  occ. eigenvalues --   -0.12820  -0.11768  -0.10353  -0.08491  -0.07231
  Beta  occ. eigenvalues --   -0.06593  -0.05994  -0.05564  -0.05458  -0.04444
  Beta  occ. eigenvalues --   -0.04229  -0.01915  -0.01318  -0.00069   0.01705
  Beta  occ. eigenvalues --    0.02541   0.08555
  Beta virt. eigenvalues --    0.13621   0.13672   0.15467   0.15829   0.16290
  Beta virt. eigenvalues --    0.17029   0.17052   0.17510   0.17587   0.18183
  Beta virt. eigenvalues --    0.18817   0.19767   0.19951   0.20159   0.20909

 Mulliken charges and spin densities:
               1          2
     1  C   -0.153492  -0.000000
     2  C   -0.224350   0.000000
     3  C   -0.100285  -0.000000
     4  C   -0.751879   0.000000
     5  C    0.672235   0.000000
     6  C    0.062963   0.000000
     7  O   -0.381582   0.000000
     8  O   -0.373637  -0.000000
     9  S    0.078289  -0.000000
    10  C   -0.013177  -0.000000
    11  C    0.022614   0.000000
    12  C    0.239620  -0.000000
    13  C   -0.544038  -0.000000
    14  C   -0.539624  -0.000000
    15  C   -0.164953   0.000000
    16  O   -0.080554   0.000000
    17  O   -0.183931   0.000000
    18  H    0.119372   0.000000
    19  H    0.121121  -0.000000
    20  H    0.298329  -0.000000
    21  H    0.278999  -0.000000
    22  H    0.127657  -0.000000
    23  H    0.125558  -0.000000
    24  H    0.102074   0.000000
    25  C   -0.887722  -0.000000
    26  C    1.228630  -0.000000
    27  C   -0.971431   0.000000
    28  C    0.586508  -0.000000
    29  C   -0.564895  -0.000000
    30  C   -0.334210  -0.000000
    31  C   -0.214431  -0.000000
    32  O   -0.248415  -0.000000
    33  H    0.172611   0.000000
    34  H    0.173294  -0.000000
    35  H    0.125154  -0.000000
    36  H    0.087105   0.000000
    37  H    0.110471   0.000000
 Sum of Mulliken charges =  -2.00000   0.00000

 Dipole moment (field-independent basis, Debye):
    X=            -21.5085    Y=             -1.8068    Z=              9.8280  Tot=             23.7165
 Quadrupole moment (field-independent basis, Debye-Ang):
   XX=           -242.3829   YY=           -238.7628   ZZ=           -191.5948
   XY=            -15.1134   XZ=             32.8694   YZ=             -1.0528

  Exact polarizability: 358.219  13.515 381.721  -3.283  75.490 232.782
 Approx polarizability: 622.277 -29.364 567.940 -17.769 100.702 380.895

                      1                      2                      3
                      A                      A                      A
 Frequencies --     18.9404                32.6009                41.8249
 Red. masses --      5.8785                 5.2619                 7.1202
 Frc consts  --      0.0012                 0.0033                 0.0073
 IR Inten    --      1.4733                 1.3895                 2.8830

                      4                      5                      6
                      A                      A                      A
 Frequencies --     42.8750                54.1894                73.1282
 Red. masses --      4.6775                 4.9851                 5.6027
 Frc consts  --      0.0051                 0.0086                 0.0177
 IR Inten    --      1.1474                 0.8816                 1.1970

                      7                      8                      9
                      A                      A                      A
 Frequencies --    109.6106               116.8971               150.1258
 Red. masses --      6.6350                 6.9192                 7.3153
 Frc consts  --      0.0470                 0.0557                 0.0971
 IR Inten    --      0.2531                 5.5752                 1.7491

                     10                     11                     12
                      A                      A                      A
 Frequencies --    160.7340               176.5832               194.2407
 Red. masses --      8.0129                 9.4338                 7.5695
 Frc consts  --      0.1220                 0.1733                 0.1683
 IR Inten    --      5.7757                 0.8599                 3.0793

                     13                     14                     15
                      A                      A                      A
 Frequencies --    204.4655               219.3184               256.6601
 Red. masses --      6.3281                 8.2002                 8.1055
 Frc consts  --      0.1559                 0.2324                 0.3146
 IR Inten    --      8.6073                 4.2602                 2.2507

                     16                     17                     18
                      A                      A                      A
 Frequencies --    282.7833               297.3594               309.7906
 Red. masses --     10.8302                 8.1478                 7.6746
 Frc consts  --      0.5103                 0.4245                 0.4340
 IR Inten    --      2.4218                 2.3468                 1.3905

                     19                     20                     21
                      A                      A                      A
 Frequencies --    315.8859               365.1766               400.1349
 Red. masses --      6.6623                 9.2737                 8.7359
 Frc consts  --      0.3917                 0.7286                 0.8241
 IR Inten    --      1.5132                 2.0133                 4.5789

                     22                     23                     24
                      A                      A                      A
 Frequencies --    409.3177               413.1169               415.0340
 Red. masses --      4.6734                 3.2875                 2.9309
 Frc consts  --      0.4613                 0.3306                 0.2975
 IR Inten    --      5.6963                 1.6155                 0.2117

                     25                     26                     27
                      A                      A                      A
 Frequencies --    439.0225               459.5222               463.6939
 Red. masses --      6.2539                10.1451                 6.2517
 Frc consts  --      0.7102                 1.2622                 0.7920
 IR Inten    --     13.2110                18.9373                 3.9484

                     28                     29                     30
                      A                      A                      A
 Frequencies --    493.8988               524.0075               559.8913
 Red. masses --      4.9158                 5.8996                 7.4449
 Frc consts  --      0.7065                 0.9544                 1.3750
 IR Inten    --      8.5093                29.6284                93.4452

                     31                     32                     33
                      A                      A                      A
 Frequencies --    585.3746               603.9184               627.5845
 Red. masses --      8.0534                 2.8118                 6.3573
 Frc consts  --      1.6259                 0.6042                 1.4753
 IR Inten    --     85.4637                28.4017                 0.6899

                     34                     35                     36
                      A                      A                      A
 Frequencies --    631.5223               632.0997               663.3451
 Red. masses --      6.3719                 4.9715                 5.5189
 Frc consts  --      1.4973                 1.1703                 1.4308
 IR Inten    --      0.4112                23.7411                27.5496

                     37                     38                     39
                      A                      A                      A
 Frequencies --    691.9178               692.4095               696.8242
 Red. masses --      1.8870                 1.6681                 3.7778
 Frc consts  --      0.5323                 0.4712                 1.0808
 IR Inten    --     25.3805                70.7816                20.5926

                     40                     41                     42
                      A                      A                      A
 Frequencies --    710.9551               733.5193               749.3184
 Red. masses --      5.0524                 5.8802                 2.0445
 Frc consts  --      1.5047                 1.8641                 0.6764
 IR Inten    --     13.1793                27.0083                 8.8390

                     43                     44                     45
                      A                      A                      A
 Frequencies --    763.1885               791.1808               831.0773
 Red. masses --      4.3414                 4.1417                 1.3101
 Frc consts  --      1.4899                 1.5275                 0.5331
 IR Inten    --     31.3004                 4.4029                 6.0496

                     46                     47                     48
                      A                      A                      A
 Frequencies --    833.2456               838.7630               848.7050
 Red. masses --      2.9835                 1.2657                 3.1388
 Frc consts  --      1.2204                 0.5246                 1.3321
 IR Inten    --     52.3623                 1.2008                46.6540

                     49                     50                     51
                      A                      A                      A
 Frequencies --    884.2872               909.3152               911.0183
 Red. masses --      8.1835                 1.5313                 1.4396
 Frc consts  --      3.7703                 0.7460                 0.7040
 IR Inten    --     48.1776                 4.5169                 2.5738

                     52                     53                     54
                      A                      A                      A
 Frequencies --    961.5666               969.3785               970.1369
 Red. masses --      1.2950                 1.3086                 1.3191
 Frc consts  --      0.7055                 0.7245                 0.7315
 IR Inten    --      1.8571                 2.5152                 2.7133

                     55                     56                     57
                      A                      A                      A
 Frequencies --    970.4814               980.5284              1010.8001
 Red. masses --      1.3321                 1.3881                 4.9944
 Frc consts  --      0.7392                 0.7863                 3.0065
 IR Inten    --      1.7923                 4.6018                22.7569

                     58                     59                     60
                      A                      A                      A
 Frequencies --   1013.1577              1023.8258              1035.3453
 Red. masses --      6.1952                 5.3323                 5.9360
 Frc consts  --      3.7468                 3.2932                 3.7490
 IR Inten    --     14.3308                43.3856                89.2958

                     61                     62                     63
                      A                      A                      A
 Frequencies --   1045.5943              1050.1364              1079.1430
 Red. masses --      2.0982                 3.1670                 2.2450
 Frc consts  --      1.3515                 2.0577                 1.5403
 IR Inten    --      5.3863                73.3812                22.5957

                     64                     65                     66
                      A                      A                      A
 Frequencies --   1088.3010              1090.3160              1098.7091
 Red. masses --      1.6036                 1.7898                 3.5949
 Frc consts  --      1.1191                 1.2536                 2.5568
 IR Inten    --     22.3057                15.1827                64.5438

                     67                     68                     69
                      A                      A                      A
 Frequencies --   1136.2879              1163.2736              1166.6573
 Red. masses --      1.6809                 1.0955                 1.1061
 Frc consts  --      1.2787                 0.8735                 0.8870
 IR Inten    --     86.7879                 1.2325                 0.3507

                     70                     71                     72
                      A                      A                      A
 Frequencies --   1180.7724              1192.6910              1198.6260
 Red. masses --      1.1779                 1.1927                11.5296
 Frc consts  --      0.9676                 0.9996                 9.7596
 IR Inten    --     15.1130                 1.8397                98.9486

                     73                     74                     75
                      A                      A                      A
 Frequencies --   1207.0519              1245.9683              1294.3594
 Red. masses --      3.2269                 9.6736                 3.4743
 Frc consts  --      2.7701                 8.8481                 3.4295
 IR Inten    --     52.1199                31.9892               114.3248

                     76                     77                     78
                      A                      A                      A
 Frequencies --   1325.1117              1328.1464              1341.9098
 Red. masses --      1.9084                 2.7665                 2.8139
 Frc consts  --      1.9743                 2.8752                 2.9855
 IR Inten    --     17.9566                 1.1575                30.9717

                     79                     80                     81
                      A                      A                      A
 Frequencies --   1346.0720              1349.3434              1409.5484
 Red. masses --      2.9950                 2.0232                 4.8671
 Frc consts  --      3.1973                 2.1704                 5.6975
 IR Inten    --     92.3815                42.4462                60.9168

                     82                     83                     84
                      A                      A                      A
 Frequencies --   1463.1132              1464.2552              1480.5596
 Red. masses --      2.2568                 2.1952                 9.7154
 Frc consts  --      2.8464                 2.7730                12.5477
 IR Inten    --      1.3244                 5.2557               172.7193

                     85                     86                     87
                      A                      A                      A
 Frequencies --   1500.2132              1507.7659              1511.4688
 Red. masses --      2.2029                 2.2883                 5.2301
 Frc consts  --      2.9212                 3.0650                 7.0398
 IR Inten    --    139.6378                 4.4444               511.7998

                     88                     89                     90
                      A                      A                      A
 Frequencies --   1574.0358              1608.7870              1610.5448
 Red. masses --      8.4294                 5.7537                 5.1697
 Frc consts  --     12.3048                 8.7739                 7.9006
 IR Inten    --    392.9416                35.7555                58.2694

                     91                     92                     93
                      A                      A                      A
 Frequencies --   1616.4347              1625.2814              1634.2440
 Red. masses --      6.2861                 5.8333                 7.3588
 Frc consts  --      9.6771                 9.0787                11.5796
 IR Inten    --     79.6189                34.4319                28.7380

                     94                     95                     96
                      A                      A                      A
 Frequencies --   3099.0717              3112.9399              3119.0459
 Red. masses --      1.0836                 1.0828                 1.0832
 Frc consts  --      6.1319                 6.1822                 6.2090
 IR Inten    --     26.3359                 6.5230                 2.1153

                     97                     98                     99
                      A                      A                      A
 Frequencies --   3126.9105              3129.4457              3137.2080
 Red. masses --      1.0951                 1.0888                 1.0892
 Frc consts  --      6.3085                 6.2828                 6.3159
 IR Inten    --    134.8106                65.5287                59.8883

                    100                    101                    102
                      A                      A                      A
 Frequencies --   3146.4207              3150.8233              3175.4868
 Red. masses --      1.0947                 1.0951                 1.0939
 Frc consts  --      6.3854                 6.4056                 6.4993
 IR Inten    --    118.5949                87.9393                26.7554

                    103                    104                    105
                      A                      A                      A
 Frequencies --   3179.1918              3195.7652              3205.2904
 Red. masses --      1.0910                 1.0923                 1.0922
 Frc consts  --      6.4971                 6.5724                 6.6115
 IR Inten    --     17.5700                 6.1828                 8.4730

 - Thermochemistry -
 -------------------
 Temperature   298.150 Kelvin.  Pressure   1.00000 Atm.
 Atom     1 has atomic number  6 and mass  12.00000

 Molecular mass:   352.04055 amu.
 Principal axes and moments of inertia in atomic units:
                           1         2         3
     Eigenvalues --  5111.66866********************
           X            0.31473   0.94227   0.11431
           Y            0.91332  -0.26785  -0.30676
           Z            0.25843  -0.20095   0.94490
 This molecule is an asymmetric top.
 Rotational symmetry number  1.
 Warning -- assumption of classical behavior for rotation
           may cause significant error
 Rotational temperatures (Kelvin)      0.01694     0.00746     0.00602
 Rotational constants (GHZ):           0.35306     0.15538     0.12553
 Zero-point vibrational energy     683533.9 (Joules/Mol)
                                  163.36852 (Kcal/Mol)
 Warning -- explicit consideration of  32 degrees of freedom as
           vibrations may cause significant error
 Vibrational temperatures:     27.25    46.91    60.18    61.69    77.97
          (Kelvin)            105.22   157.71   168.19   216.00   231.26
                              254.06   279.47   294.18   315.55   369.28
                              406.86   427.83   445.72   454.49   525.41
                              575.70   588.92   594.38   597.14   631.66
                              661.15   667.15   710.61   753.93   805.56
                              842.22   868.90   902.95   908.62   909.45
                              954.41   995.52   996.22  1002.57  1022.91
                             1055.37  1078.10  1098.06  1138.33  1195.73
                             1198.85  1206.79  1221.10  1272.29  1308.30
                             1310.75  1383.48  1394.72  1395.81  1396.31
                             1410.76  1454.32  1457.71  1473.06  1489.63
                             1504.38  1510.91  1552.65  1565.82  1568.72
                             1580.80  1634.86  1673.69  1678.56  1698.87
                             1716.02  1724.56  1736.68  1792.67  1862.29
                             1906.54  1910.91  1930.71  1936.70  1941.40
                             2028.03  2105.09  2106.74  2130.20  2158.47
                             2169.34  2174.67  2264.69  2314.69  2317.21
                             2325.69  2338.42  2351.31  4458.87  4478.83
                             4487.61  4498.93  4502.57  4513.74  4527.00
                             4533.33  4568.82  4574.15  4597.99  4611.70

 Zero-point correction=                           0.260344 (Hartree/Particle)
 Thermal correction to Energy=                    0.281210
 Thermal correction to Enthalpy=                  0.282154
 Thermal correction to Gibbs Free Energy=         0.208857
 Sum of electronic and zero-point Energies=          -1505.556746
 Sum of electronic and thermal Energies=             -1505.535880
 Sum of electronic and thermal Enthalpies=           -1505.534936
 Sum of electronic and thermal Free Energies=        -1505.608233

                     E (Thermal)             CV                S
                      KCal/Mol        Cal/Mol-Kelvin    Cal/Mol-Kelvin
 Total                  176.462             80.928            154.268
 Electronic               0.000              0.000              0.000
 Translational            0.889              2.981             43.470
 Rotational               0.889              2.981             35.100
 Vibrational            174.684             74.966             75.698
 Vibration     1          0.593              1.986              6.742
 Vibration     2          0.594              1.983              5.665
 Vibration     3          0.594              1.980              5.171
 Vibration     4          0.595              1.980              5.122
 Vibration     5          0.596              1.976              4.658
 Vibration     6          0.599              1.967              4.067
 Vibration     7          0.606              1.942              3.276
 Vibration     8          0.608              1.935              3.151
 Vibration     9          0.618              1.903              2.671
 Vibration    10          0.622              1.891              2.541
 Vibration    11          0.628              1.871              2.364
 Vibration    12          0.635              1.848              2.187
 Vibration    13          0.640              1.834              2.093
 Vibration    14          0.647              1.812              1.965
 Vibration    15          0.666              1.752              1.684
 Vibration    16          0.682              1.706              1.517
 Vibration    17          0.691              1.679              1.432
 Vibration    18          0.699              1.655              1.363
 Vibration    19          0.703              1.643              1.331
 Vibration    20          0.738              1.544              1.100
 Vibration    21          0.766              1.470              0.962
 Vibration    22          0.774              1.450              0.929
 Vibration    23          0.777              1.442              0.916
 Vibration    24          0.778              1.438              0.909
 Vibration    25          0.799              1.385              0.830
 Vibration    26          0.817              1.340              0.767
 Vibration    27          0.821              1.331              0.755
 Vibration    28          0.850              1.264              0.674
 Vibration    29          0.879              1.197              0.601
 Vibration    30          0.916              1.118              0.524
 Vibration    31          0.942              1.063              0.476
 Vibration    32          0.962              1.023              0.443

 Optimization completed.
    -- Stationary point found.
 Normal termination of Gaussian 16 at Wed Jan 10 09:35:31 2024.
