 Q-Chem 5.4, Q-Chem, Inc., Pleasanton, CA (2021)
 Q-Chem 5.4.0 for Intel X86 EM64T Linux

User input:
--------------------------------------------------------------
$molecule
-2 1
C                 -2.8843430000     -1.9256500000     -0.1399690000
C                 -2.3917450000     -0.4940100000     -0.0503840000
C                 -3.3514160000      0.4996790000      0.0495630000
C                 -2.9957740000      1.8747440000      0.1380710000
C                 -1.6678480000      2.2241300000      0.1236060000
C                 -0.6322060000      1.2569960000      0.0233770000
C                  0.7284020000      1.7460540000      0.0179440000
O                  1.0207300000      3.0016830000      0.0989360000
C                  1.7355600000      0.7202780000     -0.0853430000
C                  3.1082530000      1.0848350000     -0.1003040000
C                  4.1194270000      0.1519860000     -0.1968450000
C                  3.7904770000     -1.2326100000     -0.2856410000
C                  2.4653880000     -1.6186260000     -0.2736850000
C                  1.3993560000     -0.6867970000     -0.1756110000
C                  0.0372440000     -1.1821670000     -0.1704800000
O                 -0.2093850000     -2.4479010000     -0.2532060000
C                 -0.9881120000     -0.1621640000     -0.0676740000
H                 -3.9843070000     -1.9377750000     -0.1088890000
H                 -2.4865440000     -2.5394440000      0.6709340000
H                 -2.5367710000     -2.4140540000     -1.0527850000
H                 -4.4031650000      0.2149510000      0.0598890000
H                 -3.7724310000      2.6346710000      0.2158680000
H                 -1.3448710000      3.2585020000      0.1883500000
H                  3.3215750000      2.1475360000     -0.0309530000
H                  5.1619260000      0.4683670000     -0.2053660000
H                  4.5803790000     -1.9788840000     -0.3622880000
H                  2.1802020000     -2.6643340000     -0.3397380000
$end
$rem
MAX_SCF_CYCLES=200
BASIS  =  6-311++G(d,p)
GUI  =  2
JOB_TYPE  =  SP
METHOD  =  B3LYP
SOLVENT_METHOD = PCM
$end
$pcm
theory = CPCM
$end
$solvent
dielectric 37.219
opticaldielectric 1.43
$end

--------------------------------------------------------------

             Standard Nuclear Orientation (Angstroms)
    I     Atom           X                Y                Z
 ----------------------------------------------------------------
    1      C      -2.8843430000    -1.9256500000    -0.1399690000
    2      C      -2.3917450000    -0.4940100000    -0.0503840000
    3      C      -3.3514160000     0.4996790000     0.0495630000
    4      C      -2.9957740000     1.8747440000     0.1380710000
    5      C      -1.6678480000     2.2241300000     0.1236060000
    6      C      -0.6322060000     1.2569960000     0.0233770000
    7      C       0.7284020000     1.7460540000     0.0179440000
    8      O       1.0207300000     3.0016830000     0.0989360000
    9      C       1.7355600000     0.7202780000    -0.0853430000
   10      C       3.1082530000     1.0848350000    -0.1003040000
   11      C       4.1194270000     0.1519860000    -0.1968450000
   12      C       3.7904770000    -1.2326100000    -0.2856410000
   13      C       2.4653880000    -1.6186260000    -0.2736850000
   14      C       1.3993560000    -0.6867970000    -0.1756110000
   15      C       0.0372440000    -1.1821670000    -0.1704800000
   16      O      -0.2093850000    -2.4479010000    -0.2532060000
   17      C      -0.9881120000    -0.1621640000    -0.0676740000
   18      H      -3.9843070000    -1.9377750000    -0.1088890000
   19      H      -2.4865440000    -2.5394440000     0.6709340000
   20      H      -2.5367710000    -2.4140540000    -1.0527850000
   21      H      -4.4031650000     0.2149510000     0.0598890000
   22      H      -3.7724310000     2.6346710000     0.2158680000
   23      H      -1.3448710000     3.2585020000     0.1883500000
   24      H       3.3215750000     2.1475360000    -0.0309530000
   25      H       5.1619260000     0.4683670000    -0.2053660000
   26      H       4.5803790000    -1.9788840000    -0.3622880000
   27      H       2.1802020000    -2.6643340000    -0.3397380000
 ----------------------------------------------------------------

    9    -728.5133455646      2.53e-06  Convergence criterion met
 Total energy in the final basis set =     -728.5133455646

                    Orbital Energies (a.u.)
 --------------------------------------------------------------

 Alpha MOs
 -- Occupied --
-19.0211 -19.0178 -10.1770 -10.1723 -10.1596 -10.1497 -10.1485 -10.1460
-10.1459 -10.1457 -10.1415 -10.1409 -10.1404 -10.1393 -10.1363 -10.1361
-10.1357  -0.9384  -0.9349  -0.8264  -0.8204  -0.7527  -0.7430  -0.7226
 -0.7034  -0.6627  -0.6318  -0.6016  -0.5871  -0.5471  -0.5170  -0.5050
 -0.4884  -0.4386  -0.4379  -0.4301  -0.4244  -0.3983  -0.3979  -0.3865
 -0.3751  -0.3716  -0.3702  -0.3674  -0.3504  -0.3445  -0.3341  -0.3213
 -0.3156  -0.3125  -0.3010  -0.2980  -0.2316  -0.2254  -0.2201  -0.2149
 -0.2026  -0.1933  -0.1066

          Ground-State Mulliken Net Atomic Charges

     Atom                 Charge (a.u.)
  ----------------------------------------
      1 C                    -0.536699
      2 C                     0.694667
      3 C                    -0.478823
      4 C                    -0.425514
      5 C                    -0.134953
      6 C                     0.398768
      7 C                    -0.472000
      8 O                    -0.693828
      9 C                     0.111089
     10 C                    -0.045642
     11 C                    -0.516485
     12 C                    -0.535055
     13 C                     0.040236
     14 C                     0.087249
     15 C                    -0.654964
     16 O                    -0.644620
     17 C                     0.300508
     18 H                     0.136127
     19 H                     0.149450
     20 H                     0.149747
     21 H                     0.116415
     22 H                     0.182783
     23 H                     0.135620
     24 H                     0.143812
     25 H                     0.171550
     26 H                     0.171490
     27 H                     0.149072
  ----------------------------------------
  Sum of atomic charges =    -2.000000

                    Cartesian Multipole Moments
 -----------------------------------------------------------------
    Charge (ESU x 10^10)
                -9.6064
    Dipole Moment (Debye)
         X      -3.8723      Y      -3.6656      Z       0.6653
       Tot       5.3734
    Quadrupole Moments (Debye-Ang)
        XX    -127.3746     XY      -8.7285     YY    -161.8520
        XZ       0.1586     YZ      -2.9512     ZZ    -112.7213

 Total job time:  82.59s(wall), 349.02s(cpu)
        *  Thank you very much for using Q-Chem.  Have a nice day.  *
