 Q-Chem 5.4, Q-Chem, Inc., Pleasanton, CA (2021)
 Q-Chem 5.4.0 for Intel X86 EM64T Linux

User input:
--------------------------------------------------------------
$molecule
-2 1
N                 -2.5686950000      0.4598060000      2.3423210000
C                 -2.4284760000      0.2531160000      0.9603930000
C                 -3.5537950000      0.1724620000      0.1494710000
C                 -3.4314200000     -0.1125730000     -1.2338450000
C                 -2.1909140000     -0.3236820000     -1.7872790000
C                 -1.0047550000     -0.2333660000     -1.0073700000
C                  0.2613710000     -0.4440510000     -1.6843200000
O                  0.3433620000     -0.7378830000     -2.9324640000
C                  1.4201210000     -0.2866350000     -0.8441640000
C                  2.7084620000     -0.4613630000     -1.4060470000
C                  3.8515430000     -0.3137170000     -0.6639340000
Cl                 5.4446180000     -0.5434650000     -1.4449900000
C                  3.7580440000      0.0303080000      0.7185920000
Cl                 5.2321040000      0.2181300000      1.7152240000
C                  2.5290910000      0.2098980000      1.2968420000
C                  1.3240550000      0.0626700000      0.5616330000
C                  0.0727710000      0.2674990000      1.2300460000
O                  0.0337640000      0.6116310000      2.4908980000
C                 -1.1035100000      0.0831950000      0.4075480000
H                 -1.6391370000      0.6798200000      2.7506570000
H                 -3.3182980000      1.0958270000      2.5790980000
H                 -4.5368590000      0.2910030000      0.6034810000
H                 -4.3279160000     -0.1757500000     -1.8491480000
H                 -2.0608010000     -0.5566310000     -2.8381930000
H                  2.7501900000     -0.7161310000     -2.4591840000
H                  2.4350810000      0.4698810000      2.3447320000
$end
$rem
MAX_SCF_CYCLES=200
BASIS  =  6-311++G(d,p)
GUI  =  2
JOB_TYPE  =  SP
METHOD  =  B3LYP
SOLVENT_METHOD = PCM
$end
$pcm
theory = CPCM
$end
$solvent
dielectric 37.219
opticaldielectric 1.43
$end

--------------------------------------------------------------

             Standard Nuclear Orientation (Angstroms)
    I     Atom           X                Y                Z
 ----------------------------------------------------------------
    1      N      -2.5686950000     0.4598060000     2.3423210000
    2      C      -2.4284760000     0.2531160000     0.9603930000
    3      C      -3.5537950000     0.1724620000     0.1494710000
    4      C      -3.4314200000    -0.1125730000    -1.2338450000
    5      C      -2.1909140000    -0.3236820000    -1.7872790000
    6      C      -1.0047550000    -0.2333660000    -1.0073700000
    7      C       0.2613710000    -0.4440510000    -1.6843200000
    8      O       0.3433620000    -0.7378830000    -2.9324640000
    9      C       1.4201210000    -0.2866350000    -0.8441640000
   10      C       2.7084620000    -0.4613630000    -1.4060470000
   11      C       3.8515430000    -0.3137170000    -0.6639340000
   12      Cl      5.4446180000    -0.5434650000    -1.4449900000
   13      C       3.7580440000     0.0303080000     0.7185920000
   14      Cl      5.2321040000     0.2181300000     1.7152240000
   15      C       2.5290910000     0.2098980000     1.2968420000
   16      C       1.3240550000     0.0626700000     0.5616330000
   17      C       0.0727710000     0.2674990000     1.2300460000
   18      O       0.0337640000     0.6116310000     2.4908980000
   19      C      -1.1035100000     0.0831950000     0.4075480000
   20      H      -1.6391370000     0.6798200000     2.7506570000
   21      H      -3.3182980000     1.0958270000     2.5790980000
   22      H      -4.5368590000     0.2910030000     0.6034810000
   23      H      -4.3279160000    -0.1757500000    -1.8491480000
   24      H      -2.0608010000    -0.5566310000    -2.8381930000
   25      H       2.7501900000    -0.7161310000    -2.4591840000
   26      H       2.4350810000     0.4698810000     2.3447320000
 ----------------------------------------------------------------

    9   -1663.8262246397      8.34e-06  Convergence criterion met
 Total energy in the final basis set =    -1663.8262246397

                    Orbital Energies (a.u.)
 --------------------------------------------------------------

 Alpha MOs
 -- Occupied --
********-101.5498 -19.0348 -19.0290 -14.2804 -10.2263 -10.2258 -10.1925
-10.1880 -10.1829 -10.1672 -10.1670 -10.1511 -10.1503 -10.1499 -10.1489
-10.1444 -10.1399 -10.1375  -9.4642  -9.4640  -7.2286  -7.2285  -7.2192
 -7.2191  -7.2188  -7.2186  -0.9528  -0.9471  -0.8909  -0.8845  -0.8430
 -0.8220  -0.8072  -0.7526  -0.7361  -0.7070  -0.7043  -0.6442  -0.6174
 -0.5979  -0.5708  -0.5343  -0.5188  -0.5028  -0.4739  -0.4613  -0.4514
 -0.4476  -0.4250  -0.4220  -0.4169  -0.4049  -0.3897  -0.3837  -0.3808
 -0.3719  -0.3712  -0.3464  -0.3423  -0.3393  -0.3327  -0.3293  -0.3244
 -0.3171  -0.3044  -0.2983  -0.2846  -0.2417  -0.2336  -0.2215  -0.2165
 -0.2072  -0.1928  -0.1158

          Ground-State Mulliken Net Atomic Charges

     Atom                 Charge (a.u.)
  ----------------------------------------
      1 N                    -0.473865
      2 C                     0.007895
      3 C                    -0.343551
      4 C                    -0.527461
      5 C                    -0.152030
      6 C                     0.508447
      7 C                    -0.556395
      8 O                    -0.663314
      9 C                    -0.496247
     10 C                    -0.571066
     11 C                     0.463212
     12 Cl                    0.484063
     13 C                     0.377559
     14 Cl                    0.481385
     15 C                    -0.393205
     16 C                    -0.420728
     17 C                    -0.821607
     18 O                    -0.630563
     19 C                     0.270979
     20 H                     0.316866
     21 H                     0.262233
     22 H                     0.163274
     23 H                     0.178151
     24 H                     0.137757
     25 H                     0.193648
     26 H                     0.204564
  ----------------------------------------
  Sum of atomic charges =    -2.000000

                    Cartesian Multipole Moments
 -----------------------------------------------------------------
    Charge (ESU x 10^10)
                -9.6064
    Dipole Moment (Debye)
         X      -7.0280      Y       2.3592      Z       2.8137
       Tot       7.9294
    Quadrupole Moments (Debye-Ang)
        XX    -183.5811     XY      -2.4039     YY    -136.9291
        XZ       0.5392     YZ      -7.9652     ZZ    -183.0029

 Total job time:  87.40s(wall), 371.89s(cpu)
        *  Thank you very much for using Q-Chem.  Have a nice day.  *
