 Gaussian 16, Revision A.03,
 Gaussian 16:  ES64L-G16RevA.03 25-Dec-2016

 ----------------------------------------------
 #P UB3LYP/6-311++G(d,p) nosym opt freq SCF=YQC
 ----------------------------------------------

 -------
 Reduced
 -------
 Symbolic Z-matrix:
 Charge = -2 Multiplicity = 1

 SCF Done:  E(UB3LYP) =  -764.300026426     a.u. after   16 cycles
 SCF Done:  E(UB3LYP) =  -764.302543491     A.U. after   33 cycles
 SCF Done:  E(UB3LYP) =  -764.302543491     a.u. after    1 cycles
 SCF Done:  E(UB3LYP) =  -764.327854410     a.u. after   24 cycles
 SCF Done:  E(UB3LYP) =  -764.328469740     A.U. after   33 cycles
 SCF Done:  E(UB3LYP) =  -764.328469740     a.u. after    1 cycles
 SCF Done:  E(UB3LYP) =  -764.334005624     a.u. after   60 cycles
 SCF Done:  E(UB3LYP) =  -764.334893292     A.U. after   33 cycles
 SCF Done:  E(UB3LYP) =  -764.334893292     a.u. after    1 cycles
 SCF Done:  E(UB3LYP) =  -764.337321843     a.u. after   51 cycles
 SCF Done:  E(UB3LYP) =  -764.341894895     a.u. after    1 cycles
 SCF Done:  E(UB3LYP) =  -764.341935721     A.U. after   20 cycles
 SCF Done:  E(UB3LYP) =  -764.341921678     a.u. after    1 cycles
 SCF Done:  E(UB3LYP) =  -764.341936964     A.U. after   17 cycles
 SCF Done:  E(UB3LYP) =  -764.341927714     a.u. after    1 cycles
 SCF Done:  E(UB3LYP) =  -764.341937677     A.U. after   18 cycles
 SCF Done:  E(UB3LYP) =  -764.341936552     a.u. after    1 cycles
 SCF Done:  E(UB3LYP) =  -764.341937833     A.U. after   17 cycles
 Optimization completed.
    -- Stationary point found.
 Normal termination of Gaussian 16 at Wed Dec 27 03:59:34 2023.

 ----------------------------------------------------------------------
 #P Geom=AllCheck Guess=TCheck SCRF=Check GenChk UB3LYP/6-311++G(d,p) F
 req
 ----------------------------------------------------------------------

 Structure from the checkpoint file:  "260-an.chk"
 -------
 Reduced
 -------
 Charge = -2 Multiplicity = 1

                          Input orientation:
 ---------------------------------------------------------------------
 Center     Atomic      Atomic             Coordinates (Angstroms)
 Number     Number       Type             X           Y           Z
 ---------------------------------------------------------------------
      1          6           0       -2.570443   -2.479921    0.409004
      2          8           0       -2.417360   -1.285026   -0.337363
      3          6           0       -1.157424   -0.692821   -0.204681
      4          6           0       -1.121299    0.619880    0.331066
      5          8           0       -2.325142    1.132911    0.824219
      6          6           0       -2.761528    2.307315    0.161889
      7          6           0        0.063559    1.397796    0.450384
      8          8           0        0.091341    2.594320    0.947610
      9          6           0        1.256338    0.714711   -0.022839
     10          6           0        2.507214    1.372718    0.049620
     11          6           0        3.681505    0.776969   -0.374446
     12          6           0        3.646546   -0.540754   -0.903429
     13          6           0        2.439903   -1.212950   -0.979782
     14          6           0        1.223140   -0.634206   -0.546862
     15          6           0       -0.009720   -1.395307   -0.665768
     16          8           0       -0.049979   -2.591930   -1.161806
     17          1           0       -1.797880   -3.204028    0.130368
     18          1           0       -2.523943   -2.273646    1.491506
     19          1           0       -3.566391   -2.876958    0.171296
     20          1           0       -1.989192    3.081724    0.212448
     21          1           0       -3.670490    2.643593    0.678363
     22          1           0       -3.014475    2.092153   -0.889858
     23          1           0        2.497630    2.379040    0.458472
     24          1           0        4.626441    1.314836   -0.306170
     25          1           0        4.564458   -1.018816   -1.243686
     26          1           0        2.377190   -2.221604   -1.378055
 ---------------------------------------------------------------------

 SCF Done:  E(UB3LYP) =  -764.341937833     a.u. after    1 cycles
 SCF Done:  E(UB3LYP) =  -764.341937833     A.U. after    2 cycles

 Alpha  occ. eigenvalues --  -18.87268 -18.87264 -18.76454 -18.76452  -9.96696
 Alpha  occ. eigenvalues --   -9.96695  -9.93108  -9.93063  -9.92460  -9.92458
 Alpha  occ. eigenvalues --   -9.91961  -9.91916  -9.90991  -9.90990  -9.89514
 Alpha  occ. eigenvalues --   -9.89476  -0.79114  -0.77403  -0.67725  -0.67388
 Alpha  occ. eigenvalues --   -0.58628  -0.52481  -0.48464  -0.47714  -0.45069
 Alpha  occ. eigenvalues --   -0.41824  -0.39086  -0.34046  -0.33414  -0.29161
 Alpha  occ. eigenvalues --   -0.25793  -0.25642  -0.23334  -0.21072  -0.20259
 Alpha  occ. eigenvalues --   -0.19925  -0.19356  -0.18272  -0.17718  -0.16056
 Alpha  occ. eigenvalues --   -0.15414  -0.12561  -0.11278  -0.11067  -0.10249
 Alpha  occ. eigenvalues --   -0.09198  -0.08896  -0.06714  -0.06523  -0.06206
 Alpha  occ. eigenvalues --   -0.02136  -0.01776   0.01206   0.02588   0.04770
 Alpha  occ. eigenvalues --    0.05734   0.05845   0.13812
 Alpha virt. eigenvalues --    0.16508   0.16649   0.17183   0.18281   0.20047
 Alpha virt. eigenvalues --    0.20369   0.21168   0.21811   0.22509   0.23143
 Alpha virt. eigenvalues --    0.23829   0.24863   0.25041   0.26064   0.27533

  Beta  occ. eigenvalues --  -18.87268 -18.87264 -18.76454 -18.76452  -9.96696
  Beta  occ. eigenvalues --   -9.96695  -9.93108  -9.93063  -9.92460  -9.92458
  Beta  occ. eigenvalues --   -9.91961  -9.91916  -9.90991  -9.90990  -9.89514
  Beta  occ. eigenvalues --   -9.89476  -0.79114  -0.77403  -0.67725  -0.67388
  Beta  occ. eigenvalues --   -0.58628  -0.52481  -0.48464  -0.47714  -0.45069
  Beta  occ. eigenvalues --   -0.41824  -0.39086  -0.34046  -0.33414  -0.29161
  Beta  occ. eigenvalues --   -0.25793  -0.25642  -0.23334  -0.21072  -0.20259
  Beta  occ. eigenvalues --   -0.19925  -0.19356  -0.18272  -0.17718  -0.16056
  Beta  occ. eigenvalues --   -0.15414  -0.12561  -0.11278  -0.11067  -0.10249
  Beta  occ. eigenvalues --   -0.09198  -0.08896  -0.06714  -0.06523  -0.06206
  Beta  occ. eigenvalues --   -0.02136  -0.01776   0.01206   0.02588   0.04770
  Beta  occ. eigenvalues --    0.05734   0.05845   0.13812
  Beta virt. eigenvalues --    0.16508   0.16649   0.17183   0.18281   0.20047
  Beta virt. eigenvalues --    0.20369   0.21168   0.21811   0.22509   0.23143
  Beta virt. eigenvalues --    0.23829   0.24863   0.25041   0.26064   0.27533

 Mulliken charges and spin densities:
               1          2
     1  C   -0.054477  -0.000000
     2  O   -0.162070   0.000000
     3  C    0.113880  -0.000000
     4  C    0.115039   0.000000
     5  O   -0.161974  -0.000000
     6  C   -0.054324   0.000000
     7  C   -1.026905   0.000000
     8  O   -0.539275  -0.000000
     9  C    0.732836  -0.000000
    10  C   -0.020846   0.000000
    11  C   -0.362220  -0.000000
    12  C   -0.362129   0.000000
    13  C   -0.020707   0.000000
    14  C    0.733751  -0.000000
    15  C   -1.026646  -0.000000
    16  O   -0.539264   0.000000
    17  H    0.200351   0.000000
    18  H    0.022290  -0.000000
    19  H   -0.099557  -0.000000
    20  H    0.200190  -0.000000
    21  H   -0.099699  -0.000000
    22  H    0.022394  -0.000000
    23  H    0.122917   0.000000
    24  H    0.071759  -0.000000
    25  H    0.071760   0.000000
    26  H    0.122926  -0.000000
 Sum of Mulliken charges =  -2.00000  -0.00000

 Dipole moment (field-independent basis, Debye):
    X=              0.1029    Y=             -0.0024    Z=              0.9800  Tot=              0.9854
 Quadrupole moment (field-independent basis, Debye-Ang):
   XX=           -148.8606   YY=           -150.6764   ZZ=           -117.3381
   XY=             -2.7377   XZ=              5.3538   YZ=            -18.9608

  Exact polarizability:1064.682  18.241 658.728-128.043  32.842 214.885
 Approx polarizability:1053.047  26.189 528.130-118.494  60.815 273.225

                      1                      2                      3
                      A                      A                      A
 Frequencies --     71.1658                80.8681                85.3213
 Red. masses --      5.4107                 4.1232                 3.0217
 Frc consts  --      0.0161                 0.0159                 0.0130
 IR Inten    --      6.8884                 0.0817                 8.8781

                      4                      5                      6
                      A                      A                      A
 Frequencies --     93.2501               143.2558               177.5549
 Red. masses --      2.8920                 4.4227                 1.4619
 Frc consts  --      0.0148                 0.0535                 0.0272
 IR Inten    --      7.1022                 0.0599                 1.5773

                      7                      8                      9
                      A                      A                      A
 Frequencies --    179.1226               186.8150               216.5514
 Red. masses --      1.0801                 2.3279                 4.7425
 Frc consts  --      0.0204                 0.0479                 0.1310
 IR Inten    --     10.8038                 8.8089                 3.4685

                     10                     11                     12
                      A                      A                      A
 Frequencies --    266.2981               273.4268               328.3071
 Red. masses --      4.2902                 5.3890                 6.7804
 Frc consts  --      0.1792                 0.2374                 0.4306
 IR Inten    --      4.2558                 0.0117               109.9346

                     13                     14                     15
                      A                      A                      A
 Frequencies --    339.0794               356.0694               389.5318
 Red. masses --      8.6711                11.9912                 8.3445
 Frc consts  --      0.5874                 0.8957                 0.7460
 IR Inten    --      3.0328                 0.3033                11.4055

                     16                     17                     18
                      A                      A                      A
 Frequencies --    391.0020               437.4823               440.1635
 Red. masses --      7.0275                 7.1408                 4.0671
 Frc consts  --      0.6330                 0.8052                 0.4643
 IR Inten    --      3.1957                97.0521                 0.0505

                     19                     20                     21
                      A                      A                      A
 Frequencies --    499.4374               511.7078               570.2388
 Red. masses --      9.6411                 4.3745                 5.3455
 Frc consts  --      1.4169                 0.6749                 1.0241
 IR Inten    --    201.2246                16.0720                 0.1473

                     22                     23                     24
                      A                      A                      A
 Frequencies --    598.4125               660.6162               692.4259
 Red. masses --      6.2898                 6.4761                 1.7012
 Frc consts  --      1.3271                 1.6652                 0.4806
 IR Inten    --      0.9522                 7.3780                60.2278

                     25                     26                     27
                      A                      A                      A
 Frequencies --    694.9661               721.0974               749.7165
 Red. masses --      6.1255                 6.4433                 3.2785
 Frc consts  --      1.7431                 1.9740                 1.0857
 IR Inten    --      1.7761                 5.1387                19.4615

                     28                     29                     30
                      A                      A                      A
 Frequencies --    755.5526               799.7908               899.8739
 Red. masses --      2.4368                 2.2080                 7.6601
 Frc consts  --      0.8196                 0.8322                 3.6547
 IR Inten    --      0.0076                 3.2708                21.5090

                     31                     32                     33
                      A                      A                      A
 Frequencies --    908.1944               945.1560               951.1341
 Red. masses --      5.9259                 1.2077                 1.3641
 Frc consts  --      2.8798                 0.6357                 0.7271
 IR Inten    --      7.0017                 0.4541                 4.9088

                     34                     35                     36
                      A                      A                      A
 Frequencies --    969.8789              1013.1529              1054.3778
 Red. masses --      6.7603                 2.1611                 7.4990
 Frc consts  --      3.7467                 1.3070                 4.9118
 IR Inten    --     81.2424               279.8282                85.1417

                     37                     38                     39
                      A                      A                      A
 Frequencies --   1085.8460              1096.6574              1118.7999
 Red. masses --      3.5764                 3.5035                 1.4607
 Frc consts  --      2.4845                 2.4826                 1.0773
 IR Inten    --      3.5599                21.0204               333.3046

                     40                     41                     42
                      A                      A                      A
 Frequencies --   1159.4859              1160.8342              1162.8957
 Red. masses --      1.8113                 1.2819                 1.8798
 Frc consts  --      1.4347                 1.0177                 1.4978
 IR Inten    --    270.4951                 1.0213                68.7055

                     43                     44                     45
                      A                      A                      A
 Frequencies --   1183.8647              1210.5415              1211.8594
 Red. masses --      1.9379                 1.8442                 1.4998
 Frc consts  --      1.6003                 1.5922                 1.2977
 IR Inten    --     26.9981               152.1320                29.5554

                     46                     47                     48
                      A                      A                      A
 Frequencies --   1227.9600              1260.9716              1323.5266
 Red. masses --      2.7126                 2.2736                 7.8248
 Frc consts  --      2.4099                 2.1300                 8.0759
 IR Inten    --    133.8187                29.1386               435.8072

                     49                     50                     51
                      A                      A                      A
 Frequencies --   1375.8766              1387.7190              1408.3377
 Red. masses --      3.1852                 6.6122                 2.5952
 Frc consts  --      3.5526                 7.5024                 3.0327
 IR Inten    --    271.0447               940.0036                59.3872

                     52                     53                     54
                      A                      A                      A
 Frequencies --   1414.1483              1451.2578              1451.4592
 Red. masses --      1.6583                 2.1474                 1.4809
 Frc consts  --      1.9539                 2.6648                 1.8381
 IR Inten    --    532.5784                20.7209               140.3922

                     55                     56                     57
                      A                      A                      A
 Frequencies --   1462.6821              1463.4482              1492.1824
 Red. masses --      1.1007                 1.0973                 3.2912
 Frc consts  --      1.3875                 1.3847                 4.3177
 IR Inten    --    104.2821               159.1938               203.9607

                     58                     59                     60
                      A                      A                      A
 Frequencies --   1496.3024              1513.1487              1513.6591
 Red. masses --      5.4346                 1.0550                 1.0582
 Frc consts  --      7.1690                 1.4232                 1.4285
 IR Inten    --     63.9723                 3.6758                 6.8608

                     61                     62                     63
                      A                      A                      A
 Frequencies --   1563.3707              1580.7556              2926.4161
 Red. masses --      7.1875                 5.2575                 1.0450
 Frc consts  --     10.3503                 7.7403                 5.2728
 IR Inten    --   1478.4660                 4.3369                18.8755

                     64                     65                     66
                      A                      A                      A
 Frequencies --   2927.0127              2995.2475              2995.5126
 Red. masses --      1.0449                 1.0858                 1.0862
 Frc consts  --      5.2742                 5.7395                 5.7427
 IR Inten    --    220.8141                18.4429                95.0382

                     67                     68                     69
                      A                      A                      A
 Frequencies --   3047.9536              3048.5767              3081.8648
 Red. masses --      1.1015                 1.1017                 1.0822
 Frc consts  --      6.0290                 6.0328                 6.0557
 IR Inten    --     38.8659               161.1099                33.5629

                     70                     71                     72
                      A                      A                      A
 Frequencies --   3106.5875              3150.3995              3152.8488
 Red. masses --      1.0905                 1.0899                 1.0911
 Frc consts  --      6.2009                 6.3734                 6.3901
 IR Inten    --    256.7081                29.3384               150.3709

 - Thermochemistry -
 -------------------
 Temperature   298.150 Kelvin.  Pressure   1.00000 Atm.
 Atom     1 has atomic number  6 and mass  12.00000

 Molecular mass:   218.05791 amu.
 Principal axes and moments of inertia in atomic units:
                           1         2         3
     Eigenvalues --  2312.946603721.996645826.16281
           X            0.98899   0.00797   0.14776
           Y            0.03193   0.96354  -0.26564
           Z           -0.14449   0.26744   0.95268
 This molecule is an asymmetric top.
 Rotational symmetry number  1.
 Warning -- assumption of classical behavior for rotation
           may cause significant error
 Rotational temperatures (Kelvin)      0.03745     0.02327     0.01487
 Rotational constants (GHZ):           0.78028     0.48489     0.30976
 Zero-point vibrational energy     500403.9 (Joules/Mol)
                                  119.59941 (Kcal/Mol)
 Warning -- explicit consideration of  22 degrees of freedom as
           vibrations may cause significant error
 Vibrational temperatures:    102.39   116.35   122.76   134.17   206.11
          (Kelvin)            255.46   257.72   268.79   311.57   383.14
                              393.40   472.36   487.86   512.30   560.45
                              562.56   629.44   633.30   718.58   736.23
                              820.45   860.98   950.48   996.25   999.90
                             1037.50  1078.67  1087.07  1150.72  1294.72
                             1306.69  1359.87  1368.47  1395.44  1457.70
                             1517.01  1562.29  1577.85  1609.70  1668.24
                             1670.18  1673.15  1703.32  1741.70  1743.60
                             1766.76  1814.26  1904.26  1979.58  1996.62
                             2026.28  2034.64  2088.04  2088.33  2104.47
                             2105.58  2146.92  2152.85  2177.08  2177.82
                             2249.34  2274.35  4210.46  4211.32  4309.49
                             4309.87  4385.33  4386.22  4434.12  4469.69
                             4532.72  4536.25

 Zero-point correction=                           0.190594 (Hartree/Particle)
 Thermal correction to Energy=                    0.204793
 Thermal correction to Enthalpy=                  0.205737
 Thermal correction to Gibbs Free Energy=         0.149870
 Sum of electronic and zero-point Energies=           -764.151344
 Sum of electronic and thermal Energies=              -764.137145
 Sum of electronic and thermal Enthalpies=            -764.136201
 Sum of electronic and thermal Free Energies=         -764.192068

                     E (Thermal)             CV                S
                      KCal/Mol        Cal/Mol-Kelvin    Cal/Mol-Kelvin
 Total                  128.509             54.004            117.582
 Electronic               0.000              0.000              0.000
 Translational            0.889              2.981             42.042
 Rotational               0.889              2.981             32.284
 Vibrational            126.732             48.043             43.257
 Vibration     1          0.598              1.968              4.121
 Vibration     2          0.600              1.962              3.870
 Vibration     3          0.601              1.959              3.765
 Vibration     4          0.602              1.954              3.591
 Vibration     5          0.616              1.910              2.760
 Vibration     6          0.628              1.870              2.354
 Vibration     7          0.629              1.868              2.338
 Vibration     8          0.632              1.858              2.259
 Vibration     9          0.645              1.816              1.988
 Vibration    10          0.672              1.735              1.620
 Vibration    11          0.676              1.722              1.574
 Vibration    12          0.712              1.619              1.268
 Vibration    13          0.719              1.597              1.216
 Vibration    14          0.732              1.563              1.139
 Vibration    15          0.757              1.493              1.002
 Vibration    16          0.759              1.489              0.996
 Vibration    17          0.798              1.388              0.835
 Vibration    18          0.800              1.383              0.826
 Vibration    19          0.855              1.251              0.660
 Vibration    20          0.867              1.224              0.629
 Vibration    21          0.926              1.096              0.504
 Vibration    22          0.956              1.035              0.452

                           ! Non-Optimized Parameters !
 Normal termination of Gaussian 16 at Wed Dec 27 04:50:36 2023.
