 Q-Chem 5.4, Q-Chem, Inc., Pleasanton, CA (2021)
 Q-Chem 5.4.0 for Intel X86 EM64T Linux

User input:
--------------------------------------------------------------
$molecule
-1 2
C                  0.2582730000      1.4625720000     -0.9604870000
C                 -0.9592310000      0.6624240000     -0.9361180000
C                 -0.9155670000     -0.7116040000     -0.8362610000
C                  0.3501210000     -1.4283690000     -0.7501830000
C                  1.5676350000     -0.6282110000     -0.7744580000
C                  1.5239780000      0.7458050000     -0.8743570000
O                  0.2180770000      2.7280630000     -1.0524940000
O                  0.3903380000     -2.6938570000     -0.6581200000
C                  2.7875000000      1.5712960000     -0.8992220000
C                  2.8808730000     -1.3671320000     -0.6855710000
C                 -2.2724790000      1.4013280000     -1.0249850000
C                 -2.1791000000     -1.5370920000     -0.8115030000
H                  3.4329600000      1.3013680000     -1.7452700000
H                  3.3861870000      1.4259750000      0.0094800000
H                  2.5268530000      2.6268760000     -0.9811280000
H                  2.6878720000     -2.4380120000     -0.6158360000
H                  3.4635730000     -1.0567160000      0.1915840000
H                  3.5131800000     -1.1796420000     -1.5632270000
H                 -2.0795300000      2.4723090000     -1.0933190000
H                 -2.9054130000      1.2126320000     -0.1480550000
H                 -2.8545070000      1.0920030000     -1.9029880000
H                 -2.8245130000     -1.2673520000      0.0346400000
H                 -1.9184620000     -2.5926910000     -0.7298300000
H                 -2.7778190000     -1.3915530000     -1.7201520000
$end

$rem
BASIS  =  6-311++G(d,p)
GUI  =  2
JOB_TYPE  =  SP
METHOD  =  B3LYP
SCF_CONVERGENCE  = 8
SOLVENT_METHOD = sm12
$end

$smx
solvent dimethylformamide
charges CM5
$end

--------------------------------------------------------------

             Standard Nuclear Orientation (Angstroms)
    I     Atom           X                Y                Z
 ----------------------------------------------------------------
    1      C       0.2582730000     1.4625720000    -0.9604870000
    2      C      -0.9592310000     0.6624240000    -0.9361180000
    3      C      -0.9155670000    -0.7116040000    -0.8362610000
    4      C       0.3501210000    -1.4283690000    -0.7501830000
    5      C       1.5676350000    -0.6282110000    -0.7744580000
    6      C       1.5239780000     0.7458050000    -0.8743570000
    7      O       0.2180770000     2.7280630000    -1.0524940000
    8      O       0.3903380000    -2.6938570000    -0.6581200000
    9      C       2.7875000000     1.5712960000    -0.8992220000
   10      C       2.8808730000    -1.3671320000    -0.6855710000
   11      C      -2.2724790000     1.4013280000    -1.0249850000
   12      C      -2.1791000000    -1.5370920000    -0.8115030000
   13      H       3.4329600000     1.3013680000    -1.7452700000
   14      H       3.3861870000     1.4259750000     0.0094800000
   15      H       2.5268530000     2.6268760000    -0.9811280000
   16      H       2.6878720000    -2.4380120000    -0.6158360000
   17      H       3.4635730000    -1.0567160000     0.1915840000
   18      H       3.5131800000    -1.1796420000    -1.5632270000
   19      H      -2.0795300000     2.4723090000    -1.0933190000
   20      H      -2.9054130000     1.2126320000    -0.1480550000
   21      H      -2.8545070000     1.0920030000    -1.9029880000
   22      H      -2.8245130000    -1.2673520000     0.0346400000
   23      H      -1.9184620000    -2.5926910000    -0.7298300000
   24      H      -2.7778190000    -1.3915530000    -1.7201520000
 ----------------------------------------------------------------

   15    -538.9470366950      2.11e-09  Convergence criterion met
 Total energy in the final basis set =     -539.0305306167

                    Orbital Energies (a.u.)
 --------------------------------------------------------------

 Alpha MOs
 -- Occupied --
-19.0702 -19.0702 -10.2135 -10.2135 -10.1679 -10.1679 -10.1673 -10.1673
-10.1623 -10.1623 -10.1623 -10.1623  -0.9922  -0.9899  -0.8312  -0.7971
 -0.7293  -0.7258  -0.7021  -0.6377  -0.6366  -0.5479  -0.5434  -0.5036
 -0.4453  -0.4446  -0.4266  -0.4186  -0.4169  -0.4039  -0.3956  -0.3925
 -0.3902  -0.3880  -0.3808  -0.3730  -0.3675  -0.3581  -0.3424  -0.3360
 -0.2668  -0.2419  -0.2359  -0.2287  -0.1552

 Beta MOs
 -- Occupied --
-19.0630 -19.0630 -10.2121 -10.2121 -10.1669 -10.1669 -10.1663 -10.1663
-10.1624 -10.1624 -10.1624 -10.1624  -0.9800  -0.9773  -0.8260  -0.7954
 -0.7255  -0.7247  -0.7001  -0.6366  -0.6287  -0.5445  -0.5393  -0.5020
 -0.4416  -0.4387  -0.4253  -0.4165  -0.4123  -0.3995  -0.3947  -0.3920
 -0.3873  -0.3872  -0.3785  -0.3667  -0.3560  -0.3393  -0.3342  -0.3313
 -0.2353  -0.2346  -0.2287  -0.2224

          Ground-State Mulliken Net Atomic Charges

     Atom                 Charge (a.u.)    Spin (a.u.)
  --------------------------------------------------------
      1 C                    -2.020580       0.084200
      2 C                     0.166599       0.071626
      3 C                     0.167934       0.071575
      4 C                    -2.020569       0.084203
      5 C                     0.166444       0.071615
      6 C                     0.167937       0.071573
      7 O                    -0.334936       0.259952
      8 O                    -0.334941       0.259954
      9 C                     0.173275       0.001765
     10 C                     0.173483       0.001752
     11 C                     0.173524       0.001751
     12 C                     0.173275       0.001763
     13 H                     0.202031       0.003535
     14 H                     0.202292       0.003513
     15 H                     0.182880      -0.002479
     16 H                     0.182683      -0.002479
     17 H                     0.202247       0.003536
     18 H                     0.202140       0.003508
     19 H                     0.182688      -0.002479
     20 H                     0.202145       0.003501
     21 H                     0.202243       0.003545
     22 H                     0.202006       0.003537
     23 H                     0.182883      -0.002479
     24 H                     0.202316       0.003512
  --------------------------------------------------------
  Sum of atomic charges =    -1.000000

                    Cartesian Multipole Moments
 -----------------------------------------------------------------
    Charge (ESU x 10^10)
                -4.8032
    Dipole Moment (Debye)
         X      -1.4612      Y      -0.0821      Z       4.1081
       Tot       4.3610
    Quadrupole Moments (Debye-Ang)
        XX     -80.4382     XY       1.0578     YY    -114.1461
        XZ       1.0908     YZ       2.7678     ZZ     -80.6746

 Total job time:  389.55s(wall), 2756.44s(cpu)
        *  Thank you very much for using Q-Chem.  Have a nice day.  *
