 Gaussian 16, Revision A.03,
 Gaussian 16:  ES64L-G16RevA.03 25-Dec-2016

 ----------------------------------------------------------------------
 #P UB3LYP/6-311++G(d,p) nosym opt freq SCRF=(PCM,Solvent=n,n-DiMethylF
 ormamide)
 ----------------------------------------------------------------------

 -------
 Radical
 -------
 Symbolic Z-matrix:
 Charge = -1 Multiplicity = 2

 SCF Done:  E(UB3LYP) =  -765.522307522     A.U. after   20 cycles
 SCF Done:  E(UB3LYP) =  -765.521954249     A.U. after   19 cycles
 SCF Done:  E(UB3LYP) =  -765.522855569     A.U. after   17 cycles
 SCF Done:  E(UB3LYP) =  -765.522638967     A.U. after   17 cycles
 SCF Done:  E(UB3LYP) =  -765.523033360     A.U. after   15 cycles
 SCF Done:  E(UB3LYP) =  -765.523099473     A.U. after   16 cycles
 SCF Done:  E(UB3LYP) =  -765.523168350     A.U. after   16 cycles
 SCF Done:  E(UB3LYP) =  -765.523201270     A.U. after   15 cycles
 SCF Done:  E(UB3LYP) =  -765.523211229     A.U. after   15 cycles
 SCF Done:  E(UB3LYP) =  -765.523216074     A.U. after   14 cycles
 SCF Done:  E(UB3LYP) =  -765.523216835     A.U. after   12 cycles
 SCF Done:  E(UB3LYP) =  -765.523217937     A.U. after   13 cycles
 SCF Done:  E(UB3LYP) =  -765.523218275     A.U. after   13 cycles
 SCF Done:  E(UB3LYP) =  -765.523218545     A.U. after   10 cycles
 SCF Done:  E(UB3LYP) =  -765.523218590     A.U. after   10 cycles
 Optimization completed.
    -- Stationary point found.
 Normal termination of Gaussian 16 at Sat Feb 10 12:51:25 2024.

 ----------------------------------------------------------------------
 #P Geom=AllCheck Guess=TCheck SCRF=Check GenChk UB3LYP/6-311++G(d,p) F
 req
 ----------------------------------------------------------------------

 Structure from the checkpoint file:  "077-rad.chk"
 -------
 Radical
 -------
 Charge = -1 Multiplicity = 2

                          Input orientation:
 ---------------------------------------------------------------------
 Center     Atomic      Atomic             Coordinates (Angstroms)
 Number     Number       Type             X           Y           Z
 ---------------------------------------------------------------------
      1          6           0        0.369098    1.799923   -2.071828
      2          6           0       -1.057369    2.091245   -2.072409
      3          6           0       -2.010304    1.122622   -1.998598
      4          6           0       -1.664241   -0.284955   -1.917586
      5          6           0       -0.259138   -0.582603   -1.909442
      6          6           0        0.727836    0.388538   -1.952856
      7          8           0        1.211892    2.726341   -2.207241
      8          8           0       -2.551096   -1.191789   -1.853026
      9          6           0        3.233845    0.783196   -1.329442
     10          6           0        4.378413    0.972867   -2.114021
     11          6           0        3.186967    1.295227   -0.017082
     12          6           0        4.299923    2.004081    0.450892
     13          6           0        5.462492    1.705065   -1.640027
     14          6           0        5.421233    2.224002   -0.347322
     15          1           0       -1.331731    3.138947   -2.148846
     16          1           0       -3.066108    1.376965   -2.004434
     17          1           0        0.029183   -1.626081   -1.840690
     18          1           0        4.404129    0.550801   -3.112149
     19          1           0        4.286134    2.387094    1.466240
     20          1           0        6.331914    1.860114   -2.268834
     21          1           0        6.261122    2.787183    0.044304
     22          6           0        2.141055   -0.067180   -1.921485
     23          8           0        2.451179   -1.171027   -2.373590
     24          6           0        2.008468    1.085013    0.905928
     25          1           0        1.647577    0.054352    0.884079
     26          1           0        1.167851    1.728447    0.631866
     27          1           0        2.286803    1.322371    1.934406
 ---------------------------------------------------------------------

 SCF Done:  E(UB3LYP) =  -765.523218590     A.U. after    1 cycles

 Alpha  occ. eigenvalues --  -19.11343 -19.08561 -19.08540 -10.26419 -10.23469
 Alpha  occ. eigenvalues --  -10.22647 -10.19174 -10.18583 -10.17899 -10.17853
 Alpha  occ. eigenvalues --  -10.17837 -10.17588 -10.17504 -10.17486 -10.17429
 Alpha  occ. eigenvalues --  -10.17252 -10.16512  -1.04327  -1.00897  -1.00239
 Alpha  occ. eigenvalues --   -0.86599  -0.83291  -0.78097  -0.76685  -0.75544
 Alpha  occ. eigenvalues --   -0.69801  -0.69052  -0.64864  -0.60834  -0.59702
 Alpha  occ. eigenvalues --   -0.58819  -0.54492  -0.50363  -0.48402  -0.48020
 Alpha  occ. eigenvalues --   -0.47283  -0.46372  -0.44548  -0.43476  -0.42943
 Alpha  occ. eigenvalues --   -0.42456  -0.41784  -0.41343  -0.41083  -0.39233
 Alpha  occ. eigenvalues --   -0.38988  -0.38250  -0.37427  -0.36916  -0.36095
 Alpha  occ. eigenvalues --   -0.35511  -0.34635  -0.28934  -0.27765  -0.26964
 Alpha  occ. eigenvalues --   -0.25418  -0.25324  -0.24707  -0.23833  -0.17390
 Alpha virt. eigenvalues --   -0.06645  -0.02416  -0.01435  -0.00250   0.00551
 Alpha virt. eigenvalues --    0.00955   0.01430   0.01565   0.02260   0.03323
 Alpha virt. eigenvalues --    0.03734   0.04052   0.04066   0.05078   0.05272

  Beta  occ. eigenvalues --  -19.11284 -19.07942 -19.07765 -10.26407 -10.23388
  Beta  occ. eigenvalues --  -10.22537 -10.19173 -10.18583 -10.17898 -10.17852
  Beta  occ. eigenvalues --  -10.17741 -10.17587 -10.17504 -10.17392 -10.17249
  Beta  occ. eigenvalues --  -10.17147 -10.16511  -1.04215  -0.99829  -0.98875
  Beta  occ. eigenvalues --   -0.86590  -0.82667  -0.78056  -0.76562  -0.75389
  Beta  occ. eigenvalues --   -0.69380  -0.68473  -0.64608  -0.60632  -0.59676
  Beta  occ. eigenvalues --   -0.58458  -0.54357  -0.50200  -0.48230  -0.47832
  Beta  occ. eigenvalues --   -0.47024  -0.46214  -0.44406  -0.43365  -0.42751
  Beta  occ. eigenvalues --   -0.42322  -0.41573  -0.40533  -0.40249  -0.39058
  Beta  occ. eigenvalues --   -0.38408  -0.37328  -0.36679  -0.36056  -0.35472
  Beta  occ. eigenvalues --   -0.35104  -0.34606  -0.27612  -0.26244  -0.25682
  Beta  occ. eigenvalues --   -0.25288  -0.24961  -0.24125  -0.23375
  Beta virt. eigenvalues --   -0.10317  -0.05751  -0.02031  -0.01239  -0.00230
  Beta virt. eigenvalues --    0.00581   0.01266   0.01586   0.02230   0.02339
  Beta virt. eigenvalues --    0.03438   0.03810   0.04102   0.04931   0.05108

 Mulliken charges and spin densities:
               1          2
     1  C   -1.216163   0.032330
     2  C   -0.159613   0.092929
     3  C    0.164931   0.026081
     4  C   -0.612492   0.119567
     5  C    0.289547   0.128356
     6  C    1.354265   0.086434
     7  O   -0.377459   0.223302
     8  O   -0.486726   0.272716
     9  C    0.451650   0.001937
    10  C   -0.130224   0.000848
    11  C    0.605399  -0.003112
    12  C   -0.119291  -0.001293
    13  C   -0.511974   0.003788
    14  C   -0.214999   0.000507
    15  H    0.203739  -0.006771
    16  H    0.202794  -0.002850
    17  H    0.221583  -0.012645
    18  H    0.220677  -0.000646
    19  H    0.173178   0.000010
    20  H    0.186203   0.000159
    21  H    0.188563  -0.000029
    22  C   -0.891227   0.013184
    23  O   -0.295522   0.020031
    24  C   -0.780983   0.003809
    25  H    0.179398  -0.000166
    26  H    0.191866   0.001097
    27  H    0.162879   0.000425
 Sum of Mulliken charges =  -1.00000   1.00000

 Dipole moment (field-independent basis, Debye):
    X=              0.2659    Y=              0.5878    Z=             11.4336  Tot=             11.4518
 Quadrupole moment (field-independent basis, Debye-Ang):
   XX=           -123.3654   YY=           -124.8501   ZZ=           -123.0968
   XY=             -8.6288   XZ=              3.8385   YZ=              2.3111

  Exact polarizability: 370.066  59.407 273.748  -2.594  16.054 192.283
 Approx polarizability: 379.174  71.065 322.895 -13.309  21.120 222.891

                      1                      2                      3
                      A                      A                      A
 Frequencies --     31.4160                43.2745                68.3671
 Red. masses --      7.6512                 4.6047                 4.9638
 Frc consts  --      0.0044                 0.0051                 0.0137
 IR Inten    --      2.2273                 0.8266                 3.2563

                      4                      5                      6
                      A                      A                      A
 Frequencies --    104.2806               121.1779               133.2146
 Red. masses --      6.5381                 1.1180                 6.6057
 Frc consts  --      0.0419                 0.0097                 0.0691
 IR Inten    --      4.8750                 2.9445                32.5003

                      7                      8                      9
                      A                      A                      A
 Frequencies --    159.0813               193.7802               214.9744
 Red. masses --      3.8667                 5.1423                 5.1703
 Frc consts  --      0.0577                 0.1138                 0.1408
 IR Inten    --      3.1740                 1.4983                 1.6830

                     10                     11                     12
                      A                      A                      A
 Frequencies --    257.4580               314.6863               335.9085
 Red. masses --      4.8635                 5.8784                 6.3480
 Frc consts  --      0.1899                 0.3430                 0.4220
 IR Inten    --      7.3359                 1.0371                 2.8219

                     13                     14                     15
                      A                      A                      A
 Frequencies --    353.7571               406.4524               426.7138
 Red. masses --      4.4170                 4.2259                 6.3189
 Frc consts  --      0.3257                 0.4113                 0.6779
 IR Inten    --      2.3194                10.9831                 9.7458

                     16                     17                     18
                      A                      A                      A
 Frequencies --    432.9969               474.8336               480.5675
 Red. masses --      3.9034                 3.3277                 8.8290
 Frc consts  --      0.4312                 0.4420                 1.2013
 IR Inten    --      2.1476                14.3468                 0.3032

                     19                     20                     21
                      A                      A                      A
 Frequencies --    536.8146               551.7849               561.7701
 Red. masses --      4.8936                 4.6371                 2.8100
 Frc consts  --      0.8309                 0.8318                 0.5225
 IR Inten    --     18.9836                 0.7619                16.6928

                     22                     23                     24
                      A                      A                      A
 Frequencies --    619.7132               639.9202               684.5451
 Red. masses --      5.2785                 5.6836                 6.3269
 Frc consts  --      1.1944                 1.3713                 1.7468
 IR Inten    --      8.0085                16.8582                15.5603

                     25                     26                     27
                      A                      A                      A
 Frequencies --    724.5186               744.0677               757.7355
 Red. masses --      4.9139                 1.8482                 2.1203
 Frc consts  --      1.5198                 0.6029                 0.7173
 IR Inten    --     21.8016                72.6495                41.9869

                     28                     29                     30
                      A                      A                      A
 Frequencies --    784.6360               809.4421               827.1156
 Red. masses --      3.0658                 3.7529                 3.8036
 Frc consts  --      1.1121                 1.4487                 1.5331
 IR Inten    --     33.4090                31.5144                82.2011

                     31                     32                     33
                      A                      A                      A
 Frequencies --    841.5086               858.6143               883.6009
 Red. masses --      2.8098                 5.0418                 1.3639
 Frc consts  --      1.1723                 2.1899                 0.6274
 IR Inten    --     45.3455                35.7440                 6.6616

                     34                     35                     36
                      A                      A                      A
 Frequencies --    900.3053               965.4671               974.9322
 Red. masses --      1.7113                 1.4933                 2.7271
 Frc consts  --      0.8173                 0.8201                 1.5272
 IR Inten    --     39.6874                13.7611               108.6290

                     37                     38                     39
                      A                      A                      A
 Frequencies --    981.9163              1001.1309              1007.7633
 Red. masses --      1.2901                 1.3047                 1.5789
 Frc consts  --      0.7328                 0.7705                 0.9448
 IR Inten    --      2.0040                 0.9397                 0.8974

                     40                     41                     42
                      A                      A                      A
 Frequencies --   1054.3062              1062.8604              1079.3880
 Red. masses --      1.5715                 2.6796                 2.6311
 Frc consts  --      1.0292                 1.7835                 1.8061
 IR Inten    --      2.0346                31.1837                31.8031

                     43                     44                     45
                      A                      A                      A
 Frequencies --   1124.5595              1143.1269              1178.6735
 Red. masses --      1.9103                 1.4750                 1.1057
 Frc consts  --      1.4234                 1.1356                 0.9050
 IR Inten    --      9.4564               123.8422                 1.1993

                     46                     47                     48
                      A                      A                      A
 Frequencies --   1203.4186              1217.1143              1248.4956
 Red. masses --      2.0851                 2.4507                 1.8379
 Frc consts  --      1.7791                 2.1389                 1.6879
 IR Inten    --     50.6583                 3.6353               205.5126

                     49                     50                     51
                      A                      A                      A
 Frequencies --   1276.5414              1309.6616              1319.1275
 Red. masses --      3.8382                 1.8979                 5.2097
 Frc consts  --      3.6850                 1.9180                 5.3412
 IR Inten    --     68.0526                70.5174                 8.8513

                     52                     53                     54
                      A                      A                      A
 Frequencies --   1349.7092              1409.4799              1424.3717
 Red. masses --      2.3452                 1.2328                 5.0763
 Frc consts  --      2.5172                 1.4430                 6.0680
 IR Inten    --     11.9212                 1.4812               229.5060

                     55                     56                     57
                      A                      A                      A
 Frequencies --   1451.8278              1462.2756              1480.5803
 Red. masses --      5.5633                 1.6043                 1.1241
 Frc consts  --      6.9090                 2.0212                 1.4518
 IR Inten    --    450.5251                20.9280                25.2074

                     58                     59                     60
                      A                      A                      A
 Frequencies --   1487.8102              1503.5011              1511.3608
 Red. masses --      1.3211                 5.3181                 2.1857
 Frc consts  --      1.7230                 7.0830                 2.9415
 IR Inten    --     25.1438               519.7631                 8.4499

                     61                     62                     63
                      A                      A                      A
 Frequencies --   1529.1856              1604.5544              1625.0345
 Red. masses --      8.0680                 5.8678                 7.7265
 Frc consts  --     11.1157                 8.9010                12.0216
 IR Inten    --    894.9863                 6.3552               257.5740

                     64                     65                     66
                      A                      A                      A
 Frequencies --   1638.5496              1642.3736              3034.0157
 Red. masses --      6.7534                 7.6862                 1.0364
 Frc consts  --     10.6830                12.2153                 5.6211
 IR Inten    --     81.7034               219.9578                37.6610

                     67                     68                     69
                      A                      A                      A
 Frequencies --   3088.7188              3104.7148              3149.6285
 Red. masses --      1.0996                 1.1023                 1.0862
 Frc consts  --      6.1809                 6.2601                 6.3488
 IR Inten    --     21.4559                35.9776                24.3535

                     70                     71                     72
                      A                      A                      A
 Frequencies --   3157.1247              3168.0614              3168.2324
 Red. masses --      1.0869                 1.0882                 1.0954
 Frc consts  --      6.3830                 6.4348                 6.4784
 IR Inten    --     10.2319                 9.3326                34.6534

                     73                     74                     75
                      A                      A                      A
 Frequencies --   3172.8734              3178.1949              3188.8423
 Red. masses --      1.0898                 1.0923                 1.0974
 Frc consts  --      6.4638                 6.5006                 6.5745
 IR Inten    --     16.1095                32.0711                33.1022

 - Thermochemistry -
 -------------------
 Temperature   298.150 Kelvin.  Pressure   1.00000 Atm.
 Atom     1 has atomic number  6 and mass  12.00000

 Molecular mass:   226.06299 amu.
 Principal axes and moments of inertia in atomic units:
                           1         2         3
     Eigenvalues --  1679.919676135.726706513.02107
           X            0.95414  -0.27950  -0.10724
           Y            0.23045   0.91440  -0.33280
           Z            0.19108   0.29282   0.93688
 This molecule is an asymmetric top.
 Rotational symmetry number  1.
 Warning -- assumption of classical behavior for rotation
           may cause significant error
 Rotational temperatures (Kelvin)      0.05156     0.01412     0.01330
 Rotational constants (GHZ):           1.07430     0.29414     0.27710
 Zero-point vibrational energy     526108.9 (Joules/Mol)
                                  125.74304 (Kcal/Mol)
 Warning -- explicit consideration of  22 degrees of freedom as
           vibrations may cause significant error
 Vibrational temperatures:     45.20    62.26    98.36   150.04   174.35
          (Kelvin)            191.67   228.88   278.81   309.30   370.42
                              452.76   483.30   508.98   584.79   613.95
                              622.99   683.18   691.43   772.36   793.90
                              808.26   891.63   920.70   984.91  1042.42
                             1070.55  1090.21  1128.92  1164.61  1190.03
                             1210.74  1235.35  1271.30  1295.34  1389.09
                             1402.71  1412.76  1440.40  1449.95  1516.91
                             1529.22  1553.00  1617.99  1644.70  1695.85
                             1731.45  1751.16  1796.31  1836.66  1884.31
                             1897.93  1941.93  2027.93  2049.35  2088.86
                             2103.89  2130.22  2140.63  2163.20  2174.51
                             2200.16  2308.60  2338.06  2357.51  2363.01
                             4365.27  4443.98  4466.99  4531.61  4542.40
                             4558.13  4558.38  4565.06  4572.71  4588.03

 Zero-point correction=                           0.200384 (Hartree/Particle)
 Thermal correction to Energy=                    0.214760
 Thermal correction to Enthalpy=                  0.215704
 Thermal correction to Gibbs Free Energy=         0.157385
 Sum of electronic and zero-point Energies=           -765.322834
 Sum of electronic and thermal Energies=              -765.308459
 Sum of electronic and thermal Enthalpies=            -765.307515
 Sum of electronic and thermal Free Energies=         -765.365833

                     E (Thermal)             CV                S
                      KCal/Mol        Cal/Mol-Kelvin    Cal/Mol-Kelvin
 Total                  134.764             54.936            122.741
 Electronic               0.000              0.000              1.377
 Translational            0.889              2.981             42.149
 Rotational               0.889              2.981             32.573
 Vibrational            132.986             48.975             46.641
 Vibration     1          0.594              1.983              5.738
 Vibration     2          0.595              1.980              5.103
 Vibration     3          0.598              1.969              4.200
 Vibration     4          0.605              1.946              3.373
 Vibration     5          0.609              1.932              3.082
 Vibration     6          0.613              1.920              2.899
 Vibration     7          0.621              1.892              2.561
 Vibration     8          0.635              1.849              2.191
 Vibration     9          0.645              1.818              2.001
 Vibration    10          0.667              1.750              1.679
 Vibration    11          0.702              1.646              1.338
 Vibration    12          0.717              1.604              1.232
 Vibration    13          0.730              1.568              1.149
 Vibration    14          0.771              1.456              0.939
 Vibration    15          0.788              1.412              0.869
 Vibration    16          0.794              1.398              0.849
 Vibration    17          0.832              1.306              0.724
 Vibration    18          0.837              1.293              0.709
 Vibration    19          0.892              1.169              0.572
 Vibration    20          0.907              1.136              0.540
 Vibration    21          0.917              1.114              0.520
 Vibration    22          0.980              0.990              0.417

 Optimization completed.
    -- Stationary point found.
 Normal termination of Gaussian 16 at Sat Feb 10 13:52:48 2024.
