 Gaussian 16, Revision A.03,
 Gaussian 16:  ES64L-G16RevA.03 25-Dec-2016

 ----------------------------------------------------------------------
 #P UB3LYP/6-311++G(d,p) nosym opt freq SCRF=(PCM,Solvent=n,n-DiMethylF
 ormamide)
 ----------------------------------------------------------------------

 -------
 Reduced
 -------
 Symbolic Z-matrix:
 Charge = -2 Multiplicity = 1

 SCF Done:  E(UB3LYP) =  -798.981397668     A.U. after   17 cycles
 SCF Done:  E(UB3LYP) =  -798.983577041     A.U. after   14 cycles
 SCF Done:  E(UB3LYP) =  -798.984015408     A.U. after   12 cycles
 SCF Done:  E(UB3LYP) =  -798.984049521     A.U. after   13 cycles
 SCF Done:  E(UB3LYP) =  -798.984157252     A.U. after   12 cycles
 SCF Done:  E(UB3LYP) =  -798.984213028     A.U. after   13 cycles
 SCF Done:  E(UB3LYP) =  -798.984250250     A.U. after   13 cycles
 SCF Done:  E(UB3LYP) =  -798.984266410     A.U. after   12 cycles
 SCF Done:  E(UB3LYP) =  -798.984275963     A.U. after   12 cycles
 SCF Done:  E(UB3LYP) =  -798.984281436     A.U. after   11 cycles
 SCF Done:  E(UB3LYP) =  -798.984284901     A.U. after   10 cycles
 SCF Done:  E(UB3LYP) =  -798.984288941     A.U. after   11 cycles
 SCF Done:  E(UB3LYP) =  -798.984290539     A.U. after   11 cycles
 SCF Done:  E(UB3LYP) =  -798.984290788     A.U. after   10 cycles
 Optimization completed.
    -- Stationary point found.
 Normal termination of Gaussian 16 at Sun Feb 11 04:06:51 2024.

 ----------------------------------------------------------------------
 #P Geom=AllCheck Guess=TCheck SCRF=Check GenChk UB3LYP/6-311++G(d,p) F
 req
 ----------------------------------------------------------------------

 Structure from the checkpoint file:  "275-an.chk"
 -------
 Reduced
 -------
 Charge = -2 Multiplicity = 1

                          Input orientation:
 ---------------------------------------------------------------------
 Center     Atomic      Atomic             Coordinates (Angstroms)
 Number     Number       Type             X           Y           Z
 ---------------------------------------------------------------------
      1          6           0        0.233183   -0.516808   -0.091839
      2          6           0       -0.353380   -1.703422   -0.583967
      3          6           0       -1.748803   -1.890813   -0.656955
      4          8           0       -2.293392   -2.989356   -1.112511
      5          6           0       -2.554723   -0.773498   -0.189091
      6          6           0       -3.968895   -0.850578   -0.208282
      7          6           0       -4.771493    0.188462    0.221666
      8          6           0       -4.171962    1.380539    0.701214
      9          6           0       -2.798282    1.492789    0.738642
     10          6           0       -1.941690    0.440691    0.307014
     11          6           0       -0.515812    0.594567    0.367519
     12          8           0        0.090080    1.680718    0.810640
     13          1           0        0.292744   -2.504518   -0.918029
     14          1           0       -4.411689   -1.769185   -0.578041
     15          1           0       -5.852852    0.095944    0.193491
     16          1           0       -4.795557    2.203300    1.038612
     17          1           0       -2.331930    2.401086    1.103944
     18          7           0        1.627653   -0.279187   -0.012136
     19          6           0        2.699339   -1.074689   -0.280880
     20          7           0        3.923740   -0.478981   -0.014343
     21          6           0        5.153762   -1.090047   -0.497514
     22          8           0        2.635805   -2.239379   -0.698855
     23          1           0        1.770939    0.654721    0.374464
     24          1           0        3.934911    0.527099    0.066483
     25          1           0        5.236951   -2.111885   -0.126793
     26          1           0        5.996867   -0.514337   -0.114661
     27          1           0        5.213830   -1.116377   -1.592276
 ---------------------------------------------------------------------

 SCF Done:  E(UB3LYP) =  -798.984290788     A.U. after    1 cycles

 Alpha  occ. eigenvalues --  -19.07457 -19.02049 -19.01438 -14.32223 -14.31931
 Alpha  occ. eigenvalues --  -10.28553 -10.19200 -10.17182 -10.16947 -10.16691
 Alpha  occ. eigenvalues --  -10.14980 -10.14697 -10.14612 -10.14583 -10.14057
 Alpha  occ. eigenvalues --  -10.13697 -10.11722  -1.03598  -0.93984  -0.92219
 Alpha  occ. eigenvalues --   -0.91494  -0.88756  -0.82471  -0.76542  -0.72251
 Alpha  occ. eigenvalues --   -0.71522  -0.68544  -0.64746  -0.60555  -0.58881
 Alpha  occ. eigenvalues --   -0.56412  -0.54376  -0.53013  -0.49657  -0.46658
 Alpha  occ. eigenvalues --   -0.45803  -0.44906  -0.43535  -0.42417  -0.41304
 Alpha  occ. eigenvalues --   -0.40360  -0.40160  -0.39332  -0.38429  -0.37480
 Alpha  occ. eigenvalues --   -0.37130  -0.35619  -0.34647  -0.32805  -0.32436
 Alpha  occ. eigenvalues --   -0.31468  -0.30242  -0.27729  -0.26400  -0.25158
 Alpha  occ. eigenvalues --   -0.22907  -0.22153  -0.20574  -0.19437  -0.19435
 Alpha  occ. eigenvalues --   -0.11351
 Alpha virt. eigenvalues --   -0.00732  -0.00287   0.00459   0.00786   0.01487
 Alpha virt. eigenvalues --    0.01952   0.02496   0.03673   0.03832   0.04235
 Alpha virt. eigenvalues --    0.05317   0.05467   0.05628   0.05943   0.07002

  Beta  occ. eigenvalues --  -19.07457 -19.02049 -19.01438 -14.32223 -14.31931
  Beta  occ. eigenvalues --  -10.28553 -10.19200 -10.17182 -10.16947 -10.16691
  Beta  occ. eigenvalues --  -10.14980 -10.14697 -10.14612 -10.14583 -10.14057
  Beta  occ. eigenvalues --  -10.13697 -10.11722  -1.03598  -0.93984  -0.92219
  Beta  occ. eigenvalues --   -0.91494  -0.88756  -0.82471  -0.76542  -0.72251
  Beta  occ. eigenvalues --   -0.71522  -0.68544  -0.64746  -0.60555  -0.58881
  Beta  occ. eigenvalues --   -0.56412  -0.54376  -0.53013  -0.49657  -0.46658
  Beta  occ. eigenvalues --   -0.45803  -0.44906  -0.43535  -0.42417  -0.41304
  Beta  occ. eigenvalues --   -0.40360  -0.40160  -0.39332  -0.38429  -0.37480
  Beta  occ. eigenvalues --   -0.37130  -0.35619  -0.34647  -0.32805  -0.32436
  Beta  occ. eigenvalues --   -0.31468  -0.30242  -0.27729  -0.26400  -0.25158
  Beta  occ. eigenvalues --   -0.22907  -0.22153  -0.20574  -0.19437  -0.19435
  Beta  occ. eigenvalues --   -0.11351
  Beta virt. eigenvalues --   -0.00732  -0.00287   0.00459   0.00786   0.01487
  Beta virt. eigenvalues --    0.01952   0.02496   0.03673   0.03832   0.04235
  Beta virt. eigenvalues --    0.05317   0.05467   0.05628   0.05943   0.07002

 Mulliken charges and spin densities:
               1          2
     1  C    0.578114   0.000000
     2  C    0.180340  -0.000000
     3  C   -0.329999  -0.000000
     4  O   -0.716644   0.000000
     5  C    0.622154   0.000000
     6  C    0.035320  -0.000000
     7  C   -0.365917   0.000000
     8  C   -0.454896  -0.000000
     9  C   -0.036319  -0.000000
    10  C   -0.171861   0.000000
    11  C   -1.369125  -0.000000
    12  O   -0.701550   0.000000
    13  H    0.199473   0.000000
    14  H    0.139252  -0.000000
    15  H    0.156900   0.000000
    16  H    0.156378  -0.000000
    17  H    0.151019   0.000000
    18  N   -0.294935  -0.000000
    19  C    0.096785  -0.000000
    20  N   -0.189058   0.000000
    21  C   -0.272600  -0.000000
    22  O   -0.504209   0.000000
    23  H    0.356187   0.000000
    24  H    0.256042   0.000000
    25  H    0.165712   0.000000
    26  H    0.146402   0.000000
    27  H    0.167036   0.000000
 Sum of Mulliken charges =  -2.00000   0.00000

 Dipole moment (field-independent basis, Debye):
    X=             12.5549    Y=             10.9563    Z=              2.3336  Tot=             16.8260
 Quadrupole moment (field-independent basis, Debye-Ang):
   XX=           -133.4560   YY=           -164.3675   ZZ=           -119.1905
   XY=            -10.7997   XZ=             -6.8639   YZ=            -20.2984

  Exact polarizability: 442.121 -35.983 306.162 -16.915  62.873 178.682
 Approx polarizability: 463.100 -31.995 352.425 -14.265  75.645 197.569

                      1                      2                      3
                      A                      A                      A
 Frequencies --     17.7162                40.7565                90.7406
 Red. masses --      5.3765                 4.6078                 4.9875
 Frc consts  --      0.0010                 0.0045                 0.0242
 IR Inten    --      1.9261                20.4916                13.3618

                      4                      5                      6
                      A                      A                      A
 Frequencies --     98.8055               116.0448               138.5189
 Red. masses --      3.4921                 1.6918                 4.1744
 Frc consts  --      0.0201                 0.0134                 0.0472
 IR Inten    --      6.1057                13.0009                 1.4357

                      7                      8                      9
                      A                      A                      A
 Frequencies --    142.8817               185.2797               238.4213
 Red. masses --      2.2114                 7.4688                 4.6336
 Frc consts  --      0.0266                 0.1511                 0.1552
 IR Inten    --     14.5263                 4.0551                 6.8968

                     10                     11                     12
                      A                      A                      A
 Frequencies --    251.9915               266.5180               279.8323
 Red. masses --      5.9411                 5.3453                 5.8334
 Frc consts  --      0.2223                 0.2237                 0.2691
 IR Inten    --      2.6235                 0.1278                39.5360

                     13                     14                     15
                      A                      A                      A
 Frequencies --    334.0058               364.0515               381.7174
 Red. masses --      4.1136                 7.9824                 6.4820
 Frc consts  --      0.2704                 0.6233                 0.5565
 IR Inten    --     78.0984                11.4595                 1.9302

                     16                     17                     18
                      A                      A                      A
 Frequencies --    421.6462               442.4388               476.6314
 Red. masses --      1.5752                 3.3167                 9.5909
 Frc consts  --      0.1650                 0.3825                 1.2837
 IR Inten    --    109.1848                 6.6231                 1.6631

                     19                     20                     21
                      A                      A                      A
 Frequencies --    497.4772               518.7811               575.2621
 Red. masses --      7.7685                 3.6390                 6.7750
 Frc consts  --      1.1328                 0.5770                 1.3210
 IR Inten    --      4.2016                 1.4122                 5.4804

                     22                     23                     24
                      A                      A                      A
 Frequencies --    645.2238               648.3086               684.9323
 Red. masses --      5.1962                 3.0453                 2.4147
 Frc consts  --      1.2746                 0.7541                 0.6674
 IR Inten    --      3.7995                 2.0292               179.3147

                     25                     26                     27
                      A                      A                      A
 Frequencies --    690.9957               707.8386               724.6226
 Red. masses --      2.4867                 2.9707                 6.3110
 Frc consts  --      0.6995                 0.8770                 1.9524
 IR Inten    --     97.8575                 2.1731               132.8537

                     28                     29                     30
                      A                      A                      A
 Frequencies --    752.3067               766.5593               772.4728
 Red. masses --      5.1188                 1.9024                 2.4794
 Frc consts  --      1.7069                 0.6586                 0.8717
 IR Inten    --     10.2168                97.9147                 7.8264

                     31                     32                     33
                      A                      A                      A
 Frequencies --    784.6086               836.3728               841.0839
 Red. masses --      3.0256                 2.0298                 2.9402
 Frc consts  --      1.0974                 0.8366                 1.2255
 IR Inten    --      0.0157                53.9463                29.3298

                     34                     35                     36
                      A                      A                      A
 Frequencies --    854.6350               947.2122               966.5578
 Red. masses --      1.6950                 4.5696                 1.3492
 Frc consts  --      0.7294                 2.4156                 0.7426
 IR Inten    --      0.3721               128.3431                 3.2217

                     37                     38                     39
                      A                      A                      A
 Frequencies --    978.5115               995.3667              1025.4224
 Red. masses --      1.2542                 4.6999                 2.1468
 Frc consts  --      0.7075                 2.7435                 1.3300
 IR Inten    --      0.8902                 5.6901                70.9945

                     40                     41                     42
                      A                      A                      A
 Frequencies --   1084.2103              1110.8183              1137.6691
 Red. masses --      3.4667                 3.0046                 1.4984
 Frc consts  --      2.4010                 2.1843                 1.1426
 IR Inten    --    168.2516                61.5850               119.1820

                     43                     44                     45
                      A                      A                      A
 Frequencies --   1142.2360              1151.4769              1160.1765
 Red. masses --      1.5584                 1.6021                 1.5610
 Frc consts  --      1.1979                 1.2516                 1.2379
 IR Inten    --    251.0796                 2.4490               193.6211

                     46                     47                     48
                      A                      A                      A
 Frequencies --   1176.4521              1208.4414              1220.4913
 Red. masses --      2.0891                 2.0838                 2.4016
 Frc consts  --      1.7036                 1.7929                 2.1077
 IR Inten    --     53.4413               565.1714               506.0788

                     49                     50                     51
                      A                      A                      A
 Frequencies --   1247.5497              1287.8821              1319.8922
 Red. masses --      2.5872                 2.1375                 5.9105
 Frc consts  --      2.3725                 2.0889                 6.0667
 IR Inten    --     56.0372               197.2046               272.5770

                     52                     53                     54
                      A                      A                      A
 Frequencies --   1377.7020              1403.8304              1417.8473
 Red. masses --      6.8196                 5.5099                 2.5951
 Frc consts  --      7.6264                 6.3977                 3.0737
 IR Inten    --   1947.3476                30.5958               204.3968

                     55                     56                     57
                      A                      A                      A
 Frequencies --   1444.7578              1453.0194              1473.3791
 Red. masses --      1.1933                 2.7175                 1.0849
 Frc consts  --      1.4676                 3.3804                 1.3876
 IR Inten    --     45.1424                96.3638                76.6383

                     58                     59                     60
                      A                      A                      A
 Frequencies --   1485.9090              1504.7207              1520.7210
 Red. masses --      1.8434                 1.5253                 2.7352
 Frc consts  --      2.3980                 2.0348                 3.7269
 IR Inten    --    165.9252                69.0156                78.8892

                     61                     62                     63
                      A                      A                      A
 Frequencies --   1533.1547              1549.8341              1590.8294
 Red. masses --      1.7610                 3.1899                 5.9339
 Frc consts  --      2.4388                 4.5144                 8.8479
 IR Inten    --    699.4649              1224.6717                63.0351

                     64                     65                     66
                      A                      A                      A
 Frequencies --   1610.3432              1660.0149              3002.0017
 Red. masses --      5.3823                 5.9046                 1.0519
 Frc consts  --      8.2234                 9.5865                 5.5851
 IR Inten    --     20.8137               712.4473               137.4369

                     67                     68                     69
                      A                      A                      A
 Frequencies --   3086.2208              3125.1522              3137.4865
 Red. masses --      1.0823                 1.1041                 1.0845
 Frc consts  --      6.0735                 6.3531                 6.2898
 IR Inten    --     45.3212                26.3003                17.7658

                     70                     71                     72
                      A                      A                      A
 Frequencies --   3152.7222              3167.7791              3172.8608
 Red. masses --      1.0885                 1.0915                 1.0945
 Frc consts  --      6.3743                 6.4534                 6.4921
 IR Inten    --     26.4525                44.1709                75.1083

                     73                     74                     75
                      A                      A                      A
 Frequencies --   3192.3853              3428.8884              3610.3922
 Red. masses --      1.0883                 1.0761                 1.0771
 Frc consts  --      6.5350                 7.4540                 8.2724
 IR Inten    --     25.7951               226.1259                38.5891

 - Thermochemistry -
 -------------------
 Temperature   298.150 Kelvin.  Pressure   1.00000 Atm.
 Atom     1 has atomic number  6 and mass  12.00000

 Molecular mass:   230.06914 amu.
 Principal axes and moments of inertia in atomic units:
                           1         2         3
     Eigenvalues --  1630.018617095.336028709.51891
           X            0.98690   0.16122   0.00528
           Y           -0.14740   0.91464  -0.37644
           Z           -0.06552   0.37073   0.92643
 This molecule is an asymmetric top.
 Rotational symmetry number  1.
 Warning -- assumption of classical behavior for rotation
           may cause significant error
 Rotational temperatures (Kelvin)      0.05314     0.01221     0.00994
 Rotational constants (GHZ):           1.10719     0.25436     0.20721
 Zero-point vibrational energy     525470.4 (Joules/Mol)
                                  125.59045 (Kcal/Mol)
 Warning -- explicit consideration of  21 degrees of freedom as
           vibrations may cause significant error
 Vibrational temperatures:     25.49    58.64   130.56   142.16   166.96
          (Kelvin)            199.30   205.57   266.58   343.04   362.56
                              383.46   402.62   480.56   523.79   549.21
                              606.65   636.57   685.77   715.76   746.41
                              827.67   928.33   932.77   985.46   994.19
                             1018.42  1042.57  1082.40  1102.91  1111.42
                             1128.88  1203.35  1210.13  1229.63  1362.83
                             1390.66  1407.86  1432.11  1475.35  1559.94
                             1598.22  1636.85  1643.42  1656.72  1669.24
                             1692.65  1738.68  1756.01  1794.95  1852.98
                             1899.03  1982.21  2019.80  2039.97  2078.68
                             2090.57  2119.86  2137.89  2164.96  2187.98
                             2205.87  2229.87  2288.85  2316.92  2388.39
                             4319.21  4440.38  4496.40  4514.14  4536.06
                             4557.73  4565.04  4593.13  4933.41  5194.55

 Zero-point correction=                           0.200141 (Hartree/Particle)
 Thermal correction to Energy=                    0.214951
 Thermal correction to Enthalpy=                  0.215895
 Thermal correction to Gibbs Free Energy=         0.156821
 Sum of electronic and zero-point Energies=           -798.784150
 Sum of electronic and thermal Energies=              -798.769340
 Sum of electronic and thermal Enthalpies=            -798.768396
 Sum of electronic and thermal Free Energies=         -798.827470

                     E (Thermal)             CV                S
                      KCal/Mol        Cal/Mol-Kelvin    Cal/Mol-Kelvin
 Total                  134.884             56.162            124.332
 Electronic               0.000              0.000              0.000
 Translational            0.889              2.981             42.202
 Rotational               0.889              2.981             32.977
 Vibrational            133.106             50.201             49.154
 Vibration     1          0.593              1.986              6.875
 Vibration     2          0.594              1.981              5.222
 Vibration     3          0.602              1.956              3.644
 Vibration     4          0.604              1.950              3.478
 Vibration     5          0.608              1.936              3.165
 Vibration     6          0.614              1.915              2.824
 Vibration     7          0.616              1.910              2.765
 Vibration     8          0.631              1.860              2.275
 Vibration     9          0.656              1.782              1.815
 Vibration    10          0.664              1.759              1.717
 Vibration    11          0.672              1.735              1.619
 Vibration    12          0.680              1.711              1.535
 Vibration    13          0.716              1.608              1.241
 Vibration    14          0.738              1.546              1.105
 Vibration    15          0.751              1.509              1.032
 Vibration    16          0.784              1.423              0.886
 Vibration    17          0.802              1.378              0.819
 Vibration    18          0.833              1.302              0.719
 Vibration    19          0.853              1.256              0.664
 Vibration    20          0.874              1.208              0.613
 Vibration    21          0.932              1.085              0.494

                           ! Non-Optimized Parameters !
 Normal termination of Gaussian 16 at Sun Feb 11 04:50:08 2024.
