 Q-Chem 5.4, Q-Chem, Inc., Pleasanton, CA (2021)
 Q-Chem 5.4.0 for Intel X86 EM64T Linux

User input:
--------------------------------------------------------------
$molecule
0 1
O                  2.4073240000      2.9037480000     -1.1305460000
N                  2.6526400000      2.3270390000     -0.0858820000
O                  3.1727050000      2.8130490000      0.9042640000
C                  2.3928340000      0.8625900000     -0.0543920000
C                  3.5170620000      0.0551470000     -0.1369560000
C                  3.3590120000     -1.3285760000     -0.1876780000
C                  2.0868070000     -1.8840000000     -0.1545130000
C                  0.9613720000     -1.0623420000     -0.0555670000
C                 -0.3906650000     -1.7094070000     -0.0413350000
O                 -0.4985800000     -2.9221000000     -0.0982230000
C                 -1.5811470000     -0.8204410000      0.0241900000
C                 -2.8590610000     -1.3864570000     -0.0238420000
C                 -3.9836680000     -0.5727890000      0.0394590000
C                 -3.8418230000      0.8128880000      0.1583240000
C                 -2.5759370000      1.3834280000      0.2156020000
C                 -1.4389140000      0.5727620000      0.1441220000
C                 -0.0964990000      1.2131120000      0.2206660000
O                  0.0318090000      2.3964920000      0.4714800000
C                  1.0980290000      0.3372050000      0.0087410000
H                  4.5006460000      0.5073860000     -0.1695470000
H                  4.2325960000     -1.9655430000     -0.2572220000
H                  1.9372770000     -2.9551970000     -0.2013260000
H                 -2.9459560000     -2.4623750000     -0.1101100000
H                 -4.9727410000     -1.0142810000     -0.0020230000
H                 -4.7209530000      1.4449840000      0.2080010000
H                 -2.4441690000      2.4536760000      0.3143150000
$end
$rem
MAX_SCF_CYCLES=200
BASIS  =  6-311++G(d,p)
GUI  =  2
JOB_TYPE  =  SP
METHOD  =  B3LYP
SOLVENT_METHOD = PCM
$end
$pcm
theory = CPCM
$end
$solvent
dielectric 37.219
opticaldielectric 1.43
$end

--------------------------------------------------------------

             Standard Nuclear Orientation (Angstroms)
    I     Atom           X                Y                Z
 ----------------------------------------------------------------
    1      O       2.4073240000     2.9037480000    -1.1305460000
    2      N       2.6526400000     2.3270390000    -0.0858820000
    3      O       3.1727050000     2.8130490000     0.9042640000
    4      C       2.3928340000     0.8625900000    -0.0543920000
    5      C       3.5170620000     0.0551470000    -0.1369560000
    6      C       3.3590120000    -1.3285760000    -0.1876780000
    7      C       2.0868070000    -1.8840000000    -0.1545130000
    8      C       0.9613720000    -1.0623420000    -0.0555670000
    9      C      -0.3906650000    -1.7094070000    -0.0413350000
   10      O      -0.4985800000    -2.9221000000    -0.0982230000
   11      C      -1.5811470000    -0.8204410000     0.0241900000
   12      C      -2.8590610000    -1.3864570000    -0.0238420000
   13      C      -3.9836680000    -0.5727890000     0.0394590000
   14      C      -3.8418230000     0.8128880000     0.1583240000
   15      C      -2.5759370000     1.3834280000     0.2156020000
   16      C      -1.4389140000     0.5727620000     0.1441220000
   17      C      -0.0964990000     1.2131120000     0.2206660000
   18      O       0.0318090000     2.3964920000     0.4714800000
   19      C       1.0980290000     0.3372050000     0.0087410000
   20      H       4.5006460000     0.5073860000    -0.1695470000
   21      H       4.2325960000    -1.9655430000    -0.2572220000
   22      H       1.9372770000    -2.9551970000    -0.2013260000
   23      H      -2.9459560000    -2.4623750000    -0.1101100000
   24      H      -4.9727410000    -1.0142810000    -0.0020230000
   25      H      -4.7209530000     1.4449840000     0.2080010000
   26      H      -2.4441690000     2.4536760000     0.3143150000
 ----------------------------------------------------------------

    9    -893.5187644425      4.08e-06  Convergence criterion met
 Total energy in the final basis set =     -893.5187644425

                    Orbital Energies (a.u.)
 --------------------------------------------------------------

 Alpha MOs
 -- Occupied --
-19.1906 -19.1900 -19.1436 -19.1396 -14.5810 -10.2974 -10.2921 -10.2663
-10.2354 -10.2250 -10.2204 -10.2144 -10.2133 -10.2124 -10.2100 -10.2010
-10.2008 -10.2003 -10.1999  -1.2678  -1.0965  -1.0816  -1.0749  -0.9186
 -0.8924  -0.8363  -0.8210  -0.7830  -0.7819  -0.7329  -0.6984  -0.6728
 -0.6586  -0.6170  -0.6003  -0.5858  -0.5724  -0.5589  -0.5498  -0.5421
 -0.5126  -0.4985  -0.4954  -0.4886  -0.4696  -0.4669  -0.4550  -0.4540
 -0.4492  -0.4305  -0.4106  -0.4094  -0.4068  -0.3845  -0.3805  -0.3729
 -0.3485  -0.3433  -0.3395  -0.3021  -0.2992  -0.2904  -0.2860  -0.2840
 -0.2820

          Ground-State Mulliken Net Atomic Charges

     Atom                 Charge (a.u.)
  ----------------------------------------
      1 O                    -0.021871
      2 N                    -0.114146
      3 O                    -0.009425
      4 C                    -0.295602
      5 C                     0.264774
      6 C                    -0.453318
      7 C                    -0.146750
      8 C                     1.073411
      9 C                    -0.332343
     10 O                    -0.265390
     11 C                     0.336825
     12 C                     0.121509
     13 C                    -0.479993
     14 C                    -0.397149
     15 C                     0.145450
     16 C                     0.054980
     17 C                    -1.013333
     18 O                    -0.232785
     19 C                     0.183207
     20 H                     0.268125
     21 H                     0.251017
     22 H                     0.202590
     23 H                     0.202001
     24 H                     0.226359
     25 H                     0.229518
     26 H                     0.202339
  ----------------------------------------
  Sum of atomic charges =     0.000000

                    Cartesian Multipole Moments
 -----------------------------------------------------------------
    Charge (ESU x 10^10)
                 0.0000
    Dipole Moment (Debye)
         X      -1.9567      Y      -5.0236      Z      -0.5392
       Tot       5.4181
    Quadrupole Moments (Debye-Ang)
        XX     -74.3956     XY     -19.7522     YY    -132.4355
        XZ      -2.9354     YZ      -0.6389     ZZ    -112.8101

 Total job time:  96.08s(wall), 389.14s(cpu)
        *  Thank you very much for using Q-Chem.  Have a nice day.  *
