 Gaussian 16, Revision A.03,
 Gaussian 16:  ES64L-G16RevA.03 25-Dec-2016

 ----------------------------------------------------------------------
 #P UB3LYP/6-311++G(d,p) nosym opt freq SCRF=(PCM,Solvent=n,n-DiMethylF
 ormamide)
 ----------------------------------------------------------------------

 -------
 Radical
 -------
 Symbolic Z-matrix:
 Charge = -1 Multiplicity = 2

 SCF Done:  E(UB3LYP) =  -1352.30865371     A.U. after   22 cycles
 SCF Done:  E(UB3LYP) =  -1352.30923103     A.U. after   17 cycles
 SCF Done:  E(UB3LYP) =  -1352.30944436     A.U. after   17 cycles
 SCF Done:  E(UB3LYP) =  -1352.30946751     A.U. after   17 cycles
 SCF Done:  E(UB3LYP) =  -1352.30949672     A.U. after   14 cycles
 SCF Done:  E(UB3LYP) =  -1352.30951356     A.U. after   14 cycles
 SCF Done:  E(UB3LYP) =  -1352.30952004     A.U. after   14 cycles
 SCF Done:  E(UB3LYP) =  -1352.30952712     A.U. after   14 cycles
 SCF Done:  E(UB3LYP) =  -1352.30953298     A.U. after   14 cycles
 SCF Done:  E(UB3LYP) =  -1352.30953393     A.U. after   13 cycles
 SCF Done:  E(UB3LYP) =  -1352.30953428     A.U. after   12 cycles
 SCF Done:  E(UB3LYP) =  -1352.30953447     A.U. after   11 cycles
 SCF Done:  E(UB3LYP) =  -1352.30953452     A.U. after   11 cycles
 SCF Done:  E(UB3LYP) =  -1352.30953453     A.U. after   10 cycles
 Optimization completed.
    -- Stationary point found.
 Normal termination of Gaussian 16 at Sun Feb 11 00:28:50 2024.

 ----------------------------------------------------------------------
 #P Geom=AllCheck Guess=TCheck SCRF=Check GenChk UB3LYP/6-311++G(d,p) F
 req
 ----------------------------------------------------------------------

 Structure from the checkpoint file:  "215-rad.chk"
 -------
 Radical
 -------
 Charge = -1 Multiplicity = 2

                          Input orientation:
 ---------------------------------------------------------------------
 Center     Atomic      Atomic             Coordinates (Angstroms)
 Number     Number       Type             X           Y           Z
 ---------------------------------------------------------------------
      1          6           0        5.045500   -2.322675    0.583715
      2          6           0        5.833539   -1.627045   -0.312752
      3          6           0        5.229718   -0.852370   -1.323217
      4          6           0        3.636974   -2.273456    0.508312
      5          6           0        3.026279   -1.491630   -0.511607
      6          6           0        3.852775   -0.789479   -1.416227
      7          6           0        2.839481   -3.026639    1.480904
      8          6           0        1.387238   -2.929768    1.342000
      9          6           0        0.774935   -2.143146    0.317483
     10          6           0        1.569578   -1.396760   -0.647094
     11          6           0        0.569943   -3.634079    2.244838
     12          6           0       -0.638795   -2.092380    0.246483
     13          6           0       -1.432481   -2.780157    1.134213
     14          8           0        3.373099   -3.717849    2.383884
     15          8           0        1.032902   -0.702774   -1.553515
     16          1           0        5.493068   -2.922957    1.366278
     17          1           0        6.914392   -1.675913   -0.240332
     18          1           0        5.847465   -0.305805   -2.027386
     19          1           0       -2.511913   -2.726625    1.076809
     20          1           0        3.375837   -0.197955   -2.187967
     21          1           0        1.039298   -4.227996    3.017875
     22          1           0       -1.087615   -1.488389   -0.531930
     23          6           0       -0.803464   -3.554761    2.138879
     24         16           0       -1.805823   -4.460295    3.282342
     25          8           0       -1.013357   -4.909290    4.428859
     26          8           0       -3.057965   -3.747283    3.551327
     27          8           0       -2.154544   -5.761218    2.347280
     28          6           0       -3.100099   -6.724243    2.891845
     29          1           0       -2.711746   -7.156502    3.814669
     30          1           0       -3.185081   -7.490960    2.125978
     31          1           0       -4.066888   -6.249639    3.060413
 ---------------------------------------------------------------------

 SCF Done:  E(UB3LYP) =  -1352.30953453     A.U. after    2 cycles

 Alpha  occ. eigenvalues --  -89.09000 -19.18082 -19.13719 -19.13662 -19.08665
 Alpha  occ. eigenvalues --  -19.08304 -10.23727 -10.23410 -10.23147 -10.22053
 Alpha  occ. eigenvalues --  -10.19885 -10.19497 -10.18767 -10.18723 -10.18498
 Alpha  occ. eigenvalues --  -10.18220 -10.18161 -10.17882 -10.17800 -10.17633
 Alpha  occ. eigenvalues --  -10.17551  -8.15090  -6.11469  -6.11297  -6.11132
 Alpha  occ. eigenvalues --   -1.15751  -1.05004  -1.02743  -1.01294  -1.00689
 Alpha  occ. eigenvalues --   -0.88242  -0.86269  -0.80949  -0.77823  -0.76213
 Alpha  occ. eigenvalues --   -0.75657  -0.73825  -0.68572  -0.66570  -0.63975
 Alpha  occ. eigenvalues --   -0.61443  -0.60026  -0.57176  -0.56078  -0.54333
 Alpha  occ. eigenvalues --   -0.52939  -0.50764  -0.49889  -0.48243  -0.47496
 Alpha  occ. eigenvalues --   -0.46776  -0.45961  -0.45843  -0.44520  -0.43247
 Alpha  occ. eigenvalues --   -0.43051  -0.42629  -0.42083  -0.41730  -0.41052
 Alpha  occ. eigenvalues --   -0.40058  -0.38836  -0.38293  -0.36906  -0.35983
 Alpha  occ. eigenvalues --   -0.35790  -0.35470  -0.35104  -0.34294  -0.33732
 Alpha  occ. eigenvalues --   -0.33414  -0.30668  -0.28167  -0.27617  -0.26204
 Alpha  occ. eigenvalues --   -0.26020  -0.25503  -0.24631  -0.15345
 Alpha virt. eigenvalues --   -0.06988  -0.04378  -0.01553  -0.00734   0.00052
 Alpha virt. eigenvalues --    0.00984   0.01284   0.01871   0.02208   0.02628
 Alpha virt. eigenvalues --    0.03096   0.03692   0.03984   0.04420   0.04585

  Beta  occ. eigenvalues --  -89.09000 -19.18076 -19.13712 -19.13658 -19.08149
  Beta  occ. eigenvalues --  -19.07699 -10.23597 -10.23407 -10.22984 -10.21977
  Beta  occ. eigenvalues --  -10.19928 -10.19399 -10.18654 -10.18581 -10.18508
  Beta  occ. eigenvalues --  -10.18178 -10.18102 -10.17859 -10.17759 -10.17635
  Beta  occ. eigenvalues --  -10.17535  -8.15089  -6.11464  -6.11296  -6.11134
  Beta  occ. eigenvalues --   -1.15734  -1.04989  -1.02732  -1.00397  -0.99628
  Beta  occ. eigenvalues --   -0.88009  -0.86124  -0.80577  -0.77609  -0.76046
  Beta  occ. eigenvalues --   -0.75490  -0.73699  -0.68010  -0.66308  -0.63761
  Beta  occ. eigenvalues --   -0.61292  -0.59959  -0.57043  -0.55883  -0.54162
  Beta  occ. eigenvalues --   -0.52874  -0.50607  -0.49853  -0.48015  -0.47381
  Beta  occ. eigenvalues --   -0.46648  -0.45924  -0.45809  -0.44494  -0.43012
  Beta  occ. eigenvalues --   -0.42541  -0.41966  -0.41614  -0.41491  -0.40978
  Beta  occ. eigenvalues --   -0.39822  -0.37909  -0.36806  -0.36546  -0.35934
  Beta  occ. eigenvalues --   -0.35712  -0.35320  -0.34416  -0.34085  -0.33717
  Beta  occ. eigenvalues --   -0.33100  -0.30644  -0.27134  -0.26032  -0.25496
  Beta  occ. eigenvalues --   -0.25258  -0.24998  -0.24096
  Beta virt. eigenvalues --   -0.09485  -0.06189  -0.03304  -0.01295  -0.00717
  Beta virt. eigenvalues --    0.00064   0.01035   0.01325   0.01987   0.02233
  Beta virt. eigenvalues --    0.02843   0.03288   0.03704   0.04105   0.04488

 Mulliken charges and spin densities:
               1          2
     1  C    0.054524   0.015154
     2  C   -0.439748   0.034866
     3  C   -0.474357   0.015956
     4  C    0.325475   0.021845
     5  C    0.410479   0.006645
     6  C    0.057429   0.036809
     7  C   -0.789169   0.069776
     8  C    0.440493   0.079892
     9  C    0.749057   0.099683
    10  C   -0.409502   0.092701
    11  C    0.205151  -0.020344
    12  C   -0.109626   0.017897
    13  C   -0.479732   0.081732
    14  O   -0.420062   0.190819
    15  O   -0.439791   0.225290
    16  H    0.167839  -0.001175
    17  H    0.187791  -0.002706
    18  H    0.186780  -0.001569
    19  H    0.235420  -0.005483
    20  H    0.169422  -0.002559
    21  H    0.223264   0.001113
    22  H    0.172453  -0.000670
    23  C   -1.258380   0.035037
    24  S    0.379787   0.008567
    25  O   -0.211896   0.002295
    26  O   -0.256773  -0.002142
    27  O   -0.068887  -0.000995
    28  C   -0.149888   0.001210
    29  H    0.177205   0.000031
    30  H    0.188991   0.000302
    31  H    0.176249   0.000024
 Sum of Mulliken charges =  -1.00000   1.00000

 Dipole moment (field-independent basis, Debye):
    X=             -6.5076    Y=             11.0929    Z=             -7.4900  Tot=             14.8829
 Quadrupole moment (field-independent basis, Debye-Ang):
   XX=           -147.9393   YY=           -158.3647   ZZ=           -178.4874
   XY=             30.2292   XZ=             -5.8319   YZ=             33.1297

  Exact polarizability: 529.797  58.543 272.439 -63.872-126.068 327.232
 Approx polarizability: 545.780  25.103 303.578 -30.239-137.308 374.284

                      1                      2                      3
                      A                      A                      A
 Frequencies --     17.4044                35.6313                53.4980
 Red. masses --      5.3563                 6.4246                 3.0350
 Frc consts  --      0.0010                 0.0048                 0.0051
 IR Inten    --      4.7957                 4.1321                 3.8908

                      4                      5                      6
                      A                      A                      A
 Frequencies --     68.3738               107.1965               115.3601
 Red. masses --      6.5194                 7.5132                 3.9853
 Frc consts  --      0.0180                 0.0509                 0.0312
 IR Inten    --     10.0241                 1.1565                 1.2984

                      7                      8                      9
                      A                      A                      A
 Frequencies --    137.2148               144.3542               162.3093
 Red. masses --      3.8906                 1.2846                 7.8084
 Frc consts  --      0.0432                 0.0158                 0.1212
 IR Inten    --      2.7989                 1.4298                 8.4825

                     10                     11                     12
                      A                      A                      A
 Frequencies --    205.1379               216.8887               229.7847
 Red. masses --      6.6322                 7.2658                 8.0139
 Frc consts  --      0.1644                 0.2014                 0.2493
 IR Inten    --      3.3194                 9.1222                 6.5881

                     13                     14                     15
                      A                      A                      A
 Frequencies --    255.5458               288.9560               335.7502
 Red. masses --      4.9134                 7.9996                 5.8417
 Frc consts  --      0.1890                 0.3935                 0.3880
 IR Inten    --     23.8232                 2.6956                 1.8597

                     16                     17                     18
                      A                      A                      A
 Frequencies --    367.8999               380.6409               406.0610
 Red. masses --      7.4223                10.5543                 7.5987
 Frc consts  --      0.5919                 0.9010                 0.7382
 IR Inten    --     17.0596                16.5257                 1.9406

                     19                     20                     21
                      A                      A                      A
 Frequencies --    419.4812               435.8369               452.3005
 Red. masses --      3.3821                 6.6868                 8.5258
 Frc consts  --      0.3506                 0.7484                 1.0276
 IR Inten    --      2.5713                 0.8864                36.1268

                     22                     23                     24
                      A                      A                      A
 Frequencies --    463.6911               473.8353               484.2166
 Red. masses --      3.2030                 8.5759                 9.8178
 Frc consts  --      0.4058                 1.1344                 1.3563
 IR Inten    --      0.1931                 9.4302                17.7453

                     25                     26                     27
                      A                      A                      A
 Frequencies --    500.0465               535.9120               598.9633
 Red. masses --     10.2588                 5.2311                 9.1703
 Frc consts  --      1.5114                 0.8852                 1.9384
 IR Inten    --     15.0441                21.3657               300.1959

                     28                     29                     30
                      A                      A                      A
 Frequencies --    635.9267               642.1119               655.3854
 Red. masses --      7.0669                 4.8517                 6.6068
 Frc consts  --      1.6838                 1.1786                 1.6720
 IR Inten    --     15.6779                30.1506                73.9049

                     31                     32                     33
                      A                      A                      A
 Frequencies --    674.3687               693.8937               709.0650
 Red. masses --      7.6722                 6.4811                 2.6757
 Frc consts  --      2.0557                 1.8386                 0.7926
 IR Inten    --    453.3355                13.5067                85.0490

                     34                     35                     36
                      A                      A                      A
 Frequencies --    717.6415               730.7462               789.7956
 Red. masses --      7.5212                 4.5848                 1.6084
 Frc consts  --      2.2822                 1.4425                 0.5911
 IR Inten    --    165.9107                 5.6291                19.6576

                     37                     38                     39
                      A                      A                      A
 Frequencies --    806.1237               828.8529               831.1272
 Red. masses --      2.8961                 4.1447                 2.3231
 Frc consts  --      1.1088                 1.6777                 0.9455
 IR Inten    --     11.2948                46.0885                20.6779

                     40                     41                     42
                      A                      A                      A
 Frequencies --    893.2400               932.6592               950.5112
 Red. masses --      1.4907                 6.6277                 1.5322
 Frc consts  --      0.7008                 3.3967                 0.8156
 IR Inten    --      0.2164                56.7458                22.1735

                     43                     44                     45
                      A                      A                      A
 Frequencies --    960.2537               967.3345               990.1415
 Red. masses --      7.9142                 5.9738                 1.3215
 Frc consts  --      4.2996                 3.2935                 0.7634
 IR Inten    --    552.0263                35.9015                 0.2007

                     46                     47                     48
                      A                      A                      A
 Frequencies --    993.8850              1007.5167              1043.3474
 Red. masses --      1.3701                 1.2985                 2.0039
 Frc consts  --      0.7974                 0.7766                 1.2852
 IR Inten    --      4.1657                 0.0267                36.0009

                     49                     50                     51
                      A                      A                      A
 Frequencies --   1060.5580              1088.5673              1113.0930
 Red. masses --      2.3377                 6.8794                 2.2117
 Frc consts  --      1.5492                 4.8030                 1.6145
 IR Inten    --     98.2930               808.8185                37.1051

                     52                     53                     54
                      A                      A                      A
 Frequencies --   1134.7360              1153.4858              1162.0278
 Red. masses --      1.9675                 1.4226                 1.2599
 Frc consts  --      1.4927                 1.1152                 1.0023
 IR Inten    --     69.1547                30.0756                 4.1481

                     55                     56                     57
                      A                      A                      A
 Frequencies --   1181.1474              1181.4368              1195.9634
 Red. masses --      1.5022                 2.2674                 2.3112
 Frc consts  --      1.2348                 1.8647                 1.9477
 IR Inten    --      2.5726                91.1308                 3.3478

                     58                     59                     60
                      A                      A                      A
 Frequencies --   1217.8477              1232.1536              1244.7693
 Red. masses --      1.7691                 2.4355                11.5349
 Frc consts  --      1.5460                 2.1786                10.5303
 IR Inten    --     35.3764                54.0012               516.9291

                     61                     62                     63
                      A                      A                      A
 Frequencies --   1257.0982              1333.1168              1357.5025
 Red. masses --      2.0298                 2.3185                10.3722
 Frc consts  --      1.8899                 2.4277                11.2617
 IR Inten    --    184.3299                40.5221                 6.5341

                     64                     65                     66
                      A                      A                      A
 Frequencies --   1367.1691              1400.7169              1456.5330
 Red. masses --     10.1394                 3.2916                 1.1316
 Frc consts  --     11.1662                 3.8050                 1.4144
 IR Inten    --    152.5080               885.9505                 5.2684

                     67                     68                     69
                      A                      A                      A
 Frequencies --   1459.1246              1475.4514              1479.7047
 Red. masses --      2.5844                 1.0496                 3.2056
 Frc consts  --      3.2419                 1.3462                 4.1353
 IR Inten    --    209.8531                20.6935               179.1875

                     70                     71                     72
                      A                      A                      A
 Frequencies --   1485.5514              1490.6414              1499.3522
 Red. masses --      3.1316                 1.0477                 4.2871
 Frc consts  --      4.0718                 1.3716                 5.6784
 IR Inten    --     88.9765                20.3556               945.1233

                     73                     74                     75
                      A                      A                      A
 Frequencies --   1523.2132              1557.1433              1597.5354
 Red. masses --      7.4670                 5.9223                 7.1660
 Frc consts  --     10.2074                 8.4606                10.7753
 IR Inten    --    210.7324                68.9668               140.6781

                     76                     77                     78
                      A                      A                      A
 Frequencies --   1615.3028              1633.2201              3051.7906
 Red. masses --      7.5361                 6.1337                 1.0289
 Frc consts  --     11.5852                 9.6397                 5.6458
 IR Inten    --     45.0529                12.1477                57.5276

                     79                     80                     81
                      A                      A                      A
 Frequencies --   3135.2263              3163.4873              3164.5873
 Red. masses --      1.1091                 1.0864                 1.1060
 Frc consts  --      6.4235                 6.4057                 6.5256
 IR Inten    --     19.2375                11.0066                 7.3918

                     82                     83                     84
                      A                      A                      A
 Frequencies --   3177.2220              3192.8394              3193.4868
 Red. masses --      1.0906                 1.0871                 1.0920
 Frc consts  --      6.4868                 6.5294                 6.5612
 IR Inten    --     21.6363                 7.6198                13.0746

                     85                     86                     87
                      A                      A                      A
 Frequencies --   3196.7100              3206.8262              3212.0371
 Red. masses --      1.0943                 1.0949                 1.0902
 Frc consts  --      6.5886                 6.6343                 6.6271
 IR Inten    --     41.6341                 5.4399                 7.1238

 - Thermochemistry -
 -------------------
 Temperature   298.150 Kelvin.  Pressure   1.00000 Atm.
 Atom     1 has atomic number  6 and mass  12.00000

 Molecular mass:   302.02490 amu.
 Principal axes and moments of inertia in atomic units:
                           1         2         3
     Eigenvalues --  2362.56471********************
           X            0.78172   0.62244  -0.03844
           Y            0.42871  -0.49162   0.75797
           Z           -0.45289   0.60900   0.65116
 This molecule is an asymmetric top.
 Rotational symmetry number  1.
 Warning -- assumption of classical behavior for rotation
           may cause significant error
 Rotational temperatures (Kelvin)      0.03666     0.00693     0.00612
 Rotational constants (GHZ):           0.76389     0.14435     0.12752
 Zero-point vibrational energy     574175.2 (Joules/Mol)
                                  137.23116 (Kcal/Mol)
 Warning -- explicit consideration of  27 degrees of freedom as
           vibrations may cause significant error
 Vibrational temperatures:     25.04    51.27    76.97    98.37   154.23
          (Kelvin)            165.98   197.42   207.69   233.53   295.15
                              312.05   330.61   367.67   415.74   483.07
                              529.33   547.66   584.23   603.54   627.07
                              650.76   667.15   681.74   696.68   719.46
                              771.06   861.77   914.96   923.86   942.95
                              970.27   998.36  1020.19  1032.53  1051.38
                             1136.34  1159.83  1192.53  1195.81  1285.17
                             1341.89  1367.57  1381.59  1391.78  1424.59
                             1429.98  1449.59  1501.14  1525.91  1566.21
                             1601.49  1632.63  1659.61  1671.90  1699.41
                             1699.82  1720.72  1752.21  1772.79  1790.95
                             1808.68  1918.06  1953.14  1967.05  2015.32
                             2095.63  2099.35  2122.85  2128.97  2137.38
                             2144.70  2157.23  2191.56  2240.38  2298.50
                             2324.06  2349.84  4390.85  4510.89  4551.55
                             4553.14  4571.31  4593.78  4594.72  4599.35
                             4613.91  4621.40

 Zero-point correction=                           0.218692 (Hartree/Particle)
 Thermal correction to Energy=                    0.236279
 Thermal correction to Enthalpy=                  0.237224
 Thermal correction to Gibbs Free Energy=         0.170845
 Sum of electronic and zero-point Energies=          -1352.090843
 Sum of electronic and thermal Energies=             -1352.073255
 Sum of electronic and thermal Enthalpies=           -1352.072311
 Sum of electronic and thermal Free Energies=        -1352.138689

                     E (Thermal)             CV                S
                      KCal/Mol        Cal/Mol-Kelvin    Cal/Mol-Kelvin
 Total                  148.268             67.456            139.705
 Electronic               0.000              0.000              1.377
 Translational            0.889              2.981             43.013
 Rotational               0.889              2.981             34.390
 Vibrational            146.490             61.494             60.925
 Vibration     1          0.593              1.986              6.910
 Vibration     2          0.594              1.982              5.488
 Vibration     3          0.596              1.976              4.684
 Vibration     4          0.598              1.969              4.200
 Vibration     5          0.606              1.943              3.319
 Vibration     6          0.608              1.937              3.177
 Vibration     7          0.614              1.916              2.842
 Vibration     8          0.616              1.909              2.745
 Vibration     9          0.622              1.889              2.523
 Vibration    10          0.640              1.833              2.087
 Vibration    11          0.646              1.815              1.985
 Vibration    12          0.652              1.796              1.881
 Vibration    13          0.666              1.753              1.692
 Vibration    14          0.686              1.694              1.480
 Vibration    15          0.717              1.604              1.232
 Vibration    16          0.741              1.538              1.089
 Vibration    17          0.750              1.511              1.037
 Vibration    18          0.771              1.457              0.941
 Vibration    19          0.782              1.428              0.894
 Vibration    20          0.796              1.392              0.840
 Vibration    21          0.811              1.356              0.789
 Vibration    22          0.821              1.331              0.755
 Vibration    23          0.831              1.308              0.727
 Vibration    24          0.840              1.285              0.699
 Vibration    25          0.855              1.250              0.658
 Vibration    26          0.891              1.171              0.574
 Vibration    27          0.957              1.034              0.451

 Optimization completed.
    -- Stationary point found.
 Normal termination of Gaussian 16 at Sun Feb 11 02:32:33 2024.
