 Q-Chem 5.4, Q-Chem, Inc., Pleasanton, CA (2021)
 Q-Chem 5.4.0 for Intel X86 EM64T Linux

User input:
--------------------------------------------------------------
$molecule
-1 2
O                  3.0563620000     -2.1970930000      0.2084400000
C                  2.7744690000     -0.8788740000      0.2556100000
C                  3.8057600000      0.0379730000      0.4171720000
C                  3.5204300000      1.4118880000      0.4670480000
C                  2.2202540000      1.8736030000      0.3573530000
C                  1.1549790000      0.9684340000      0.1929400000
C                 -0.2174820000      1.5044520000      0.0800130000
O                 -0.4141480000      2.7345830000      0.1308020000
C                 -1.2945500000      0.5179590000     -0.0900990000
C                 -2.6625460000      0.8954120000     -0.2113780000
O                 -3.0078760000      2.2208650000     -0.1703820000
C                 -3.6614590000     -0.0572750000     -0.3714460000
C                 -3.3480880000     -1.4270390000     -0.4184580000
C                 -2.0385390000     -1.8336220000     -0.3049460000
C                 -1.0019510000     -0.8865390000     -0.1411280000
C                  0.3560990000     -1.3866970000     -0.0276770000
O                  0.6014100000     -2.6460600000     -0.0749840000
C                  1.4216600000     -0.4259470000      0.1399620000
H                  2.1575450000     -2.6458420000      0.0877260000
H                  4.8211270000     -0.3333970000      0.5021320000
H                  4.3361810000      2.1180190000      0.5937000000
H                  1.9844000000      2.9294910000      0.3939310000
H                 -3.9651570000      2.2681280000     -0.2682960000
H                 -4.6950330000      0.2713770000     -0.4605040000
H                 -4.1437920000     -2.1548160000     -0.5442110000
H                 -1.7600530000     -2.8789820000     -0.3366400000
$end
$rem
MAX_SCF_CYCLES=200
BASIS  =  6-311++G(d,p)
GUI  =  2
JOB_TYPE  =  SP
METHOD  =  B3LYP
SOLVENT_METHOD = PCM
$end
$pcm
theory = CPCM
$end
$solvent
dielectric 37.219
opticaldielectric 1.43
$end

--------------------------------------------------------------

             Standard Nuclear Orientation (Angstroms)
    I     Atom           X                Y                Z
 ----------------------------------------------------------------
    1      O       3.0563620000    -2.1970930000     0.2084400000
    2      C       2.7744690000    -0.8788740000     0.2556100000
    3      C       3.8057600000     0.0379730000     0.4171720000
    4      C       3.5204300000     1.4118880000     0.4670480000
    5      C       2.2202540000     1.8736030000     0.3573530000
    6      C       1.1549790000     0.9684340000     0.1929400000
    7      C      -0.2174820000     1.5044520000     0.0800130000
    8      O      -0.4141480000     2.7345830000     0.1308020000
    9      C      -1.2945500000     0.5179590000    -0.0900990000
   10      C      -2.6625460000     0.8954120000    -0.2113780000
   11      O      -3.0078760000     2.2208650000    -0.1703820000
   12      C      -3.6614590000    -0.0572750000    -0.3714460000
   13      C      -3.3480880000    -1.4270390000    -0.4184580000
   14      C      -2.0385390000    -1.8336220000    -0.3049460000
   15      C      -1.0019510000    -0.8865390000    -0.1411280000
   16      C       0.3560990000    -1.3866970000    -0.0276770000
   17      O       0.6014100000    -2.6460600000    -0.0749840000
   18      C       1.4216600000    -0.4259470000     0.1399620000
   19      H       2.1575450000    -2.6458420000     0.0877260000
   20      H       4.8211270000    -0.3333970000     0.5021320000
   21      H       4.3361810000     2.1180190000     0.5937000000
   22      H       1.9844000000     2.9294910000     0.3939310000
   23      H      -3.9651570000     2.2681280000    -0.2682960000
   24      H      -4.6950330000     0.2713770000    -0.4605040000
   25      H      -4.1437920000    -2.1548160000    -0.5442110000
   26      H      -1.7600530000    -2.8789820000    -0.3366400000
 ----------------------------------------------------------------

    8    -839.6063811805      8.26e-06  Convergence criterion met
 Total energy in the final basis set =     -839.6063811805

                    Orbital Energies (a.u.)
 --------------------------------------------------------------

 Alpha MOs
 -- Occupied --
-19.1522 -19.1318 -19.0906 -19.0774 -10.2424 -10.2354 -10.2337 -10.2321
-10.1809 -10.1794 -10.1760 -10.1759 -10.1754 -10.1739 -10.1712 -10.1654
-10.1650 -10.1625  -1.0654  -1.0560  -1.0092  -1.0054  -0.8623  -0.8478
 -0.7884  -0.7496  -0.7453  -0.7389  -0.6718  -0.6446  -0.6329  -0.5925
 -0.5834  -0.5485  -0.5337  -0.5090  -0.4973  -0.4818  -0.4684  -0.4631
 -0.4436  -0.4382  -0.4235  -0.4222  -0.4192  -0.4156  -0.3918  -0.3847
 -0.3835  -0.3832  -0.3702  -0.3617  -0.3541  -0.3449  -0.3353  -0.3305
 -0.2733  -0.2587  -0.2526  -0.2382  -0.2373  -0.2288  -0.1444

 Beta MOs
 -- Occupied --
-19.1522 -19.1315 -19.0859 -19.0727 -10.2426 -10.2351 -10.2323 -10.2293
-10.1802 -10.1788 -10.1761 -10.1756 -10.1744 -10.1732 -10.1702 -10.1650
-10.1644 -10.1623  -1.0652  -1.0546  -1.0011  -0.9972  -0.8596  -0.8465
 -0.7845  -0.7468  -0.7432  -0.7371  -0.6648  -0.6426  -0.6308  -0.5916
 -0.5816  -0.5461  -0.5321  -0.5079  -0.4958  -0.4792  -0.4672  -0.4622
 -0.4425  -0.4296  -0.4217  -0.4194  -0.4161  -0.4123  -0.3903  -0.3822
 -0.3753  -0.3691  -0.3650  -0.3610  -0.3529  -0.3434  -0.3285  -0.3218
 -0.2555  -0.2548  -0.2476  -0.2331  -0.2294  -0.2223

          Ground-State Mulliken Net Atomic Charges

     Atom                 Charge (a.u.)    Spin (a.u.)
  --------------------------------------------------------
      1 O                    -0.405503       0.009833
      2 C                    -0.176388       0.040392
      3 C                    -0.201735       0.040397
      4 C                    -0.416535       0.053436
      5 C                    -0.155272       0.034763
      6 C                     0.498598       0.071659
      7 C                    -0.326645       0.067708
      8 O                    -0.458955       0.181982
      9 C                    -0.230533       0.027904
     10 C                    -0.115631       0.004370
     11 O                    -0.251001       0.001090
     12 C                    -0.219205       0.078551
     13 C                    -0.403755       0.026091
     14 C                    -0.042132       0.068068
     15 C                     0.531399       0.009890
     16 C                    -0.386992       0.162158
     17 O                    -0.506470       0.176317
     18 C                     0.453784      -0.029153
     19 H                     0.371549      -0.003620
     20 H                     0.199968      -0.003794
     21 H                     0.205047      -0.003935
     22 H                     0.158535      -0.002120
     23 H                     0.315688      -0.000419
     24 H                     0.183918      -0.006439
     25 H                     0.209509      -0.002344
     26 H                     0.168753      -0.002786
  --------------------------------------------------------
  Sum of atomic charges =    -1.000000

                    Cartesian Multipole Moments
 -----------------------------------------------------------------
    Charge (ESU x 10^10)
                -4.8032
    Dipole Moment (Debye)
         X      -5.2389      Y      -0.0435      Z      -0.6262
       Tot       5.2764
    Quadrupole Moments (Debye-Ang)
        XX     -97.8039     XY      11.3519     YY    -141.2184
        XZ       1.8988     YZ      -0.5921     ZZ    -110.3017

 Total job time:  69.44s(wall), 419.55s(cpu)
        *  Thank you very much for using Q-Chem.  Have a nice day.  *
