 Gaussian 16, Revision A.03,
 Gaussian 16:  ES64L-G16RevA.03 25-Dec-2016

 ----------------------------------------------------------------
 #P UB3LYP/6-311++G(d,p) SCRF=(PCM,Solvent=n,n-DiMethylFormamide)
 ----------------------------------------------------------------

 ------------------
 Radical PCM in DMF
 ------------------
 Symbolic Z-matrix:
 Charge = -1 Multiplicity = 2

                         Standard orientation:
 ---------------------------------------------------------------------
 Center     Atomic      Atomic             Coordinates (Angstroms)
 Number     Number       Type             X           Y           Z
 ---------------------------------------------------------------------
      1          8           0        3.191848   -1.940894   -0.000008
      2          6           0        2.798907   -0.650550    0.000099
      3          6           0        3.754706    0.357775    0.000216
      4          6           0        3.353631    1.703391    0.000153
      5          6           0        2.012833    2.046805   -0.000030
      6          6           0        1.022024    1.047069   -0.000112
      7          6           0       -0.397395    1.458123   -0.000265
      8          8           0       -0.697614    2.668226   -0.000355
      9          6           0       -1.393161    0.376165   -0.000085
     10          6           0       -2.794759    0.629375    0.000156
     11          8           0       -3.251829    1.921213    0.000321
     12          6           0       -3.715108   -0.411788    0.000220
     13          6           0       -3.286331   -1.750748   -0.000033
     14          6           0       -1.940812   -2.038310   -0.000218
     15          6           0       -0.982252   -0.999330   -0.000159
     16          6           0        0.419721   -1.375894   -0.000054
     17          8           0        0.771116   -2.610776    0.000115
     18          6           0        1.406147   -0.320656   -0.000006
     19          1           0        2.329391   -2.470031   -0.000376
     20          1           0        4.802695    0.078806    0.000280
     21          1           0        4.111267    2.481913    0.000212
     22          1           0        1.688001    3.079447   -0.000093
     23          1           0       -4.214462    1.881903    0.000051
     24          1           0       -4.777714   -0.177083    0.000448
     25          1           0       -4.022070   -2.549063   -0.000037
     26          1           0       -1.574190   -3.056605   -0.000353
 ---------------------------------------------------------------------

 SCF Done:  E(UB3LYP) =  -839.600033563     A.U. after   19 cycles

 The electronic state is 2-A.
 Alpha  occ. eigenvalues --  -19.15448 -19.13063 -19.08884 -19.07622 -10.24317
 Alpha  occ. eigenvalues --  -10.23489 -10.23202 -10.23061 -10.18085 -10.17923
 Alpha  occ. eigenvalues --  -10.17729 -10.17550 -10.17493 -10.17456 -10.17307
 Alpha  occ. eigenvalues --  -10.16591 -10.16542 -10.16236  -1.06752  -1.05478
 Alpha  occ. eigenvalues --   -1.00759  -1.00372  -0.86217  -0.84789  -0.78857
 Alpha  occ. eigenvalues --   -0.74985  -0.74549  -0.73876  -0.67158  -0.64525
 Alpha  occ. eigenvalues --   -0.63308  -0.59334  -0.58363  -0.54875  -0.53416
 Alpha  occ. eigenvalues --   -0.50846  -0.49792  -0.48150  -0.46932  -0.46381
 Alpha  occ. eigenvalues --   -0.44403  -0.43747  -0.42334  -0.42127  -0.41813
 Alpha  occ. eigenvalues --   -0.41549  -0.39172  -0.38376  -0.38331  -0.38243
 Alpha  occ. eigenvalues --   -0.37098  -0.36243  -0.35459  -0.34434  -0.33546
 Alpha  occ. eigenvalues --   -0.32973  -0.27286  -0.25701  -0.25270  -0.23830
 Alpha  occ. eigenvalues --   -0.23560  -0.22820  -0.14365
 Alpha virt. eigenvalues --   -0.04718  -0.02534  -0.00347   0.00406   0.00679
 Alpha virt. eigenvalues --    0.00961   0.01979   0.02204   0.03994   0.04314
 Alpha virt. eigenvalues --    0.04427   0.04641   0.04919   0.06224   0.06362

  Beta  occ. eigenvalues --  -19.15445 -19.13033 -19.08385 -19.07114 -10.24342
  Beta  occ. eigenvalues --  -10.23458 -10.23088 -10.22785 -10.18008 -10.17860
  Beta  occ. eigenvalues --  -10.17699 -10.17564 -10.17388 -10.17384 -10.17199
  Beta  occ. eigenvalues --  -10.16546 -10.16490 -10.16233  -1.06741  -1.05337
  Beta  occ. eigenvalues --   -0.99892  -0.99521  -0.85948  -0.84654  -0.78467
  Beta  occ. eigenvalues --   -0.74713  -0.74343  -0.73706  -0.66461  -0.64335
  Beta  occ. eigenvalues --   -0.63100  -0.59238  -0.58186  -0.54641  -0.53263
  Beta  occ. eigenvalues --   -0.50732  -0.49645  -0.47883  -0.46808  -0.46291
  Beta  occ. eigenvalues --   -0.44290  -0.42923  -0.42193  -0.41859  -0.41449
  Beta  occ. eigenvalues --   -0.41226  -0.38998  -0.38227  -0.37453  -0.36988
  Beta  occ. eigenvalues --   -0.36335  -0.36178  -0.35333  -0.34280  -0.32831
  Beta  occ. eigenvalues --   -0.32106  -0.25418  -0.25292  -0.24762  -0.23102
  Beta  occ. eigenvalues --   -0.22975  -0.22165
  Beta virt. eigenvalues --   -0.08740  -0.03582  -0.01494  -0.00335   0.00411
  Beta virt. eigenvalues --    0.00963   0.00970   0.01987   0.02215   0.04000
  Beta virt. eigenvalues --    0.04331   0.04493   0.04657   0.05655   0.06369

 Mulliken charges and spin densities:
               1          2
     1  O   -0.395031   0.009921
     2  C   -0.192627   0.042700
     3  C   -0.174889   0.036425
     4  C   -0.406212   0.057082
     5  C   -0.139981   0.028361
     6  C    0.509809   0.077431
     7  C   -0.363280   0.054432
     8  O   -0.436473   0.191031
     9  C   -0.213304   0.035196
    10  C   -0.097025  -0.000578
    11  O   -0.227583   0.000457
    12  C   -0.225765   0.081711
    13  C   -0.399312   0.024259
    14  C   -0.021757   0.068694
    15  C    0.550072   0.009832
    16  C   -0.414440   0.159042
    17  O   -0.489550   0.181899
    18  C    0.443402  -0.032568
    19  H    0.363932  -0.003816
    20  H    0.183724  -0.003396
    21  H    0.188337  -0.004272
    22  H    0.151637  -0.001650
    23  H    0.294964  -0.000428
    24  H    0.156257  -0.006810
    25  H    0.193217  -0.002117
    26  H    0.161879  -0.002835
 Sum of Mulliken charges =  -1.00000   1.00000

 Dipole moment (field-independent basis, Debye):
    X=             -4.7874    Y=             -0.3552    Z=             -0.0006  Tot=              4.8006
 Quadrupole moment (field-independent basis, Debye-Ang):
   XX=           -102.1766   YY=           -138.5146   ZZ=           -110.4456
   XY=             14.4443   XZ=             -0.0010   YZ=              0.0042

 Normal termination of Gaussian 16 at Tue Jan 16 05:33:06 2024.
