 Gaussian 16, Revision A.03,
 Gaussian 16:  ES64L-G16RevA.03 25-Dec-2016

 --------------------------------------
 #P UB3LYP/6-311++G(d,p) nosym opt freq
 --------------------------------------

 -------
 Reduced
 -------
 Symbolic Z-matrix:
 Charge = -2 Multiplicity = 1

 SCF Done:  E(UB3LYP) =  -916.894591328     A.U. after   21 cycles
 SCF Done:  E(UB3LYP) =  -916.894591334     A.U. after    9 cycles
 Optimization completed.
    -- Stationary point found.
 Normal termination of Gaussian 16 at Wed Dec 27 20:44:51 2023.

 ----------------------------------------------------------------------
 #P Geom=AllCheck Guess=TCheck SCRF=Check GenChk UB3LYP/6-311++G(d,p) F
 req
 ----------------------------------------------------------------------

 Structure from the checkpoint file:  "143-an.chk"
 -------
 Reduced
 -------
 Charge = -2 Multiplicity = 1

                          Input orientation:
 ---------------------------------------------------------------------
 Center     Atomic      Atomic             Coordinates (Angstroms)
 Number     Number       Type             X           Y           Z
 ---------------------------------------------------------------------
      1          6           0        3.468823    2.176431    0.185323
      2          6           0        2.233856    1.501981    0.741350
      3          8           0        2.088039    1.201750    1.904483
      4          8           0        2.968100   -0.727907   -0.430845
      5          6           0        1.941733   -1.493999   -0.418961
      6          6           0        2.058274   -2.899755   -0.575473
      7          6           0        0.954508   -3.768089   -0.554197
      8          6           0       -0.329067   -3.289327   -0.380399
      9          6           0       -0.551346   -1.895775   -0.225274
     10          6           0       -1.936425   -1.444270   -0.070911
     11          8           0       -2.912533   -2.254547   -0.055066
     12          6           0       -2.136414   -0.009571    0.052639
     13          6           0       -3.441279    0.509074    0.183931
     14          6           0       -3.693448    1.863971    0.292326
     15          6           0       -2.596080    2.770098    0.270742
     16          6           0       -1.307559    2.307758    0.148513
     17          6           0       -1.016152    0.907660    0.037015
     18          6           0        0.276054    0.405202   -0.096853
     19          8           0        1.311954    1.369914   -0.230732
     20          6           0        0.556847   -0.975095   -0.240511
     21          1           0        4.087630    2.554954    1.000710
     22          1           0        3.195729    2.984969   -0.498836
     23          1           0        4.000181    1.404231   -0.375811
     24          1           0        3.067361   -3.285376   -0.705732
     25          1           0        1.119774   -4.840034   -0.675862
     26          1           0       -1.195376   -3.938906   -0.362104
     27          1           0       -4.247451   -0.218265    0.194081
     28          1           0       -4.710513    2.235478    0.393140
     29          1           0       -2.776491    3.840553    0.356185
     30          1           0       -0.478732    3.006888    0.137127
 ---------------------------------------------------------------------

 SCF Done:  E(UB3LYP) =  -916.894591334     A.U. after    1 cycles

 Alpha  occ. eigenvalues --  -18.92032 -18.87303 -18.80071 -18.78823 -10.07004
 Alpha  occ. eigenvalues --   -9.96198  -9.95893  -9.95824  -9.95521  -9.94633
 Alpha  occ. eigenvalues --   -9.93850  -9.93671  -9.93442  -9.93113  -9.91834
 Alpha  occ. eigenvalues --   -9.91567  -9.91337  -9.90644  -9.89174  -9.88964
 Alpha  occ. eigenvalues --   -0.86301  -0.78378  -0.72308  -0.70741  -0.61708
 Alpha  occ. eigenvalues --   -0.57795  -0.54752  -0.52548  -0.51201  -0.48296
 Alpha  occ. eigenvalues --   -0.46224  -0.43158  -0.38638  -0.37090  -0.36295
 Alpha  occ. eigenvalues --   -0.32548  -0.29177  -0.28197  -0.26605  -0.25733
 Alpha  occ. eigenvalues --   -0.24297  -0.24026  -0.21500  -0.21211  -0.20917
 Alpha  occ. eigenvalues --   -0.19806  -0.19216  -0.18924  -0.16138  -0.15727
 Alpha  occ. eigenvalues --   -0.14854  -0.14282  -0.14185  -0.13461  -0.12939
 Alpha  occ. eigenvalues --   -0.11880  -0.10268  -0.09712  -0.09077  -0.08339
 Alpha  occ. eigenvalues --   -0.06987  -0.05026  -0.04263  -0.04116  -0.01341
 Alpha  occ. eigenvalues --    0.01026   0.02304   0.04210   0.05886   0.10564
 Alpha virt. eigenvalues --    0.15424   0.16028   0.17331   0.17515   0.19180
 Alpha virt. eigenvalues --    0.19450   0.19634   0.20189   0.20596   0.22151
 Alpha virt. eigenvalues --    0.22388   0.22629   0.24304   0.24526   0.24855

  Beta  occ. eigenvalues --  -18.92032 -18.87303 -18.80071 -18.78823 -10.07004
  Beta  occ. eigenvalues --   -9.96198  -9.95893  -9.95824  -9.95521  -9.94633
  Beta  occ. eigenvalues --   -9.93850  -9.93671  -9.93442  -9.93113  -9.91834
  Beta  occ. eigenvalues --   -9.91567  -9.91337  -9.90644  -9.89174  -9.88964
  Beta  occ. eigenvalues --   -0.86301  -0.78378  -0.72308  -0.70741  -0.61708
  Beta  occ. eigenvalues --   -0.57795  -0.54752  -0.52548  -0.51201  -0.48296
  Beta  occ. eigenvalues --   -0.46224  -0.43158  -0.38638  -0.37090  -0.36295
  Beta  occ. eigenvalues --   -0.32548  -0.29177  -0.28197  -0.26605  -0.25733
  Beta  occ. eigenvalues --   -0.24297  -0.24026  -0.21500  -0.21211  -0.20917
  Beta  occ. eigenvalues --   -0.19806  -0.19216  -0.18924  -0.16138  -0.15727
  Beta  occ. eigenvalues --   -0.14854  -0.14282  -0.14185  -0.13461  -0.12939
  Beta  occ. eigenvalues --   -0.11880  -0.10268  -0.09712  -0.09077  -0.08339
  Beta  occ. eigenvalues --   -0.06987  -0.05026  -0.04263  -0.04116  -0.01341
  Beta  occ. eigenvalues --    0.01026   0.02304   0.04210   0.05886   0.10564
  Beta virt. eigenvalues --    0.15424   0.16028   0.17331   0.17515   0.19180
  Beta virt. eigenvalues --    0.19450   0.19634   0.20189   0.20596   0.22151
  Beta virt. eigenvalues --    0.22388   0.22629   0.24304   0.24526   0.24855

 Mulliken charges and spin densities:
               1          2
     1  C   -0.471411  -0.000000
     2  C   -0.035543  -0.000000
     3  O   -0.244836  -0.000000
     4  O   -0.485017  -0.000000
     5  C   -0.420002   0.000000
     6  C   -0.147953   0.000000
     7  C   -0.291172  -0.000000
     8  C   -0.270834   0.000000
     9  C    0.491412  -0.000000
    10  C   -0.606470  -0.000000
    11  O   -0.459605   0.000000
    12  C    0.523068   0.000000
    13  C    0.004962  -0.000000
    14  C   -0.455710  -0.000000
    15  C   -0.486331   0.000000
    16  C   -0.044005  -0.000000
    17  C    0.416920  -0.000000
    18  C   -0.380509  -0.000000
    19  O   -0.036695   0.000000
    20  C    0.348026   0.000000
    21  H    0.100467   0.000000
    22  H    0.106557  -0.000000
    23  H    0.206096   0.000000
    24  H    0.067259  -0.000000
    25  H    0.071232  -0.000000
    26  H    0.113702   0.000000
    27  H    0.133236  -0.000000
    28  H    0.074563  -0.000000
    29  H    0.086508  -0.000000
    30  H    0.092084   0.000000
 Sum of Mulliken charges =  -2.00000   0.00000

 Dipole moment (field-independent basis, Debye):
    X=              1.0548    Y=              7.7439    Z=             -0.8566  Tot=              7.8622
 Quadrupole moment (field-independent basis, Debye-Ang):
   XX=           -191.1766   YY=           -167.9970   ZZ=           -138.1072
   XY=              0.4584   XZ=             -1.1447   YZ=             -7.4746

  Exact polarizability: 338.071 -43.203 334.677 -13.700  22.848 144.891
 Approx polarizability: 558.452 -52.827 556.457 -28.762  31.350 230.883

                      1                      2                      3
                      A                      A                      A
 Frequencies --     46.0443                58.6419                75.2261
 Red. masses --      8.1576                 6.5141                 5.8265
 Frc consts  --      0.0102                 0.0132                 0.0194
 IR Inten    --      0.4604                 1.5691                 4.1240

                      4                      5                      6
                      A                      A                      A
 Frequencies --    102.9661               122.4424               130.6499
 Red. masses --      5.8326                 3.0985                 1.1206
 Frc consts  --      0.0364                 0.0274                 0.0113
 IR Inten    --      4.1211                 5.9609                 0.1708

                      7                      8                      9
                      A                      A                      A
 Frequencies --    141.7113               178.1629               205.9352
 Red. masses --      5.1830                 6.2283                 5.6465
 Frc consts  --      0.0613                 0.1165                 0.1411
 IR Inten    --      1.2862                 1.3172                 1.2623

                     10                     11                     12
                      A                      A                      A
 Frequencies --    219.6363               277.6331               288.5247
 Red. masses --      5.5265                 5.4994                 5.3815
 Frc consts  --      0.1571                 0.2497                 0.2639
 IR Inten    --      2.5456                 0.4141                 8.1426

                     13                     14                     15
                      A                      A                      A
 Frequencies --    330.0659               351.0293               378.3683
 Red. masses --      6.2739                 6.7959                 8.3971
 Frc consts  --      0.4027                 0.4934                 0.7083
 IR Inten    --      3.9514                 0.3720                 0.9908

                     16                     17                     18
                      A                      A                      A
 Frequencies --    389.1834               389.9871               441.7174
 Red. masses --      7.3163                 7.8456                 3.2953
 Frc consts  --      0.6529                 0.7030                 0.3788
 IR Inten    --      0.5024                 1.4968                 1.6470

                     19                     20                     21
                      A                      A                      A
 Frequencies --    486.2659               506.2204               512.7596
 Red. masses --      7.6686                 4.2483                 5.5296
 Frc consts  --      1.0683                 0.6414                 0.8566
 IR Inten    --      8.5505                 4.3623                18.0899

                     22                     23                     24
                      A                      A                      A
 Frequencies --    548.4051               567.0699               570.9647
 Red. masses --      3.2170                 6.7684                 4.0453
 Frc consts  --      0.5700                 1.2824                 0.7770
 IR Inten    --      8.9731                 9.4280                14.5414

                     25                     26                     27
                      A                      A                      A
 Frequencies --    588.9108               593.8356               649.6607
 Red. masses --      5.4600                 4.8452                 6.1076
 Frc consts  --      1.1157                 1.0067                 1.5188
 IR Inten    --      1.7749                 4.4687                 0.9987

                     28                     29                     30
                      A                      A                      A
 Frequencies --    677.6317               689.7421               697.5002
 Red. masses --      6.9399                 5.6632                 1.5305
 Frc consts  --      1.8775                 1.5874                 0.4387
 IR Inten    --     11.5713                 6.4428                75.4843

                     31                     32                     33
                      A                      A                      A
 Frequencies --    707.1939               726.3797               756.0506
 Red. masses --      1.8995                 1.9754                 2.0619
 Frc consts  --      0.5597                 0.6141                 0.6944
 IR Inten    --      6.2759                46.5865                 0.0281

                     34                     35                     36
                      A                      A                      A
 Frequencies --    787.2556               795.0773               812.2971
 Red. masses --      3.3568                 2.3189                 2.2104
 Frc consts  --      1.2258                 0.8637                 0.8593
 IR Inten    --      4.6763                11.7226                 5.8834

                     37                     38                     39
                      A                      A                      A
 Frequencies --    825.3477               855.9347               896.8676
 Red. masses --      5.9946                 7.1554                 1.2174
 Frc consts  --      2.4059                 3.0886                 0.5770
 IR Inten    --      0.0128                36.6773                 1.5286

                     40                     41                     42
                      A                      A                      A
 Frequencies --    908.2597               925.6501               929.2989
 Red. masses --      6.6826                 6.3419                 1.2587
 Frc consts  --      3.2480                 3.2016                 0.6405
 IR Inten    --     27.3835                16.5403                 0.7531

                     43                     44                     45
                      A                      A                      A
 Frequencies --    958.8733               997.2448              1016.9692
 Red. masses --      1.3199                 2.4957                 2.4378
 Frc consts  --      0.7150                 1.4624                 1.4855
 IR Inten    --      1.7212                14.6952                44.5766

                     46                     47                     48
                      A                      A                      A
 Frequencies --   1038.0022              1041.4995              1061.3051
 Red. masses --      2.7127                 1.8273                 2.9328
 Frc consts  --      1.7221                 1.1678                 1.9463
 IR Inten    --     74.5770                 7.4199               134.7186

                     49                     50                     51
                      A                      A                      A
 Frequencies --   1074.5154              1113.9799              1144.4913
 Red. masses --      1.9845                 1.8408                 1.2412
 Frc consts  --      1.3499                 1.3459                 0.9579
 IR Inten    --     39.8373                23.7863                31.2925

                     52                     53                     54
                      A                      A                      A
 Frequencies --   1157.6974              1189.3396              1209.8259
 Red. masses --      1.2541                 1.9719                 2.7286
 Frc consts  --      0.9903                 1.6434                 2.3531
 IR Inten    --     10.4758                 0.5968                66.4425

                     55                     56                     57
                      A                      A                      A
 Frequencies --   1242.5414              1264.5027              1288.5674
 Red. masses --      3.7555                 2.2827                 3.9875
 Frc consts  --      3.4162                 2.1505                 3.9009
 IR Inten    --    315.2463                41.5999               115.3775

                     58                     59                     60
                      A                      A                      A
 Frequencies --   1320.7603              1354.1190              1359.7924
 Red. masses --      5.9810                 1.6178                 1.9958
 Frc consts  --      6.1471                 1.7478                 2.1743
 IR Inten    --     39.6962               268.6088                 5.4902

                     61                     62                     63
                      A                      A                      A
 Frequencies --   1365.0411              1399.6262              1425.4518
 Red. masses --      5.0292                 3.6943                 2.9926
 Frc consts  --      5.5213                 4.2639                 3.5827
 IR Inten    --    153.1573               122.8683                80.7434

                     64                     65                     66
                      A                      A                      A
 Frequencies --   1458.0734              1465.4441              1475.9206
 Red. masses --      2.1942                 1.4788                 2.8005
 Frc consts  --      2.7484                 1.8711                 3.5942
 IR Inten    --     36.6520                11.2028               245.3526

                     67                     68                     69
                      A                      A                      A
 Frequencies --   1483.6575              1509.7248              1531.0348
 Red. masses --      1.0670                 6.8437                 5.3687
 Frc consts  --      1.3838                 9.1904                 7.4147
 IR Inten    --     12.2570               613.1941               187.2508

                     70                     71                     72
                      A                      A                      A
 Frequencies --   1535.3730              1568.1754              1575.2965
 Red. masses --      6.5187                 6.1246                 5.7922
 Frc consts  --      9.0540                 8.8740                 8.4687
 IR Inten    --    291.5324                83.6219                22.1148

                     73                     74                     75
                      A                      A                      A
 Frequencies --   1617.6863              1765.5533              3024.6628
 Red. masses --      6.4652                11.2845                 1.0335
 Frc consts  --      9.9683                20.7250                 5.5709
 IR Inten    --     69.0278               302.3267                74.9556

                     76                     77                     78
                      A                      A                      A
 Frequencies --   3067.9984              3097.0036              3097.4174
 Red. masses --      1.0847                 1.1002                 1.0834
 Frc consts  --      6.0157                 6.2174                 6.1241
 IR Inten    --    105.9240                30.2834                39.6639

                     79                     80                     81
                      A                      A                      A
 Frequencies --   3118.1128              3120.9042              3123.6125
 Red. masses --      1.1033                 1.0899                 1.0895
 Frc consts  --      6.3200                 6.2547                 6.2634
 IR Inten    --     13.4417               137.6260                79.7000

                     82                     83                     84
                      A                      A                      A
 Frequencies --   3158.6310              3167.6447              3182.0664
 Red. masses --      1.0911                 1.0909                 1.0901
 Frc consts  --      6.4135                 6.4490                 6.5035
 IR Inten    --     43.5661                44.1275                24.7205

 - Thermochemistry -
 -------------------
 Temperature   298.150 Kelvin.  Pressure   1.00000 Atm.
 Atom     1 has atomic number  6 and mass  12.00000

 Molecular mass:   266.05791 amu.
 Principal axes and moments of inertia in atomic units:
                           1         2         3
     Eigenvalues --  3948.739214978.781898509.74829
           X            0.96867   0.24807  -0.01167
           Y           -0.24645   0.95443  -0.16830
           Z           -0.03061   0.16590   0.98567
 This molecule is an asymmetric top.
 Rotational symmetry number  1.
 Warning -- assumption of classical behavior for rotation
           may cause significant error
 Rotational temperatures (Kelvin)      0.02193     0.01740     0.01018
 Rotational constants (GHZ):           0.45704     0.36249     0.21208
 Zero-point vibrational energy     564102.9 (Joules/Mol)
                                  134.82383 (Kcal/Mol)
 Warning -- explicit consideration of  26 degrees of freedom as
           vibrations may cause significant error
 Vibrational temperatures:     66.25    84.37   108.23   148.15   176.17
          (Kelvin)            187.98   203.89   256.34   296.29   316.01
                              399.45   415.12   474.89   505.05   544.39
                              559.95   561.10   635.53   699.63   728.34
                              737.75   789.03   815.89   821.49   847.31
                              854.40   934.72   974.96   992.38  1003.55
                             1017.49  1045.10  1087.79  1132.69  1143.94
                             1168.71  1187.49  1231.50  1290.39  1306.78
                             1331.80  1337.05  1379.60  1434.81  1463.19
                             1493.45  1498.49  1526.98  1545.99  1602.77
                             1646.67  1665.67  1711.19  1740.67  1787.74
                             1819.34  1853.96  1900.28  1948.28  1956.44
                             1963.99  2013.75  2050.91  2097.84  2108.45
                             2123.52  2134.65  2172.16  2202.82  2209.06
                             2256.25  2266.50  2327.49  2540.24  4351.82
                             4414.17  4455.90  4456.49  4486.27  4490.29
                             4494.18  4544.57  4557.53  4578.28

 Zero-point correction=                           0.214855 (Hartree/Particle)
 Thermal correction to Energy=                    0.230817
 Thermal correction to Enthalpy=                  0.231761
 Thermal correction to Gibbs Free Energy=         0.171524
 Sum of electronic and zero-point Energies=           -916.679736
 Sum of electronic and thermal Energies=              -916.663774
 Sum of electronic and thermal Enthalpies=            -916.662830
 Sum of electronic and thermal Free Energies=         -916.723067

                     E (Thermal)             CV                S
                      KCal/Mol        Cal/Mol-Kelvin    Cal/Mol-Kelvin
 Total                  144.840             63.167            126.779
 Electronic               0.000              0.000              0.000
 Translational            0.889              2.981             42.635
 Rotational               0.889              2.981             33.481
 Vibrational            143.062             57.206             50.663
 Vibration     1          0.595              1.979              4.980
 Vibration     2          0.596              1.974              4.502
 Vibration     3          0.599              1.966              4.012
 Vibration     4          0.605              1.947              3.397
 Vibration     5          0.610              1.930              3.061
 Vibration     6          0.612              1.923              2.936
 Vibration     7          0.615              1.912              2.781
 Vibration     8          0.629              1.869              2.348
 Vibration     9          0.640              1.831              2.079
 Vibration    10          0.647              1.811              1.962
 Vibration    11          0.679              1.715              1.548
 Vibration    12          0.685              1.695              1.483
 Vibration    13          0.713              1.615              1.260
 Vibration    14          0.728              1.573              1.162
 Vibration    15          0.749              1.516              1.046
 Vibration    16          0.757              1.493              1.003
 Vibration    17          0.758              1.492              1.000
 Vibration    18          0.801              1.379              0.821
 Vibration    19          0.842              1.281              0.693
 Vibration    20          0.861              1.236              0.643
 Vibration    21          0.868              1.222              0.627
 Vibration    22          0.904              1.143              0.547
 Vibration    23          0.923              1.102              0.510
 Vibration    24          0.927              1.094              0.502
 Vibration    25          0.946              1.055              0.469
 Vibration    26          0.951              1.045              0.460

 Optimization completed.
    -- Stationary point found.
 Normal termination of Gaussian 16 at Wed Dec 27 21:53:49 2023.
