 Gaussian 16, Revision A.03,
 Gaussian 16:  ES64L-G16RevA.03 25-Dec-2016

 ----------------------------------------------------------------
 #P UB3LYP/6-311++G(d,p) SCRF=(PCM,Solvent=n,n-DiMethylFormamide)
 ----------------------------------------------------------------

 -------
 Reduced
 -------
 Symbolic Z-matrix:
 Charge = -2 Multiplicity = 1

                         Standard orientation:
 ---------------------------------------------------------------------
 Center     Atomic      Atomic             Coordinates (Angstroms)
 Number     Number       Type             X           Y           Z
 ---------------------------------------------------------------------
      1          6           0       -2.756494   -3.152138   -0.255900
      2          6           0       -1.722232   -2.272307    0.411479
      3          8           0       -1.618538   -2.132661    1.608987
      4          8           0       -3.056576   -0.159148   -0.388294
      5          6           0       -2.267017    0.839040   -0.244477
      6          6           0       -2.753305    2.170359   -0.171388
      7          6           0       -1.915549    3.284778   -0.001118
      8          6           0       -0.546001    3.141038    0.102127
      9          6           0        0.039015    1.849498    0.030439
     10          6           0        1.498616    1.761599    0.119690
     11          8           0        2.228272    2.787908    0.274221
     12          6           0        2.071782    0.430033    0.009996
     13          6           0        3.470786    0.260722    0.064980
     14          6           0        4.072825   -0.978733   -0.046314
     15          6           0        3.251130   -2.127365   -0.222981
     16          6           0        1.882964   -2.008734   -0.278048
     17          6           0        1.231131   -0.736159   -0.162764
     18          6           0       -0.151517   -0.578492   -0.222825
     19          8           0       -0.902612   -1.748795   -0.519352
     20          6           0       -0.789080    0.683154   -0.142410
     21          1           0       -3.224861   -3.805133    0.482536
     22          1           0       -2.305840   -3.740589   -1.060277
     23          1           0       -3.491368   -2.468981   -0.688059
     24          1           0       -3.832172    2.291141   -0.244765
     25          1           0       -2.360126    4.280136    0.051760
     26          1           0        0.119952    3.985064    0.232151
     27          1           0        4.058079    1.164117    0.199154
     28          1           0        5.154633   -1.079308    0.000362
     29          1           0        3.708623   -3.111556   -0.311243
     30          1           0        1.266388   -2.891086   -0.409027
 ---------------------------------------------------------------------

 SCF Done:  E(UB3LYP) =  -917.148119042     A.U. after   16 cycles

 The electronic state is 1-A.
 Alpha  occ. eigenvalues --  -19.14814 -19.10051 -19.03948 -19.02851 -10.29319
 Alpha  occ. eigenvalues --  -10.19732 -10.19261 -10.19087 -10.16046 -10.16021
 Alpha  occ. eigenvalues --  -10.15899 -10.15670 -10.15497 -10.15409 -10.15319
 Alpha  occ. eigenvalues --  -10.14555 -10.14257 -10.14204 -10.12575 -10.12237
 Alpha  occ. eigenvalues --   -1.09106  -1.01219  -0.96313  -0.94908  -0.84253
 Alpha  occ. eigenvalues --   -0.81003  -0.77353  -0.74319  -0.72949  -0.71179
 Alpha  occ. eigenvalues --   -0.69372  -0.65998  -0.61222  -0.59430  -0.59243
 Alpha  occ. eigenvalues --   -0.55158  -0.51546  -0.50819  -0.49511  -0.48049
 Alpha  occ. eigenvalues --   -0.46727  -0.45982  -0.43869  -0.43730  -0.43162
 Alpha  occ. eigenvalues --   -0.42141  -0.40869  -0.40131  -0.38891  -0.38674
 Alpha  occ. eigenvalues --   -0.37900  -0.37625  -0.36561  -0.36357  -0.35412
 Alpha  occ. eigenvalues --   -0.35178  -0.33224  -0.32837  -0.32139  -0.31414
 Alpha  occ. eigenvalues --   -0.30086  -0.28452  -0.27554  -0.26966  -0.23926
 Alpha  occ. eigenvalues --   -0.22180  -0.21750  -0.19824  -0.17954  -0.12979
 Alpha virt. eigenvalues --   -0.03006  -0.00036   0.00007   0.00771   0.00944
 Alpha virt. eigenvalues --    0.01634   0.02273   0.02658   0.03053   0.03512
 Alpha virt. eigenvalues --    0.03990   0.04646   0.04854   0.05212   0.06147

  Beta  occ. eigenvalues --  -19.14814 -19.10051 -19.03948 -19.02851 -10.29319
  Beta  occ. eigenvalues --  -10.19732 -10.19261 -10.19087 -10.16046 -10.16021
  Beta  occ. eigenvalues --  -10.15899 -10.15670 -10.15497 -10.15409 -10.15319
  Beta  occ. eigenvalues --  -10.14555 -10.14257 -10.14204 -10.12575 -10.12237
  Beta  occ. eigenvalues --   -1.09106  -1.01219  -0.96313  -0.94908  -0.84253
  Beta  occ. eigenvalues --   -0.81003  -0.77353  -0.74319  -0.72949  -0.71179
  Beta  occ. eigenvalues --   -0.69372  -0.65998  -0.61222  -0.59430  -0.59243
  Beta  occ. eigenvalues --   -0.55158  -0.51546  -0.50819  -0.49511  -0.48049
  Beta  occ. eigenvalues --   -0.46727  -0.45982  -0.43869  -0.43730  -0.43162
  Beta  occ. eigenvalues --   -0.42141  -0.40869  -0.40131  -0.38891  -0.38674
  Beta  occ. eigenvalues --   -0.37900  -0.37625  -0.36561  -0.36357  -0.35412
  Beta  occ. eigenvalues --   -0.35178  -0.33224  -0.32837  -0.32139  -0.31414
  Beta  occ. eigenvalues --   -0.30086  -0.28452  -0.27554  -0.26966  -0.23926
  Beta  occ. eigenvalues --   -0.22180  -0.21750  -0.19824  -0.17954  -0.12979
  Beta virt. eigenvalues --   -0.03006  -0.00036   0.00007   0.00771   0.00944
  Beta virt. eigenvalues --    0.01634   0.02273   0.02658   0.03053   0.03512
  Beta virt. eigenvalues --    0.03990   0.04646   0.04854   0.05212   0.06147

 Mulliken charges and spin densities:
               1          2
     1  C   -0.470113   0.000000
     2  C    0.090549  -0.000000
     3  O   -0.330200   0.000000
     4  O   -0.598836   0.000000
     5  C   -0.163617  -0.000000
     6  C   -0.292448   0.000000
     7  C   -0.404196  -0.000000
     8  C   -0.272660   0.000000
     9  C    0.389296   0.000000
    10  C   -0.429263   0.000000
    11  O   -0.572388   0.000000
    12  C    0.412816  -0.000000
    13  C    0.001830  -0.000000
    14  C   -0.470417  -0.000000
    15  C   -0.503809   0.000000
    16  C   -0.068227  -0.000000
    17  C    0.346796  -0.000000
    18  C   -0.456463  -0.000000
    19  O   -0.053065  -0.000000
    20  C    0.285222   0.000000
    21  H    0.150642  -0.000000
    22  H    0.155629  -0.000000
    23  H    0.200694  -0.000000
    24  H    0.132050   0.000000
    25  H    0.152186  -0.000000
    26  H    0.132089   0.000000
    27  H    0.156293  -0.000000
    28  H    0.160452  -0.000000
    29  H    0.170964   0.000000
    30  H    0.148195  -0.000000
 Sum of Mulliken charges =  -2.00000  -0.00000

 Dipole moment (field-independent basis, Debye):
    X=              2.5986    Y=             -8.9371    Z=             -2.2369  Tot=              9.5722
 Quadrupole moment (field-independent basis, Debye-Ang):
   XX=           -174.9049   YY=           -156.6207   ZZ=           -135.9886
   XY=            -12.6476   XZ=             -0.0867   YZ=              4.1931

 Normal termination of Gaussian 16 at Sun Jan 14 01:27:21 2024.
