 Q-Chem 5.4, Q-Chem, Inc., Pleasanton, CA (2021)
 Q-Chem 5.4.0 for Intel X86 EM64T Linux

User input:
--------------------------------------------------------------
$molecule
-2 1
C                 -1.0931450000     -1.9159570000      3.4881830000
C                  0.0282040000     -2.5045100000      2.8076590000
C                  0.0496330000     -2.5718360000      1.4082770000
C                 -1.0088340000     -2.1053300000      0.5569530000
C                 -2.1226470000     -1.5351560000      1.2596170000
C                 -2.1578290000     -1.4267760000      2.6458080000
O                 -1.1988960000     -1.8089510000      4.7909750000
O                 -0.9679670000     -2.2151300000     -0.7294770000
N                 -3.2760620000     -0.8865530000      3.3671340000
C                 -3.5612530000      0.5755350000      3.3032150000
C                 -4.4957320000      0.8821790000      4.4872420000
C                 -4.2884570000      0.9336140000      1.9960240000
C                 -2.2824110000      1.4333650000      3.4317700000
H                 -2.9771860000     -1.2305970000      0.6624300000
H                 -3.0211000000     -1.0944680000      4.3381360000
H                 -4.0013760000      0.6557830000      5.4381400000
H                 -5.4038880000      0.2737150000      4.4210050000
H                 -4.7874280000      1.9390070000      4.5024960000
H                 -5.1782950000      0.3070230000      1.8767820000
H                 -3.6398980000      0.7718570000      1.1333830000
H                 -4.5971340000      1.9870240000      2.0028250000
H                 -1.7532340000      1.1816490000      4.3553580000
H                 -2.5232040000      2.5052090000      3.4384420000
H                 -1.6073240000      1.2300610000      2.5965070000
C                  1.2034400000     -3.0365010000      3.6556470000
C                  0.6926770000     -4.1425300000      4.6121570000
C                  2.3419040000     -3.6385670000      2.8090650000
C                  1.8010470000     -1.8809620000      4.4952550000
H                  0.8923480000     -3.0147380000      0.8861960000
H                 -0.1212060000     -3.7418680000      5.2195820000
H                  1.5030380000     -4.5002630000      5.2673390000
H                  0.3178410000     -4.9956820000      4.0349460000
H                  1.9950110000     -4.4857600000      2.2092920000
H                  3.1416930000     -3.9950640000      3.4726750000
H                  2.7716440000     -2.8998510000      2.1256420000
H                  1.0109130000     -1.4298550000      5.0988930000
H                  2.2234920000     -1.1150820000      3.8346320000
H                  2.6044490000     -2.2476570000      5.1535450000
$end
$rem
MAX_SCF_CYCLES=200
BASIS  =  6-311++G(d,p)
GUI  =  2
JOB_TYPE  =  SP
METHOD  =  B3LYP
SOLVENT_METHOD = COSMO
$end
$solvent
dielectric 37.219
opticaldielectric 1.43
$end

--------------------------------------------------------------

             Standard Nuclear Orientation (Angstroms)
    I     Atom           X                Y                Z
 ----------------------------------------------------------------
    1      C      -0.3621309942    -0.5134321712     0.3713257118
    2      C      -1.5975482283     0.1543494619     0.0635220787
    3      C      -1.6285077816     1.5464212867    -0.0928093478
    4      C      -0.4876253967     2.4056851385     0.0581403388
    5      C       0.7302402911     1.7177237718     0.3789624243
    6      C       0.7972588735     0.3346144255     0.5094481781
    7      O      -0.2382075898    -1.8088813907     0.5336675206
    8      O      -0.5619414986     3.6898165888    -0.0606528929
    9      N       2.0001415639    -0.3678226647     0.8590944248
   10      C       3.1137895619    -0.4647074992    -0.1275779273
   11      C       4.0201433059    -1.6092542606     0.3600049707
   12      C       3.9342395019     0.8360298421    -0.1547588604
   13      C       2.6136040253    -0.7870167179    -1.5536798712
   14      H       1.6059358230     2.3311063069     0.5701288466
   15      H       1.6527543737    -1.3212481961     1.0053170251
   16      H       3.4715162269    -2.5572347966     0.3738339739
   17      H       4.3752966855    -1.4052602728     1.3756897789
   18      H       4.8919878584    -1.7341412952    -0.2930608510
   19      H       4.2648597437     1.0934469983     0.8567119823
   20      H       3.3369137427     1.6645683051    -0.5390368212
   21      H       4.8176840987     0.7211185281    -0.7961022991
   22      H       2.0224661209    -1.7072775876    -1.5447386452
   23      H       3.4542160996    -0.9088157932    -2.2503947846
   24      H       1.9694860704     0.0176830659    -1.9174236975
   25      C      -2.8709165321    -0.7017075986    -0.1067048290
   26      C      -3.1528795711    -1.4766402064     1.2044269985
   27      C      -4.1249449914     0.1309264222    -0.4374888082
   28      C      -2.6625297236    -1.7169572510    -1.2570044343
   29      H      -2.5571020191     2.0588918422    -0.3251582127
   30      H      -2.2744428505    -2.0704068449     1.4646015812
   31      H      -4.0267523707    -2.1377955589     1.0897917826
   32      H      -3.3603629051    -0.7739602254     2.0197394607
   33      H      -4.3506139337     0.8532538696     0.3531533177
   34      H      -4.9898211916    -0.5379852796    -0.5455493524
   35      H      -4.0062470162     0.6864318123    -1.3727798567
   36      H      -1.7723585146    -2.3148486159    -1.0513123516
   37      H      -2.5220137478    -1.1868580892    -2.2060591428
   38      H      -3.5363545785    -2.3795989687    -1.3599694656
 ----------------------------------------------------------------

   15    -751.5101872631      9.21e-06  Convergence criterion met
 Total energy in the final basis set =     -751.5101872631
    5    -751.7889560035      5.59e-06  Convergence criterion met
 Total energy in the final basis set =     -751.7889560035

                    Orbital Energies (a.u.)
 --------------------------------------------------------------

 Alpha MOs
 -- Occupied --
-19.0160 -19.0075 -14.2701 -10.1918 -10.1632 -10.1582 -10.1547 -10.1458
-10.1438 -10.1396 -10.1373 -10.1359 -10.1290 -10.1285 -10.1234 -10.1089
-10.1074  -0.9306  -0.9248  -0.8772  -0.7961  -0.7725  -0.7412  -0.6807
 -0.6696  -0.6681  -0.6620  -0.6573  -0.6278  -0.5698  -0.5410  -0.5141
 -0.4922  -0.4571  -0.4459  -0.4295  -0.4277  -0.4240  -0.4150  -0.4129
 -0.4011  -0.3941  -0.3786  -0.3721  -0.3667  -0.3638  -0.3562  -0.3510
 -0.3480  -0.3430  -0.3374  -0.3294  -0.3228  -0.3215  -0.3082  -0.3064
 -0.3039  -0.2972  -0.2909  -0.2453  -0.2152  -0.1976  -0.1872  -0.1808
 -0.1096

          Ground-State Mulliken Net Atomic Charges

     Atom                 Charge (a.u.)
  ----------------------------------------
      1 C                    -1.016246
      2 C                     0.809634
      3 C                    -0.566426
      4 C                    -0.461243
      5 C                     0.034571
      6 C                     0.436892
      7 O                    -0.693309
      8 O                    -0.798433
      9 N                     0.017009
     10 C                    -0.002137
     11 C                    -0.515155
     12 C                    -0.563204
     13 C                    -0.519275
     14 H                     0.134116
     15 H                     0.252771
     16 H                     0.149034
     17 H                     0.148827
     18 H                     0.144531
     19 H                     0.152884
     20 H                     0.144353
     21 H                     0.139233
     22 H                     0.152400
     23 H                     0.160012
     24 H                     0.143812
     25 C                     0.629123
     26 C                    -0.709160
     27 C                    -0.498810
     28 C                    -0.735221
     29 H                     0.139014
     30 H                     0.176849
     31 H                     0.134535
     32 H                     0.127929
     33 H                     0.129589
     34 H                     0.161146
     35 H                     0.132013
     36 H                     0.172775
     37 H                     0.124302
     38 H                     0.131266
  ----------------------------------------
  Sum of atomic charges =    -2.000000

                    Cartesian Multipole Moments
 -----------------------------------------------------------------
    Charge (ESU x 10^10)
                -9.6064
    Dipole Moment (Debye)
         X       3.8610      Y     -10.8211      Z      -3.5434
       Tot      12.0233
    Quadrupole Moments (Debye-Ang)
        XX    -126.8447     XY       5.5185     YY    -188.8807
        XZ      -3.7213     YZ       3.8085     ZZ    -123.0345

 Total job time:  183.10s(wall), 994.71s(cpu)
        *  Thank you very much for using Q-Chem.  Have a nice day.  *
