 Q-Chem 5.4, Q-Chem, Inc., Pleasanton, CA (2021)
 Q-Chem 5.4.0 for Intel X86 EM64T Linux

User input:
--------------------------------------------------------------
$molecule
-2 1
C                 -0.5643220000      1.2191720000     -0.2881880000
C                 -1.4454830000      0.1651040000     -0.7922810000
C                 -1.1525630000     -1.1737490000     -0.6558440000
C                  0.0353950000     -1.6962030000     -0.0119410000
C                  0.8866800000     -0.6865470000      0.4750290000
C                  0.6472700000      0.7350300000      0.3695260000
O                 -0.9032210000      2.4354360000     -0.4522660000
O                  0.2471820000     -2.9783620000      0.0808890000
C                  1.6197710000      1.6569220000      0.9219640000
C                  2.8774330000      1.0509640000      1.6036020000
O                  1.5727390000      2.9030560000      0.9188530000
H                  2.6136570000      0.4093810000      2.4527130000
H                  3.4875320000      1.8871580000      1.9543310000
H                  3.4632960000      0.4367260000      0.9095900000
H                  1.7886550000     -1.0394970000      0.9645990000
C                 -2.7094990000      0.6194220000     -1.4791890000
H                 -1.8474660000     -1.9192500000     -1.0517820000
H                 -3.3293210000      1.2345740000     -0.8117630000
H                 -3.2997200000     -0.2407260000     -1.8206080000
H                 -2.4874680000      1.2640510000     -2.3412610000
$end

$rem
BASIS  =  6-311++G(d,p)
GUI  =  2
JOB_TYPE  =  SP
METHOD  =  B3LYP
SCF_CONVERGENCE  = 8
SOLVENT_METHOD = sm12
$end

$smx
solvent dimethylformamide
charges CM5
$end

--------------------------------------------------------------

             Standard Nuclear Orientation (Angstroms)
    I     Atom           X                Y                Z
 ----------------------------------------------------------------
    1      C      -0.5643220000     1.2191720000    -0.2881880000
    2      C      -1.4454830000     0.1651040000    -0.7922810000
    3      C      -1.1525630000    -1.1737490000    -0.6558440000
    4      C       0.0353950000    -1.6962030000    -0.0119410000
    5      C       0.8866800000    -0.6865470000     0.4750290000
    6      C       0.6472700000     0.7350300000     0.3695260000
    7      O      -0.9032210000     2.4354360000    -0.4522660000
    8      O       0.2471820000    -2.9783620000     0.0808890000
    9      C       1.6197710000     1.6569220000     0.9219640000
   10      C       2.8774330000     1.0509640000     1.6036020000
   11      O       1.5727390000     2.9030560000     0.9188530000
   12      H       2.6136570000     0.4093810000     2.4527130000
   13      H       3.4875320000     1.8871580000     1.9543310000
   14      H       3.4632960000     0.4367260000     0.9095900000
   15      H       1.7886550000    -1.0394970000     0.9645990000
   16      C      -2.7094990000     0.6194220000    -1.4791890000
   17      H      -1.8474660000    -1.9192500000    -1.0517820000
   18      H      -3.3293210000     1.2345740000    -0.8117630000
   19      H      -3.2997200000    -0.2407260000    -1.8206080000
   20      H      -2.4874680000     1.2640510000    -2.3412610000
 ----------------------------------------------------------------

   18    -573.5642858635      3.27e-09  Convergence criterion met
 Total energy in the final basis set =     -573.8547620878

                    Orbital Energies (a.u.)
 --------------------------------------------------------------

 Alpha MOs
 -- Occupied --
-19.0739 -19.0363 -19.0216 -10.2298 -10.1989 -10.1845 -10.1715 -10.1672
-10.1601 -10.1558 -10.1466 -10.1352  -0.9972  -0.9554  -0.9297  -0.8049
 -0.7638  -0.7212  -0.6870  -0.6521  -0.6040  -0.5427  -0.5046  -0.4602
 -0.4510  -0.4381  -0.4292  -0.4183  -0.4063  -0.3989  -0.3824  -0.3678
 -0.3642  -0.3632  -0.3447  -0.3362  -0.3318  -0.3170  -0.2374  -0.2367
 -0.2342  -0.1989  -0.1921  -0.1344

          Ground-State Mulliken Net Atomic Charges

     Atom                 Charge (a.u.)
  ----------------------------------------
      1 C                    -2.057008
      2 C                     1.031136
      3 C                    -1.242822
      4 C                    -1.336753
      5 C                    -1.866585
      6 C                     0.528853
      7 O                    -0.250757
      8 O                    -0.448113
      9 C                     0.169493
     10 C                     0.978379
     11 O                    -0.213592
     12 H                     0.147645
     13 H                     0.402177
     14 H                     0.148281
     15 H                    -0.136193
     16 C                     1.468152
     17 H                    -0.026825
     18 H                     0.194203
     19 H                     0.316167
     20 H                     0.194161
  ----------------------------------------
  Sum of atomic charges =    -2.000000

                    Cartesian Multipole Moments
 -----------------------------------------------------------------
    Charge (ESU x 10^10)
                -9.6064
    Dipole Moment (Debye)
         X      -0.9542      Y      -1.2316      Z      -0.5443
       Tot       1.6503
    Quadrupole Moments (Debye-Ang)
        XX     -92.9544     XY      -0.4537     YY    -151.9489
        XZ      -7.1148     YZ      -1.5797     ZZ     -83.9825

 Total job time:  269.76s(wall), 2014.75s(cpu)
        *  Thank you very much for using Q-Chem.  Have a nice day.  *
