 Q-Chem 5.4, Q-Chem, Inc., Pleasanton, CA (2021)
 Q-Chem 5.4.0 for Intel X86 EM64T Linux

User input:
--------------------------------------------------------------
$molecule
0 1
N                 -2.7984350000     -2.0085050000      0.5223000000
C                 -2.4843030000     -0.7165100000      0.2495820000
C                 -3.5309810000      0.2262600000      0.1045150000
C                 -3.2733210000      1.5520220000     -0.1727480000
C                 -1.9587880000      2.0043170000     -0.3193840000
C                 -0.9109050000      1.1052170000     -0.1832200000
C                  0.4714640000      1.6268230000     -0.3467820000
O                  0.6821630000      2.8041750000     -0.5922150000
C                  1.6085830000      0.6680340000     -0.2026620000
C                  2.8940300000      1.1843790000     -0.3615440000
C                  3.9967560000      0.3516310000     -0.2412180000
C                  3.8123890000     -0.9966230000      0.0380350000
C                  2.5298090000     -1.5217260000      0.1986010000
Cl                 2.4780700000     -3.2385860000      0.5466770000
C                  1.3887950000     -0.6995430000      0.0818330000
C                 -0.0149930000     -1.2085490000      0.2437840000
O                 -0.2157270000     -2.3979630000      0.4911470000
C                 -1.1357170000     -0.2642270000      0.1014880000
H                 -3.7611740000     -2.2812090000      0.6193330000
H                 -2.0484630000     -2.6792410000      0.6254870000
H                 -4.5541410000     -0.1178860000      0.2169410000
H                 -4.0996320000      2.2462500000     -0.2772020000
H                 -1.7346860000      3.0397560000     -0.5369210000
H                  2.9982520000      2.2394770000     -0.5782350000
H                  4.9998290000      0.7435060000     -0.3630780000
H                  4.6611250000     -1.6612790000      0.1354870000
$end
$rem
MAX_SCF_CYCLES=200
BASIS  =  6-311++G(d,p)
GUI  =  2
JOB_TYPE  =  SP
METHOD  =  B3LYP
SOLVENT_METHOD = PCM
$end
$pcm
theory = CPCM
$end
$solvent
dielectric 37.219
opticaldielectric 1.43
$end

--------------------------------------------------------------

             Standard Nuclear Orientation (Angstroms)
    I     Atom           X                Y                Z
 ----------------------------------------------------------------
    1      N      -2.7984350000    -2.0085050000     0.5223000000
    2      C      -2.4843030000    -0.7165100000     0.2495820000
    3      C      -3.5309810000     0.2262600000     0.1045150000
    4      C      -3.2733210000     1.5520220000    -0.1727480000
    5      C      -1.9587880000     2.0043170000    -0.3193840000
    6      C      -0.9109050000     1.1052170000    -0.1832200000
    7      C       0.4714640000     1.6268230000    -0.3467820000
    8      O       0.6821630000     2.8041750000    -0.5922150000
    9      C       1.6085830000     0.6680340000    -0.2026620000
   10      C       2.8940300000     1.1843790000    -0.3615440000
   11      C       3.9967560000     0.3516310000    -0.2412180000
   12      C       3.8123890000    -0.9966230000     0.0380350000
   13      C       2.5298090000    -1.5217260000     0.1986010000
   14      Cl      2.4780700000    -3.2385860000     0.5466770000
   15      C       1.3887950000    -0.6995430000     0.0818330000
   16      C      -0.0149930000    -1.2085490000     0.2437840000
   17      O      -0.2157270000    -2.3979630000     0.4911470000
   18      C      -1.1357170000    -0.2642270000     0.1014880000
   19      H      -3.7611740000    -2.2812090000     0.6193330000
   20      H      -2.0484630000    -2.6792410000     0.6254870000
   21      H      -4.5541410000    -0.1178860000     0.2169410000
   22      H      -4.0996320000     2.2462500000    -0.2772020000
   23      H      -1.7346860000     3.0397560000    -0.5369210000
   24      H       2.9982520000     2.2394770000    -0.5782350000
   25      H       4.9998290000     0.7435060000    -0.3630780000
   26      H       4.6611250000    -1.6612790000     0.1354870000
 ----------------------------------------------------------------

    8   -1203.9639120960      9.75e-06  Convergence criterion met
 Total energy in the final basis set =    -1203.9639120960

                    Orbital Energies (a.u.)
 --------------------------------------------------------------

 Alpha MOs
 -- Occupied --
******** -19.1283 -19.1245 -14.3314 -10.2828 -10.2815 -10.2620 -10.2468
-10.2221 -10.2123 -10.2040 -10.2040 -10.2013 -10.2008 -10.1974 -10.1945
-10.1900 -10.1852  -9.4780  -7.2425  -7.2331  -7.2320  -1.0652  -1.0624
 -0.9423  -0.9128  -0.8717  -0.8575  -0.8113  -0.7729  -0.7629  -0.7542
 -0.6883  -0.6666  -0.6524  -0.6112  -0.5879  -0.5743  -0.5565  -0.5275
 -0.5105  -0.5037  -0.4923  -0.4757  -0.4736  -0.4586  -0.4572  -0.4534
 -0.4458  -0.4315  -0.4212  -0.4128  -0.3982  -0.3912  -0.3838  -0.3787
 -0.3748  -0.3497  -0.3334  -0.3324  -0.2915  -0.2849  -0.2774  -0.2682
 -0.2662  -0.2255

          Ground-State Mulliken Net Atomic Charges

     Atom                 Charge (a.u.)
  ----------------------------------------
      1 N                    -0.460335
      2 C                     0.171215
      3 C                    -0.244252
      4 C                    -0.494777
      5 C                     0.036295
      6 C                     0.484430
      7 C                    -0.862349
      8 O                    -0.285324
      9 C                     0.396435
     10 C                     0.393507
     11 C                    -0.736717
     12 C                    -0.066907
     13 C                     0.891403
     14 Cl                    0.366083
     15 C                    -0.173234
     16 C                    -1.247750
     17 O                    -0.244850
     18 C                     0.089177
     19 H                     0.333639
     20 H                     0.353401
     21 H                     0.210533
     22 H                     0.225439
     23 H                     0.188405
     24 H                     0.205697
     25 H                     0.225756
     26 H                     0.245084
  ----------------------------------------
  Sum of atomic charges =     0.000000

                    Cartesian Multipole Moments
 -----------------------------------------------------------------
    Charge (ESU x 10^10)
                 0.0000
    Dipole Moment (Debye)
         X      -2.3933      Y      -0.3383      Z       0.1710
       Tot       2.4231
    Quadrupole Moments (Debye-Ang)
        XX     -69.9025     XY       5.0572     YY    -122.6419
        XZ      -2.8975     YZ       1.5653     ZZ    -113.9456

 Total job time:  91.97s(wall), 374.67s(cpu)
        *  Thank you very much for using Q-Chem.  Have a nice day.  *
