 Gaussian 16, Revision A.03,
 Gaussian 16:  ES64L-G16RevA.03 25-Dec-2016

 ----------------------------------------------------------------
 #P UB3LYP/6-311++G(d,p) SCRF=(PCM,Solvent=n,n-DiMethylFormamide)
 ----------------------------------------------------------------

 -------
 Reduced
 -------
 Symbolic Z-matrix:
 Charge = -2 Multiplicity = 1

                         Standard orientation:
 ---------------------------------------------------------------------
 Center     Atomic      Atomic             Coordinates (Angstroms)
 Number     Number       Type             X           Y           Z
 ---------------------------------------------------------------------
      1          8           0       -4.868808    0.139952    0.000595
      2          6           0       -3.549142   -0.318236    0.000135
      3          6           0       -3.268167   -1.701580   -0.000060
      4          6           0       -1.950426   -2.123876   -0.000444
      5          6           0       -0.869701   -1.209812   -0.000446
      6          6           0        0.505254   -1.716819   -0.000755
      7          8           0        0.723584   -2.966629   -0.001188
      8          6           0        1.549788   -0.697767   -0.000428
      9          6           0        2.943313   -1.027260    0.000048
     10          8           0        3.341152   -2.361788    0.000627
     11          6           0        3.923675   -0.056201   -0.000177
     12          6           0        3.589193    1.328610    0.000355
     13          6           0        2.273709    1.714907   -0.000302
     14          8           0        1.961666    3.046613   -0.000907
     15          6           0        1.211365    0.729488   -0.000588
     16          6           0       -0.130769    1.165990   -0.000268
     17          8           0       -0.467104    2.488776    0.000298
     18          6           0       -1.159399    0.193960   -0.000224
     19          6           0       -2.529081    0.608380    0.000123
     20          8           0       -2.858576    1.937292    0.000896
     21          1           0       -4.775307    1.104592    0.001563
     22          1           0       -4.093922   -2.408048   -0.000296
     23          1           0       -1.697593   -3.178287   -0.000737
     24          1           0        4.304448   -2.336202    0.015374
     25          1           0        4.972094   -0.357737   -0.001211
     26          1           0        4.363897    2.089959    0.000203
     27          1           0        0.945465    3.072073   -0.000317
     28          1           0       -1.912065    2.401224    0.001032
 ---------------------------------------------------------------------

 SCF Done:  E(UB3LYP) =  -990.211752410     A.U. after   15 cycles

 The electronic state is 1-A.
 Alpha  occ. eigenvalues --  -19.13738 -19.13002 -19.10928 -19.10344 -19.05898
 Alpha  occ. eigenvalues --  -19.02676 -10.20938 -10.20544 -10.20436 -10.20322
 Alpha  occ. eigenvalues --  -10.19241 -10.18426 -10.15481 -10.15371 -10.15181
 Alpha  occ. eigenvalues --  -10.14893 -10.14746 -10.14516 -10.14230 -10.14194
 Alpha  occ. eigenvalues --   -1.04826  -1.03726  -1.02217  -1.01289  -0.95269
 Alpha  occ. eigenvalues --   -0.94795  -0.83222  -0.81580  -0.76141  -0.72111
 Alpha  occ. eigenvalues --   -0.71408  -0.70820  -0.64911  -0.62154  -0.61655
 Alpha  occ. eigenvalues --   -0.57398  -0.55878  -0.53139  -0.52590  -0.50470
 Alpha  occ. eigenvalues --   -0.49438  -0.46614  -0.45871  -0.45019  -0.43795
 Alpha  occ. eigenvalues --   -0.42338  -0.41708  -0.40450  -0.39962  -0.39524
 Alpha  occ. eigenvalues --   -0.39136  -0.37649  -0.37353  -0.37246  -0.35977
 Alpha  occ. eigenvalues --   -0.35814  -0.35368  -0.34436  -0.33790  -0.33398
 Alpha  occ. eigenvalues --   -0.32076  -0.31767  -0.29555  -0.28227  -0.24000
 Alpha  occ. eigenvalues --   -0.23782  -0.21888  -0.19913  -0.19835  -0.19164
 Alpha  occ. eigenvalues --   -0.11473
 Alpha virt. eigenvalues --   -0.01655   0.00032   0.00055   0.00462   0.01276
 Alpha virt. eigenvalues --    0.01997   0.02477   0.03475   0.04199   0.04755
 Alpha virt. eigenvalues --    0.04850   0.05158   0.06580   0.06649   0.07034

  Beta  occ. eigenvalues --  -19.13738 -19.13002 -19.10928 -19.10344 -19.05898
  Beta  occ. eigenvalues --  -19.02676 -10.20938 -10.20544 -10.20436 -10.20322
  Beta  occ. eigenvalues --  -10.19241 -10.18426 -10.15481 -10.15371 -10.15181
  Beta  occ. eigenvalues --  -10.14893 -10.14746 -10.14516 -10.14230 -10.14194
  Beta  occ. eigenvalues --   -1.04826  -1.03726  -1.02217  -1.01289  -0.95269
  Beta  occ. eigenvalues --   -0.94795  -0.83222  -0.81580  -0.76141  -0.72111
  Beta  occ. eigenvalues --   -0.71408  -0.70820  -0.64911  -0.62154  -0.61655
  Beta  occ. eigenvalues --   -0.57398  -0.55878  -0.53139  -0.52590  -0.50470
  Beta  occ. eigenvalues --   -0.49438  -0.46614  -0.45871  -0.45019  -0.43795
  Beta  occ. eigenvalues --   -0.42338  -0.41708  -0.40450  -0.39962  -0.39524
  Beta  occ. eigenvalues --   -0.39136  -0.37649  -0.37353  -0.37246  -0.35977
  Beta  occ. eigenvalues --   -0.35814  -0.35368  -0.34436  -0.33790  -0.33398
  Beta  occ. eigenvalues --   -0.32076  -0.31767  -0.29555  -0.28227  -0.24000
  Beta  occ. eigenvalues --   -0.23782  -0.21888  -0.19913  -0.19835  -0.19164
  Beta  occ. eigenvalues --   -0.11473
  Beta virt. eigenvalues --   -0.01655   0.00032   0.00055   0.00462   0.01276
  Beta virt. eigenvalues --    0.01997   0.02477   0.03475   0.04199   0.04755
  Beta virt. eigenvalues --    0.04850   0.05158   0.06580   0.06649   0.07034

 Mulliken charges and spin densities:
               1          2
     1  O   -0.348764   0.000000
     2  C   -0.359131  -0.000000
     3  C   -0.073508  -0.000000
     4  C   -0.079529   0.000000
     5  C    0.212567   0.000000
     6  C   -0.388321   0.000000
     7  O   -0.595998  -0.000000
     8  C    0.049177   0.000000
     9  C   -0.251932  -0.000000
    10  O   -0.276650   0.000000
    11  C   -0.269721   0.000000
    12  C   -0.231733  -0.000000
    13  C   -0.246999   0.000000
    14  O   -0.486946  -0.000000
    15  C    0.600129  -0.000000
    16  C   -0.357347   0.000000
    17  O   -0.791909  -0.000000
    18  C    0.434676  -0.000000
    19  C   -0.116079  -0.000000
    20  O   -0.598966  -0.000000
    21  H    0.299258  -0.000000
    22  H    0.187539  -0.000000
    23  H    0.147505   0.000000
    24  H    0.279162  -0.000000
    25  H    0.140076  -0.000000
    26  H    0.164444   0.000000
    27  H    0.429523   0.000000
    28  H    0.529476   0.000000
 Sum of Mulliken charges =  -2.00000   0.00000

 Dipole moment (field-independent basis, Debye):
    X=              1.4174    Y=              1.4751    Z=              0.0302  Tot=              2.0459
 Quadrupole moment (field-independent basis, Debye-Ang):
   XX=           -160.5371   YY=           -180.7534   ZZ=           -126.3892
   XY=             -1.8712   XZ=              0.1204   YZ=             -0.0690

 Normal termination of Gaussian 16 at Tue Jan 16 06:32:05 2024.
