 Q-Chem 5.4, Q-Chem, Inc., Pleasanton, CA (2021)
 Q-Chem 5.4.0 for Intel X86 EM64T Linux

User input:
--------------------------------------------------------------
$molecule
-2 1
O                  4.8703400000     -0.9340240000      0.0176660000
C                  3.6396690000     -0.2742880000      0.0583080000
C                  3.5807760000      1.1344440000      0.1260840000
C                  2.3463370000      1.7584720000      0.1651200000
C                  1.1348080000      1.0270230000      0.1393960000
C                 -0.1427410000      1.7436110000      0.1832750000
O                 -0.1608760000      3.0107770000      0.2437140000
C                 -1.3351180000      0.9028910000      0.1524960000
C                 -2.6590420000      1.4472720000      0.1892650000
O                 -2.8410350000      2.8262160000      0.2573370000
C                 -3.7804770000      0.6438140000      0.1591730000
C                 -3.6689800000     -0.7748050000      0.0908550000
C                 -2.4310890000     -1.3629200000      0.0524720000
O                 -2.3333680000     -2.7255710000     -0.0141960000
C                 -1.2264400000     -0.5581810000      0.0814720000
C                  0.0298410000     -1.2000580000      0.0413490000
O                  0.1529670000     -2.5577910000     -0.0241070000
C                  1.1990880000     -0.4032330000      0.0705740000
C                  2.4860580000     -1.0276680000      0.0310770000
O                  2.6014650000     -2.3903770000     -0.0343510000
H                  4.6256260000     -1.8708390000     -0.0243790000
H                  4.5077450000      1.7012820000      0.1458720000
H                  2.2632640000      2.8383290000      0.2172220000
H                 -3.7961330000      2.9519370000      0.2854860000
H                 -4.7680680000      1.1063560000      0.1879160000
H                 -4.5542140000     -1.4037950000      0.0673780000
H                 -1.3339770000     -2.9107060000     -0.0301790000
H                  1.5935760000     -2.6989680000     -0.0412380000
$end
$rem
MAX_SCF_CYCLES=200
BASIS  =  6-311++G(d,p)
GUI  =  2
JOB_TYPE  =  SP
METHOD  =  B3LYP
SOLVENT_METHOD = PCM
$end
$pcm
theory = CPCM
$end
$solvent
dielectric 37.219
opticaldielectric 1.43
$end

--------------------------------------------------------------

             Standard Nuclear Orientation (Angstroms)
    I     Atom           X                Y                Z
 ----------------------------------------------------------------
    1      O       4.8703400000    -0.9340240000     0.0176660000
    2      C       3.6396690000    -0.2742880000     0.0583080000
    3      C       3.5807760000     1.1344440000     0.1260840000
    4      C       2.3463370000     1.7584720000     0.1651200000
    5      C       1.1348080000     1.0270230000     0.1393960000
    6      C      -0.1427410000     1.7436110000     0.1832750000
    7      O      -0.1608760000     3.0107770000     0.2437140000
    8      C      -1.3351180000     0.9028910000     0.1524960000
    9      C      -2.6590420000     1.4472720000     0.1892650000
   10      O      -2.8410350000     2.8262160000     0.2573370000
   11      C      -3.7804770000     0.6438140000     0.1591730000
   12      C      -3.6689800000    -0.7748050000     0.0908550000
   13      C      -2.4310890000    -1.3629200000     0.0524720000
   14      O      -2.3333680000    -2.7255710000    -0.0141960000
   15      C      -1.2264400000    -0.5581810000     0.0814720000
   16      C       0.0298410000    -1.2000580000     0.0413490000
   17      O       0.1529670000    -2.5577910000    -0.0241070000
   18      C       1.1990880000    -0.4032330000     0.0705740000
   19      C       2.4860580000    -1.0276680000     0.0310770000
   20      O       2.6014650000    -2.3903770000    -0.0343510000
   21      H       4.6256260000    -1.8708390000    -0.0243790000
   22      H       4.5077450000     1.7012820000     0.1458720000
   23      H       2.2632640000     2.8383290000     0.2172220000
   24      H      -3.7961330000     2.9519370000     0.2854860000
   25      H      -4.7680680000     1.1063560000     0.1879160000
   26      H      -4.5542140000    -1.4037950000     0.0673780000
   27      H      -1.3339770000    -2.9107060000    -0.0301790000
   28      H       1.5935760000    -2.6989680000    -0.0412380000
 ----------------------------------------------------------------

    9    -990.2204233820      4.18e-06  Convergence criterion met
 Total energy in the final basis set =     -990.2204233820

                    Orbital Energies (a.u.)
 --------------------------------------------------------------

 Alpha MOs
 -- Occupied --
-19.1380 -19.1300 -19.1115 -19.1064 -19.0623 -19.0311 -10.2105 -10.2073
-10.2059 -10.2051 -10.1956 -10.1873 -10.1562 -10.1557 -10.1541 -10.1514
-10.1490 -10.1455 -10.1444 -10.1433  -1.0493  -1.0373  -1.0250  -1.0150
 -0.9573  -0.9513  -0.8344  -0.8175  -0.7632  -0.7231  -0.7159  -0.7099
 -0.6511  -0.6233  -0.6180  -0.5753  -0.5603  -0.5329  -0.5271  -0.5067
 -0.4957  -0.4682  -0.4608  -0.4521  -0.4396  -0.4246  -0.4192  -0.4057
 -0.4016  -0.3975  -0.3937  -0.3788  -0.3761  -0.3757  -0.3613  -0.3606
 -0.3552  -0.3470  -0.3397  -0.3357  -0.3239  -0.3206  -0.2979  -0.2846
 -0.2427  -0.2409  -0.2209  -0.2040  -0.2009  -0.1937  -0.1176

          Ground-State Mulliken Net Atomic Charges

     Atom                 Charge (a.u.)
  ----------------------------------------
      1 O                    -0.360992
      2 C                    -0.350451
      3 C                    -0.089369
      4 C                    -0.098899
      5 C                     0.204104
      6 C                    -0.344837
      7 O                    -0.621449
      8 C                     0.030800
      9 C                    -0.265943
     10 O                    -0.301779
     11 C                    -0.261823
     12 C                    -0.251080
     13 C                    -0.237005
     14 O                    -0.497321
     15 C                     0.598206
     16 C                    -0.346248
     17 O                    -0.803849
     18 C                     0.430793
     19 C                    -0.111142
     20 O                    -0.605793
     21 H                     0.312872
     22 H                     0.205312
     23 H                     0.150208
     24 H                     0.300201
     25 H                     0.167595
     26 H                     0.180138
     27 H                     0.434313
     28 H                     0.533438
  ----------------------------------------
  Sum of atomic charges =    -2.000000

                    Cartesian Multipole Moments
 -----------------------------------------------------------------
    Charge (ESU x 10^10)
                -9.6064
    Dipole Moment (Debye)
         X      -2.6180      Y      -1.0150      Z      -0.9460
       Tot       2.9629
    Quadrupole Moments (Debye-Ang)
        XX    -158.9104     XY      -5.3977     YY    -179.9113
        XZ      -0.3779     YZ      -2.5278     ZZ    -126.5134

 Total job time:  108.80s(wall), 413.70s(cpu)
        *  Thank you very much for using Q-Chem.  Have a nice day.  *
