 Q-Chem 5.4, Q-Chem, Inc., Pleasanton, CA (2021)
 Q-Chem 5.4.0 for Intel X86 EM64T Linux

User input:
--------------------------------------------------------------
$molecule
-2 1
O                  2.3669070000      1.6243180000      0.3532210000
C                  1.7303830000      0.4891290000      0.2283820000
C                  2.3940850000     -0.7552030000      0.2553720000
C                  1.6902010000     -1.9705380000      0.1191950000
C                  0.3177570000     -1.9946780000     -0.0467830000
C                 -0.4222360000     -0.7830580000     -0.0842000000
C                 -1.8860130000     -0.8415680000     -0.2621610000
O                 -2.5091220000     -1.9632010000     -0.3847390000
C                 -2.5267900000      0.4218520000     -0.2852700000
C                 -1.8305720000      1.6457560000     -0.1496200000
C                 -0.4600950000      1.6889950000      0.0165590000
O                  0.1950980000      2.9033530000      0.1468160000
C                  0.2756940000      0.4641640000      0.0525670000
H                  1.1641200000      2.6256710000      0.2508950000
H                  3.4747680000     -0.7438720000      0.3857050000
H                  2.2471000000     -2.9094830000      0.1462550000
H                 -0.2382120000     -2.9195560000     -0.1527740000
H                 -3.6085500000      0.4278670000     -0.4147480000
H                 -2.3745200000      2.5900530000     -0.1746730000
$end
$rem
MAX_SCF_CYCLES=200
BASIS  =  6-311++G(d,p)
GUI  =  2
JOB_TYPE  =  SP
METHOD  =  B3LYP
SOLVENT_METHOD = COSMO
$end
$solvent
dielectric 37.219
opticaldielectric 1.43
$end

--------------------------------------------------------------

             Standard Nuclear Orientation (Angstroms)
    I     Atom           X                Y                Z
 ----------------------------------------------------------------
    1      O       2.7878649158    -0.6499868780    -0.0000640637
    2      C       1.8081683122     0.2158053503     0.0000986197
    3      C       2.0317703453     1.6084980689    -0.0001326364
    4      C       0.9615600899     2.5281099612    -0.0001241892
    5      C      -0.3543407922     2.1036823535     0.0000841798
    6      C      -0.6613833437     0.7170542290     0.0001948519
    7      C      -2.0755642437     0.2953565024    -0.0000348679
    8      O      -3.0380119138     1.1527043041     0.0000541014
    9      C      -2.2710055424    -1.1079118175    -0.0001186152
   10      C      -1.2052812448    -2.0381231631    -0.0001556553
   11      C       0.1149743940    -1.6323925873     0.0000079777
   12      O       1.1384567067    -2.5669481290     0.0000330860
   13      C       0.4136255948    -0.2346442499     0.0002371837
   14      H       1.9706244379    -1.9886402069     0.0004599002
   15      H       3.0654031068     1.9499568896    -0.0002628596
   16      H       1.1837288252     3.5972813633    -0.0002608534
   17      H      -1.1881221300     2.7968948835     0.0000128893
   18      H      -3.2999329468    -1.4661209932    -0.0002331182
   19      H      -1.4133203792    -3.1081341980    -0.0002420407
 ----------------------------------------------------------------

   11    -610.5152473877      6.02e-06  Convergence criterion met
 Total energy in the final basis set =     -610.5152473877
    6    -610.7996108505      2.33e-06  Convergence criterion met
 Total energy in the final basis set =     -610.7996108505

                    Orbital Energies (a.u.)
 --------------------------------------------------------------

 Alpha MOs
 -- Occupied --
-19.1022 -19.0539 -19.0308 -10.2019 -10.1913 -10.1860 -10.1498 -10.1497
-10.1463 -10.1392 -10.1331 -10.1321 -10.1283  -1.0143  -0.9603  -0.9461
 -0.8202  -0.7768  -0.7092  -0.7027  -0.6591  -0.5936  -0.5792  -0.5342
 -0.4935  -0.4752  -0.4631  -0.4441  -0.4112  -0.3953  -0.3946  -0.3906
 -0.3736  -0.3600  -0.3561  -0.3460  -0.3453  -0.3241  -0.3147  -0.2902
 -0.2587  -0.2308  -0.2229  -0.2066  -0.1881  -0.1360

          Ground-State Mulliken Net Atomic Charges

     Atom                 Charge (a.u.)
  ----------------------------------------
      1 O                    -0.686767
      2 C                    -0.256522
      3 C                    -0.337123
      4 C                    -0.371179
      5 C                    -0.220062
      6 C                     0.366711
      7 C                    -0.429922
      8 O                    -0.730054
      9 C                    -0.148052
     10 C                    -0.159631
     11 C                    -0.264089
     12 O                    -0.512008
     13 C                     0.556268
     14 H                     0.368521
     15 H                     0.162772
     16 H                     0.179534
     17 H                     0.150371
     18 H                     0.154878
     19 H                     0.176354
  ----------------------------------------
  Sum of atomic charges =    -2.000000

                    Cartesian Multipole Moments
 -----------------------------------------------------------------
    Charge (ESU x 10^10)
                -9.6064
    Dipole Moment (Debye)
         X       2.7510      Y       0.4260      Z       0.0021
       Tot       2.7838
    Quadrupole Moments (Debye-Ang)
        XX    -142.9087     XY      19.8708     YY    -103.7396
        XZ       0.0051     YZ      -0.0015     ZZ     -86.1103

 Total job time:  32.46s(wall), 238.12s(cpu)
        *  Thank you very much for using Q-Chem.  Have a nice day.  *
