 Gaussian 16, Revision A.03,
 Gaussian 16:  ES64L-G16RevA.03 25-Dec-2016

 ----------------------------------------------------------------------
 #P UB3LYP/6-311++G(d,p) nosym opt freq SCRF=(PCM,Solvent=n,n-DiMethylF
 ormamide)
 ----------------------------------------------------------------------

 --------
 Oxidized
 --------
 Symbolic Z-matrix:
 Charge =  0 Multiplicity = 1

 SCF Done:  E(UB3LYP) =  -767.620942116     A.U. after   14 cycles
 SCF Done:  E(UB3LYP) =  -767.621048452     A.U. after   11 cycles
 SCF Done:  E(UB3LYP) =  -767.621060845     A.U. after   10 cycles
 SCF Done:  E(UB3LYP) =  -767.621061581     A.U. after    9 cycles
 SCF Done:  E(UB3LYP) =  -767.621061728     A.U. after    9 cycles
 Optimization completed.
    -- Stationary point found.
 Normal termination of Gaussian 16 at Sat Feb 10 16:04:21 2024.

 ----------------------------------------------------------------------
 #P Geom=AllCheck Guess=TCheck SCRF=Check GenChk UB3LYP/6-311++G(d,p) F
 req
 ----------------------------------------------------------------------

 Structure from the checkpoint file:  "130.chk"
 --------
 Oxidized
 --------
 Charge =  0 Multiplicity = 1

                          Input orientation:
 ---------------------------------------------------------------------
 Center     Atomic      Atomic             Coordinates (Angstroms)
 Number     Number       Type             X           Y           Z
 ---------------------------------------------------------------------
      1          6           0       -3.386126    3.492312    0.024005
      2          6           0       -4.619894    2.842248    0.075551
      3          6           0       -4.626845    1.438881    0.134968
      4          6           0       -2.185049    2.777180    0.027759
      5          6           0       -2.208379    1.372184    0.085582
      6          6           0       -3.442630    0.715477    0.139250
      7          6           0       -0.895906    3.523318   -0.027197
      8          6           0        0.363577    2.726226   -0.021999
      9          6           0        0.333064    1.321389    0.036095
     10          6           0       -0.952430    0.576457    0.092804
     11          6           0        1.591189    3.392821   -0.073625
     12          6           0        2.799105    2.694039   -0.069771
     13          6           0        2.752376    1.291439   -0.009590
     14          6           0        1.541318    0.615920    0.041768
     15          8           0       -0.872426    4.747172   -0.076418
     16          8           0       -0.975967   -0.649011    0.143146
     17          6           0       -5.912988    3.615183    0.056959
     18          1           0       -5.574212    0.912144    0.179376
     19          1           0       -3.457538   -0.366159    0.185626
     20          1           0        1.514910   -0.465462    0.088219
     21          6           0        4.120304    3.414792   -0.139007
     22          1           0        3.678900    0.727126   -0.002187
     23          1           0       -3.341523    4.573861   -0.018897
     24          1           0        1.588155    4.475301   -0.116201
     25          1           0       -5.739204    4.686057    0.169960
     26          1           0       -6.578299    3.285649    0.859292
     27          1           0       -6.443334    3.456388   -0.887424
     28          1           0        3.993136    4.492373   -0.027708
     29          1           0        4.610777    3.229173   -1.099862
     30          1           0        4.799598    3.063902    0.642335
 ---------------------------------------------------------------------

 SCF Done:  E(UB3LYP) =  -767.621061728     A.U. after    1 cycles

 Alpha  occ. eigenvalues --  -19.13110 -19.12834 -10.28316 -10.28103 -10.20811
 Alpha  occ. eigenvalues --  -10.20810 -10.20792 -10.20792 -10.20548 -10.20548
 Alpha  occ. eigenvalues --  -10.19680 -10.19680 -10.19474 -10.19474 -10.19401
 Alpha  occ. eigenvalues --  -10.19401 -10.17443 -10.17443  -1.06369  -1.06012
 Alpha  occ. eigenvalues --   -0.89474  -0.88382  -0.82327  -0.79401  -0.78180
 Alpha  occ. eigenvalues --   -0.77402  -0.72815  -0.70400  -0.68366  -0.64477
 Alpha  occ. eigenvalues --   -0.63074  -0.61212  -0.58598  -0.54898  -0.54735
 Alpha  occ. eigenvalues --   -0.50655  -0.48712  -0.48134  -0.47382  -0.45709
 Alpha  occ. eigenvalues --   -0.45591  -0.45290  -0.44763  -0.43992  -0.43594
 Alpha  occ. eigenvalues --   -0.43301  -0.42764  -0.41744  -0.39728  -0.39667
 Alpha  occ. eigenvalues --   -0.38571  -0.37854  -0.37060  -0.36715  -0.36017
 Alpha  occ. eigenvalues --   -0.35778  -0.28730  -0.28372  -0.27894  -0.27500
 Alpha  occ. eigenvalues --   -0.27267  -0.26509
 Alpha virt. eigenvalues --   -0.11837  -0.07199  -0.03665  -0.02472  -0.00786
 Alpha virt. eigenvalues --   -0.00095   0.00825   0.01518   0.01752   0.02048
 Alpha virt. eigenvalues --    0.03320   0.03584   0.03591   0.03607   0.03667

  Beta  occ. eigenvalues --  -19.13110 -19.12834 -10.28316 -10.28103 -10.20811
  Beta  occ. eigenvalues --  -10.20810 -10.20792 -10.20792 -10.20548 -10.20548
  Beta  occ. eigenvalues --  -10.19680 -10.19680 -10.19474 -10.19474 -10.19401
  Beta  occ. eigenvalues --  -10.19401 -10.17443 -10.17443  -1.06369  -1.06012
  Beta  occ. eigenvalues --   -0.89474  -0.88382  -0.82327  -0.79401  -0.78180
  Beta  occ. eigenvalues --   -0.77402  -0.72815  -0.70400  -0.68366  -0.64477
  Beta  occ. eigenvalues --   -0.63074  -0.61212  -0.58598  -0.54898  -0.54735
  Beta  occ. eigenvalues --   -0.50655  -0.48712  -0.48134  -0.47382  -0.45709
  Beta  occ. eigenvalues --   -0.45591  -0.45290  -0.44763  -0.43992  -0.43594
  Beta  occ. eigenvalues --   -0.43301  -0.42764  -0.41744  -0.39728  -0.39667
  Beta  occ. eigenvalues --   -0.38571  -0.37854  -0.37060  -0.36715  -0.36017
  Beta  occ. eigenvalues --   -0.35778  -0.28730  -0.28372  -0.27894  -0.27500
  Beta  occ. eigenvalues --   -0.27267  -0.26509
  Beta virt. eigenvalues --   -0.11837  -0.07199  -0.03665  -0.02472  -0.00786
  Beta virt. eigenvalues --   -0.00095   0.00825   0.01518   0.01752   0.02048
  Beta virt. eigenvalues --    0.03320   0.03584   0.03591   0.03607   0.03667

 Mulliken charges and spin densities:
               1          2
     1  C   -0.087032  -0.000000
     2  C    0.380242   0.000000
     3  C   -0.553897  -0.000000
     4  C    0.232940   0.000000
     5  C    0.109074  -0.000000
     6  C    0.295669   0.000000
     7  C   -0.549912  -0.000000
     8  C    0.231877  -0.000000
     9  C    0.109550  -0.000000
    10  C   -1.136681   0.000000
    11  C   -0.090389  -0.000000
    12  C    0.380010   0.000000
    13  C   -0.548048   0.000000
    14  C    0.296443  -0.000000
    15  O   -0.272980   0.000000
    16  O   -0.281615  -0.000000
    17  C   -0.321524   0.000000
    18  H    0.202223  -0.000000
    19  H    0.188396  -0.000000
    20  H    0.188494  -0.000000
    21  C   -0.321608  -0.000000
    22  H    0.202350   0.000000
    23  H    0.148475  -0.000000
    24  H    0.147858   0.000000
    25  H    0.176020   0.000000
    26  H    0.164330   0.000000
    27  H    0.184588  -0.000000
    28  H    0.176069   0.000000
    29  H    0.184279   0.000000
    30  H    0.164800  -0.000000
 Sum of Mulliken charges =  -0.00000   0.00000

 Dipole moment (field-independent basis, Debye):
    X=              0.0142    Y=              0.7469    Z=             -0.0955  Tot=              0.7531
 Quadrupole moment (field-independent basis, Debye-Ang):
   XX=            -63.3979   YY=           -115.7226   ZZ=           -106.9278
   XY=             -1.7704   XZ=             -0.7525   YZ=              0.2211

  Exact polarizability: 401.273  -2.036 308.391  -5.363  -7.579 134.793
 Approx polarizability: 416.710  -0.602 397.282  -5.230 -10.341 159.416

                      1                      2                      3
                      A                      A                      A
 Frequencies --     18.5434                23.1706                32.7795
 Red. masses --      1.0948                 1.0350                 4.4862
 Frc consts  --      0.0002                 0.0003                 0.0028
 IR Inten    --      1.8845                 0.6572                 7.7205

                      4                      5                      6
                      A                      A                      A
 Frequencies --     82.4613                96.5547               136.8264
 Red. masses --      3.5869                 5.3455                 6.2083
 Frc consts  --      0.0144                 0.0294                 0.0685
 IR Inten    --      0.0003                 1.5618                 1.5478

                      7                      8                      9
                      A                      A                      A
 Frequencies --    162.2807               165.5215               236.5485
 Red. masses --      3.7964                 4.2018                 4.3758
 Frc consts  --      0.0589                 0.0678                 0.1443
 IR Inten    --      2.1549                 0.0009                 0.4202

                     10                     11                     12
                      A                      A                      A
 Frequencies --    251.1227               302.4541               313.3562
 Red. masses --      4.2649                 4.4324                 5.3619
 Frc consts  --      0.1585                 0.2389                 0.3102
 IR Inten    --      4.8362                 0.0001                 0.1279

                     13                     14                     15
                      A                      A                      A
 Frequencies --    358.6837               371.5629               387.8217
 Red. masses --      6.3052                 3.3583                 7.0377
 Frc consts  --      0.4779                 0.2732                 0.6237
 IR Inten    --     13.4367                 0.1671                27.9498

                     16                     17                     18
                      A                      A                      A
 Frequencies --    414.9415               428.4265               444.7304
 Red. masses --      3.3955                 4.7245                 3.1383
 Frc consts  --      0.3445                 0.5109                 0.3657
 IR Inten    --      1.1738                 9.3537                 0.0033

                     19                     20                     21
                      A                      A                      A
 Frequencies --    471.6452               483.7576               543.6872
 Red. masses --     11.7239                 4.1468                 3.5380
 Frc consts  --      1.5366                 0.5718                 0.6162
 IR Inten    --      0.2940                20.6273                 0.1431

                     22                     23                     24
                      A                      A                      A
 Frequencies --    587.3971               597.4466               667.9839
 Red. masses --      5.0934                 5.8944                 7.3417
 Frc consts  --      1.0354                 1.2396                 1.9301
 IR Inten    --      1.1147                24.8048                 4.7945

                     25                     26                     27
                      A                      A                      A
 Frequencies --    668.5299               710.1896               725.1491
 Red. masses --      3.6670                 6.6618                 5.8433
 Frc consts  --      0.9656                 1.9797                 1.8104
 IR Inten    --     18.5269                 0.4346                 1.0515

                     28                     29                     30
                      A                      A                      A
 Frequencies --    725.7165               752.1176               786.0696
 Red. masses --      4.1950                 3.9383                 6.0878
 Frc consts  --      1.3017                 1.3126                 2.2163
 IR Inten    --      0.0486                74.1256                13.5381

                     31                     32                     33
                      A                      A                      A
 Frequencies --    807.3613               850.4831               872.4212
 Red. masses --      4.3261                 1.3063                 1.6805
 Frc consts  --      1.6614                 0.5567                 0.7536
 IR Inten    --      0.4463                 0.0412                44.6719

                     34                     35                     36
                      A                      A                      A
 Frequencies --    912.6032               926.0547               935.1964
 Red. masses --      4.4662                 1.3219                 1.4340
 Frc consts  --      2.1915                 0.6679                 0.7389
 IR Inten    --      1.7895                 0.2829                 6.2549

                     37                     38                     39
                      A                      A                      A
 Frequencies --    939.9854               997.5512              1005.0393
 Red. masses --      6.8575                 1.7413                 1.3444
 Frc consts  --      3.5699                 1.0209                 0.8001
 IR Inten    --    124.6722                68.8386                 0.0112

                     40                     41                     42
                      A                      A                      A
 Frequencies --   1008.0370              1018.8713              1040.7957
 Red. masses --      1.3675                 1.4282                 2.0345
 Frc consts  --      0.8187                 0.8735                 1.2985
 IR Inten    --      2.7547                 0.8573                 1.2201

                     43                     44                     45
                      A                      A                      A
 Frequencies --   1061.2168              1061.4988              1108.9701
 Red. masses --      1.5776                 1.5786                 3.1823
 Frc consts  --      1.0468                 1.0480                 2.3059
 IR Inten    --      6.9780                20.4487                 7.0559

                     46                     47                     48
                      A                      A                      A
 Frequencies --   1133.1811              1159.8361              1191.9966
 Red. masses --      1.8333                 1.3606                 2.2340
 Frc consts  --      1.3871                 1.0784                 1.8702
 IR Inten    --     11.1100                 5.5409                86.9615

                     49                     50                     51
                      A                      A                      A
 Frequencies --   1197.6853              1238.7249              1246.5402
 Red. masses --      2.4652                 1.6334                 3.0877
 Frc consts  --      2.0835                 1.4767                 2.8268
 IR Inten    --      9.2101                 0.1138                 3.8946

                     52                     53                     54
                      A                      A                      A
 Frequencies --   1287.2188              1305.6863              1311.2398
 Red. masses --      1.5966                 7.2103                 2.0186
 Frc consts  --      1.5586                 7.2424                 2.0448
 IR Inten    --     39.9681              1459.7879                 0.8222

                     55                     56                     57
                      A                      A                      A
 Frequencies --   1351.1695              1358.2567              1408.7621
 Red. masses --      6.4710                 8.1070                 1.2483
 Frc consts  --      6.9605                 8.8120                 1.4597
 IR Inten    --     45.9198                 0.2259                 0.6072

                     58                     59                     60
                      A                      A                      A
 Frequencies --   1409.0128              1429.3430              1441.6023
 Red. masses --      1.2534                 2.6982                 2.6238
 Frc consts  --      1.4661                 3.2479                 3.2127
 IR Inten    --     13.2057                26.3104                48.6189

                     61                     62                     63
                      A                      A                      A
 Frequencies --   1474.8444              1475.0979              1484.9235
 Red. masses --      1.0525                 1.0519                 1.1777
 Frc consts  --      1.3488                 1.3485                 1.5301
 IR Inten    --     17.1235                 6.1777                 1.5146

                     64                     65                     66
                      A                      A                      A
 Frequencies --   1487.0197              1513.5078              1520.5673
 Red. masses --      1.2597                 3.0499                 2.8674
 Frc consts  --      1.6412                 4.1163                 3.9061
 IR Inten    --      0.7888                 8.1670                 5.1720

                     67                     68                     69
                      A                      A                      A
 Frequencies --   1594.5181              1601.0385              1622.7373
 Red. masses --      6.3555                 7.1276                 6.4578
 Frc consts  --      9.5205                10.7646                10.0192
 IR Inten    --      5.4648               193.9861               523.4825

                     70                     71                     72
                      A                      A                      A
 Frequencies --   1631.8954              1686.2309              1699.2555
 Red. masses --      5.8096                12.2263                11.2194
 Frc consts  --      9.1155                20.4824                19.0870
 IR Inten    --     69.5142                58.7888               589.6989

                     73                     74                     75
                      A                      A                      A
 Frequencies --   3028.7301              3029.0574              3080.4518
 Red. masses --      1.0385                 1.0382                 1.0986
 Frc consts  --      5.6128                 5.6123                 6.1421
 IR Inten    --     29.4471                25.2776                18.4650

                     76                     77                     78
                      A                      A                      A
 Frequencies --   3080.7059              3114.0821              3114.7006
 Red. masses --      1.0988                 1.1017                 1.1016
 Frc consts  --      6.1445                 6.2949                 6.2964
 IR Inten    --     19.1228                23.3877                24.7265

                     79                     80                     81
                      A                      A                      A
 Frequencies --   3170.6506              3170.8391              3190.8797
 Red. masses --      1.0898                 1.0898                 1.0902
 Frc consts  --      6.4551                 6.4559                 6.5401
 IR Inten    --     20.9569                11.6248                 9.0353

                     82                     83                     84
                      A                      A                      A
 Frequencies --   3191.3265              3201.4661              3202.0078
 Red. masses --      1.0905                 1.0925                 1.0927
 Frc consts  --      6.5436                 6.5975                 6.6008
 IR Inten    --      4.1430                12.7121                 4.3689

 - Thermochemistry -
 -------------------
 Temperature   298.150 Kelvin.  Pressure   1.00000 Atm.
 Atom     1 has atomic number  6 and mass  12.00000

 Molecular mass:   236.08373 amu.
 Principal axes and moments of inertia in atomic units:
                           1         2         3
     Eigenvalues --  1853.652676725.601698556.92192
           X            0.99961   0.01913   0.02037
           Y           -0.01997   0.99893   0.04180
           Z           -0.01955  -0.04219   0.99892
 This molecule is an asymmetric top.
 Rotational symmetry number  1.
 Warning -- assumption of classical behavior for rotation
           may cause significant error
 Rotational temperatures (Kelvin)      0.04673     0.01288     0.01012
 Rotational constants (GHZ):           0.97361     0.26834     0.21091
 Zero-point vibrational energy     612071.4 (Joules/Mol)
                                  146.28858 (Kcal/Mol)
 Warning -- explicit consideration of  23 degrees of freedom as
           vibrations may cause significant error
 Vibrational temperatures:     26.68    33.34    47.16   118.64   138.92
          (Kelvin)            196.86   233.49   238.15   340.34   361.31
                              435.16   450.85   516.07   534.60   557.99
                              597.01   616.41   639.87   678.59   696.02
                              782.24   845.13   859.59   961.08   961.87
                             1021.80  1043.33  1044.14  1082.13  1130.98
                             1161.61  1223.66  1255.22  1313.03  1332.39
                             1345.54  1352.43  1435.25  1446.03  1450.34
                             1465.93  1497.47  1526.85  1527.26  1595.56
                             1630.39  1668.75  1715.02  1723.20  1782.25
                             1793.49  1852.02  1878.59  1886.58  1944.03
                             1954.23  2026.89  2027.26  2056.51  2074.14
                             2121.97  2122.34  2136.47  2139.49  2177.60
                             2187.76  2294.16  2303.54  2334.76  2347.93
                             2426.11  2444.85  4357.67  4358.14  4432.08
                             4432.45  4480.47  4481.36  4561.86  4562.13
                             4590.96  4591.61  4606.20  4606.98

 Zero-point correction=                           0.233126 (Hartree/Particle)
 Thermal correction to Energy=                    0.248338
 Thermal correction to Enthalpy=                  0.249282
 Thermal correction to Gibbs Free Energy=         0.188200
 Sum of electronic and zero-point Energies=           -767.387936
 Sum of electronic and thermal Energies=              -767.372724
 Sum of electronic and thermal Enthalpies=            -767.371780
 Sum of electronic and thermal Free Energies=         -767.432862

                     E (Thermal)             CV                S
                      KCal/Mol        Cal/Mol-Kelvin    Cal/Mol-Kelvin
 Total                  155.834             57.988            128.558
 Electronic               0.000              0.000              0.000
 Translational            0.889              2.981             42.279
 Rotational               0.889              2.981             33.034
 Vibrational            154.057             52.026             53.246
 Vibration     1          0.593              1.986              6.784
 Vibration     2          0.593              1.985              6.342
 Vibration     3          0.594              1.983              5.654
 Vibration     4          0.600              1.961              3.831
 Vibration     5          0.603              1.952              3.523
 Vibration     6          0.614              1.917              2.848
 Vibration     7          0.622              1.889              2.523
 Vibration     8          0.624              1.885              2.486
 Vibration     9          0.655              1.785              1.829
 Vibration    10          0.663              1.761              1.723
 Vibration    11          0.694              1.669              1.403
 Vibration    12          0.701              1.648              1.345
 Vibration    13          0.734              1.557              1.128
 Vibration    14          0.743              1.531              1.073
 Vibration    15          0.756              1.496              1.009
 Vibration    16          0.778              1.438              0.909
 Vibration    17          0.790              1.408              0.864
 Vibration    18          0.804              1.373              0.812
 Vibration    19          0.829              1.313              0.733
 Vibration    20          0.840              1.286              0.700
 Vibration    21          0.899              1.154              0.557
 Vibration    22          0.945              1.059              0.472
 Vibration    23          0.955              1.037              0.454

                           ! Non-Optimized Parameters !
 Normal termination of Gaussian 16 at Sat Feb 10 16:43:40 2024.
