 Q-Chem 5.4, Q-Chem, Inc., Pleasanton, CA (2021)
 Q-Chem 5.4.0 for Intel X86 EM64T Linux

User input:
--------------------------------------------------------------
$molecule
-2 1
C                 -0.8775120000      2.3476390000     -0.9713230000
C                 -2.1686020000      1.8548290000     -1.0374680000
C                 -2.5432190000      0.7555190000     -0.2240730000
C                  0.0995400000      1.7896110000     -0.1135660000
C                 -0.2850870000      0.6727520000      0.7173100000
C                 -1.6097480000      0.1913480000      0.6284040000
C                  1.4446630000      2.3681350000     -0.1037010000
C                  2.3215690000      1.7063240000      0.8073790000
C                  1.9483250000      0.6310420000      1.6283480000
C                  0.6566230000      0.0406010000      1.6419850000
O                  1.7692490000      3.3649040000     -0.8463500000
O                  0.3274130000     -0.9547900000      2.3892180000
H                 -0.5596780000      3.1881580000     -1.5811050000
H                 -1.8608360000     -0.6501390000      1.2677310000
O                  3.6257110000      2.2108880000      0.9718920000
H                 -2.8942640000      2.3085140000     -1.7111130000
H                 -3.5568350000      0.3601510000     -0.2700290000
H                  2.6956160000      0.2152890000      2.3012300000
C                  4.6705220000      1.5326570000      0.2836760000
C                  5.9816750000      2.1417760000      0.7794910000
C                  4.5163140000      1.6364630000     -1.2357440000
H                  4.6458740000      0.4666770000      0.5664430000
H                  6.8472060000      1.6410010000      0.3332490000
H                  6.0582360000      2.0550220000      1.8676290000
H                  6.0277720000      3.2044730000      0.5188760000
H                  5.3316970000      1.1026600000     -1.7410560000
H                  4.5091290000      2.6856460000     -1.5414270000
H                  3.5608550000      1.2051630000     -1.5415540000
$end

$rem
BASIS  =  6-311++G(d,p)
GUI  =  2
JOB_TYPE  =  SP
METHOD  =  B3LYP
SCF_CONVERGENCE  = 8
SOLVENT_METHOD = sm12
$end

$smx
solvent dimethylformamide
charges CM5
$end

--------------------------------------------------------------

             Standard Nuclear Orientation (Angstroms)
    I     Atom           X                Y                Z
 ----------------------------------------------------------------
    1      C      -0.8775120000     2.3476390000    -0.9713230000
    2      C      -2.1686020000     1.8548290000    -1.0374680000
    3      C      -2.5432190000     0.7555190000    -0.2240730000
    4      C       0.0995400000     1.7896110000    -0.1135660000
    5      C      -0.2850870000     0.6727520000     0.7173100000
    6      C      -1.6097480000     0.1913480000     0.6284040000
    7      C       1.4446630000     2.3681350000    -0.1037010000
    8      C       2.3215690000     1.7063240000     0.8073790000
    9      C       1.9483250000     0.6310420000     1.6283480000
   10      C       0.6566230000     0.0406010000     1.6419850000
   11      O       1.7692490000     3.3649040000    -0.8463500000
   12      O       0.3274130000    -0.9547900000     2.3892180000
   13      H      -0.5596780000     3.1881580000    -1.5811050000
   14      H      -1.8608360000    -0.6501390000     1.2677310000
   15      O       3.6257110000     2.2108880000     0.9718920000
   16      H      -2.8942640000     2.3085140000    -1.7111130000
   17      H      -3.5568350000     0.3601510000    -0.2700290000
   18      H       2.6956160000     0.2152890000     2.3012300000
   19      C       4.6705220000     1.5326570000     0.2836760000
   20      C       5.9816750000     2.1417760000     0.7794910000
   21      C       4.5163140000     1.6364630000    -1.2357440000
   22      H       4.6458740000     0.4666770000     0.5664430000
   23      H       6.8472060000     1.6410010000     0.3332490000
   24      H       6.0582360000     2.0550220000     1.8676290000
   25      H       6.0277720000     3.2044730000     0.5188760000
   26      H       5.3316970000     1.1026600000    -1.7410560000
   27      H       4.5091290000     2.6856460000    -1.5414270000
   28      H       3.5608550000     1.2051630000    -1.5415540000
 ----------------------------------------------------------------

   18    -728.4333959644      4.65e-09  Convergence criterion met
 Total energy in the final basis set =     -728.7216361186

                    Orbital Energies (a.u.)
 --------------------------------------------------------------

 Alpha MOs
 -- Occupied --
-19.1149 -19.0232 -19.0172 -10.2235 -10.1843 -10.1842 -10.1789 -10.1752
-10.1742 -10.1701 -10.1686 -10.1644 -10.1585 -10.1543 -10.1538 -10.1349
 -1.0273  -0.9388  -0.9332  -0.8445  -0.7913  -0.7660  -0.7428  -0.7145
 -0.6926  -0.6536  -0.6108  -0.6048  -0.5699  -0.5472  -0.5090  -0.4959
 -0.4644  -0.4554  -0.4463  -0.4440  -0.4252  -0.4189  -0.3961  -0.3911
 -0.3899  -0.3846  -0.3735  -0.3652  -0.3595  -0.3567  -0.3438  -0.3336
 -0.3269  -0.3217  -0.3103  -0.2603  -0.2484  -0.2349  -0.2202  -0.2000
 -0.1954  -0.1182

          Ground-State Mulliken Net Atomic Charges

     Atom                 Charge (a.u.)
  ----------------------------------------
      1 C                     0.025063
      2 C                     1.349717
      3 C                     1.644058
      4 C                    -1.863766
      5 C                    -2.000723
      6 C                    -0.158819
      7 C                    -1.402605
      8 C                     0.373877
      9 C                     0.152294
     10 C                    -1.618773
     11 O                    -0.352499
     12 O                    -0.403204
     13 H                     0.086546
     14 H                     0.074137
     15 O                     0.028451
     16 H                     0.397360
     17 H                     0.405013
     18 H                    -0.003274
     19 C                     0.059362
     20 C                     0.709909
     21 C                    -0.471334
     22 H                    -0.024840
     23 H                     0.285662
     24 H                     0.204626
     25 H                     0.179250
     26 H                     0.369383
     27 H                     0.039135
     28 H                    -0.084009
  ----------------------------------------
  Sum of atomic charges =    -2.000000

                    Cartesian Multipole Moments
 -----------------------------------------------------------------
    Charge (ESU x 10^10)
                -9.6064
    Dipole Moment (Debye)
         X      -7.0276      Y     -12.2368      Z      -6.6057
       Tot      15.5808
    Quadrupole Moments (Debye-Ang)
        XX    -133.9802     XY     -21.8251     YY    -156.6526
        XZ      -4.0087     YZ      14.2107     ZZ    -133.5691

 Total job time:  764.71s(wall), 5166.79s(cpu)
        *  Thank you very much for using Q-Chem.  Have a nice day.  *
