 Gaussian 16, Revision A.03,
 Gaussian 16:  ES64L-G16RevA.03 25-Dec-2016

 --------------------------------------
 #P UB3LYP/6-311++G(d,p) nosym opt freq
 --------------------------------------

 -------
 Reduced
 -------
 Symbolic Z-matrix:
 Charge = -2 Multiplicity = 1

 SCF Done:  E(UB3LYP) =  -728.445524998     A.U. after   39 cycles
 Optimization completed.
    -- Stationary point found.
 Normal termination of Gaussian 16 at Mon Jan  8 16:56:26 2024.

 ----------------------------------------------------------------------
 #P Geom=AllCheck Guess=TCheck SCRF=Check GenChk UB3LYP/6-311++G(d,p) F
 req
 ----------------------------------------------------------------------

 Structure from the checkpoint file:  "267-an.chk"
 -------
 Reduced
 -------
 Charge = -2 Multiplicity = 1

                          Input orientation:
 ---------------------------------------------------------------------
 Center     Atomic      Atomic             Coordinates (Angstroms)
 Number     Number       Type             X           Y           Z
 ---------------------------------------------------------------------
      1          6           0       -0.877512    2.347639   -0.971323
      2          6           0       -2.168602    1.854829   -1.037468
      3          6           0       -2.543219    0.755519   -0.224073
      4          6           0        0.099540    1.789611   -0.113566
      5          6           0       -0.285087    0.672752    0.717310
      6          6           0       -1.609748    0.191348    0.628404
      7          6           0        1.444663    2.368135   -0.103701
      8          6           0        2.321569    1.706324    0.807379
      9          6           0        1.948325    0.631042    1.628348
     10          6           0        0.656623    0.040601    1.641985
     11          8           0        1.769249    3.364904   -0.846350
     12          8           0        0.327413   -0.954790    2.389218
     13          1           0       -0.559678    3.188158   -1.581105
     14          1           0       -1.860836   -0.650139    1.267731
     15          8           0        3.625711    2.210888    0.971892
     16          1           0       -2.894264    2.308514   -1.711113
     17          1           0       -3.556835    0.360151   -0.270029
     18          1           0        2.695616    0.215289    2.301230
     19          6           0        4.670522    1.532657    0.283676
     20          6           0        5.981675    2.141776    0.779491
     21          6           0        4.516314    1.636463   -1.235744
     22          1           0        4.645874    0.466677    0.566443
     23          1           0        6.847206    1.641001    0.333249
     24          1           0        6.058236    2.055022    1.867629
     25          1           0        6.027772    3.204473    0.518876
     26          1           0        5.331697    1.102660   -1.741056
     27          1           0        4.509129    2.685646   -1.541427
     28          1           0        3.560855    1.205163   -1.541554
 ---------------------------------------------------------------------

 SCF Done:  E(UB3LYP) =  -728.445524998     A.U. after    3 cycles

 Alpha  occ. eigenvalues --  -18.88228 -18.78047 -18.77828 -10.00198  -9.95396
 Alpha  occ. eigenvalues --   -9.94403  -9.94030  -9.93861  -9.93728  -9.93273
 Alpha  occ. eigenvalues --   -9.93202  -9.92297  -9.92207  -9.90966  -9.90838
 Alpha  occ. eigenvalues --   -9.88923  -0.79484  -0.69509  -0.69158  -0.59980
 Alpha  occ. eigenvalues --   -0.56490  -0.52772  -0.49734  -0.47728  -0.47144
 Alpha  occ. eigenvalues --   -0.41264  -0.37777  -0.36052  -0.33633  -0.30452
 Alpha  occ. eigenvalues --   -0.27475  -0.25530  -0.23589  -0.22636  -0.21820
 Alpha  occ. eigenvalues --   -0.20183  -0.18934  -0.17895  -0.17506  -0.16691
 Alpha  occ. eigenvalues --   -0.15334  -0.14751  -0.14052  -0.13591  -0.12404
 Alpha  occ. eigenvalues --   -0.11668  -0.10607  -0.09457  -0.08260  -0.07705
 Alpha  occ. eigenvalues --   -0.07204  -0.02740  -0.00152   0.01152   0.02391
 Alpha  occ. eigenvalues --    0.04353   0.04603   0.12972
 Alpha virt. eigenvalues --    0.14436   0.15933   0.17099   0.17732   0.18531
 Alpha virt. eigenvalues --    0.18809   0.20336   0.21198   0.21396   0.21878
 Alpha virt. eigenvalues --    0.22168   0.22801   0.23379   0.23505   0.25285

  Beta  occ. eigenvalues --  -18.88228 -18.78047 -18.77828 -10.00198  -9.95396
  Beta  occ. eigenvalues --   -9.94403  -9.94030  -9.93861  -9.93728  -9.93273
  Beta  occ. eigenvalues --   -9.93202  -9.92297  -9.92207  -9.90966  -9.90838
  Beta  occ. eigenvalues --   -9.88923  -0.79484  -0.69509  -0.69158  -0.59980
  Beta  occ. eigenvalues --   -0.56490  -0.52772  -0.49734  -0.47728  -0.47144
  Beta  occ. eigenvalues --   -0.41264  -0.37777  -0.36052  -0.33633  -0.30452
  Beta  occ. eigenvalues --   -0.27475  -0.25530  -0.23589  -0.22636  -0.21820
  Beta  occ. eigenvalues --   -0.20183  -0.18934  -0.17895  -0.17506  -0.16691
  Beta  occ. eigenvalues --   -0.15334  -0.14751  -0.14052  -0.13591  -0.12404
  Beta  occ. eigenvalues --   -0.11668  -0.10607  -0.09457  -0.08260  -0.07705
  Beta  occ. eigenvalues --   -0.07204  -0.02740  -0.00152   0.01152   0.02391
  Beta  occ. eigenvalues --    0.04353   0.04603   0.12972
  Beta virt. eigenvalues --    0.14436   0.15933   0.17099   0.17732   0.18531
  Beta virt. eigenvalues --    0.18809   0.20336   0.21198   0.21396   0.21878
  Beta virt. eigenvalues --    0.22168   0.22801   0.23379   0.23505   0.25285

 Mulliken charges and spin densities:
               1          2
     1  C   -0.000203   0.000000
     2  C   -0.428207   0.000000
     3  C   -0.361665   0.000000
     4  C    0.363057  -0.000000
     5  C    0.765676   0.000000
     6  C    0.027157   0.000000
     7  C   -0.936306   0.000000
     8  C   -0.472140  -0.000000
     9  C    0.963242   0.000000
    10  C   -0.899573   0.000000
    11  O   -0.495991   0.000000
    12  O   -0.529693   0.000000
    13  H    0.137329   0.000000
    14  H    0.126241  -0.000000
    15  O   -0.045203   0.000000
    16  H    0.078971  -0.000000
    17  H    0.077425   0.000000
    18  H    0.072762  -0.000000
    19  C   -0.865087  -0.000000
    20  C    1.323101   0.000000
    21  C   -0.494313  -0.000000
    22  H    0.099025   0.000000
    23  H   -0.528294  -0.000000
    24  H   -0.183481  -0.000000
    25  H   -0.135337  -0.000000
    26  H    0.020633  -0.000000
    27  H    0.194167   0.000000
    28  H    0.126707  -0.000000
 Sum of Mulliken charges =  -2.00000  -0.00000

 Dipole moment (field-independent basis, Debye):
    X=            -16.1444    Y=            -13.3687    Z=             -6.2476  Tot=             21.8723
 Quadrupole moment (field-independent basis, Debye-Ang):
   XX=           -218.5231   YY=           -160.2313   ZZ=           -135.1837
   XY=            -39.5687   XZ=            -10.0382   YZ=             10.7437

  Exact polarizability:1857.082 115.521 416.263  35.597  61.478 477.795
 Approx polarizability:6065.630 478.965 492.757  10.510 -53.820 471.276

                      1                      2                      3
                      A                      A                      A
 Frequencies --     37.9101                49.5207                55.0180
 Red. masses --      2.7483                 4.2511                 4.3955
 Frc consts  --      0.0023                 0.0061                 0.0078
 IR Inten    --      0.6437                 2.0316                 1.8343

                      4                      5                      6
                      A                      A                      A
 Frequencies --    128.8355               137.3487               191.2708
 Red. masses --      6.0574                 4.4082                 1.0916
 Frc consts  --      0.0592                 0.0490                 0.0235
 IR Inten    --      9.0512                 0.8873                 8.4659

                      7                      8                      9
                      A                      A                      A
 Frequencies --    196.0705               228.4918               254.5297
 Red. masses --      5.0649                 1.1399                 3.8887
 Frc consts  --      0.1147                 0.0351                 0.1484
 IR Inten    --      4.2164                 1.9558                 4.2858

                     10                     11                     12
                      A                      A                      A
 Frequencies --    259.2526               273.9834               323.5350
 Red. masses --      4.6441                 4.4858                 4.3669
 Frc consts  --      0.1839                 0.1984                 0.2693
 IR Inten    --     13.6766                13.0552                10.4584

                     13                     14                     15
                      A                      A                      A
 Frequencies --    350.8984               381.4091               401.5330
 Red. masses --      9.6423                 3.1505                 4.8969
 Frc consts  --      0.6995                 0.2700                 0.4652
 IR Inten    --     17.7957               119.8135                21.8228

                     16                     17                     18
                      A                      A                      A
 Frequencies --    440.9113               455.4348               463.6644
 Red. masses --      3.3785                 3.9248                 6.9399
 Frc consts  --      0.3870                 0.4796                 0.8790
 IR Inten    --      3.6225               146.5928               385.1010

                     19                     20                     21
                      A                      A                      A
 Frequencies --    485.3459               522.6129               573.5348
 Red. masses --      4.2840                 4.6821                 5.1435
 Frc consts  --      0.5946                 0.7534                 0.9968
 IR Inten    --     10.2079               107.5720                30.2684

                     22                     23                     24
                      A                      A                      A
 Frequencies --    637.6226               655.5254               672.8781
 Red. masses --      2.9444                 4.3814                 5.8732
 Frc consts  --      0.7053                 1.1093                 1.5668
 IR Inten    --      6.8087                26.7089                 7.6435

                     25                     26                     27
                      A                      A                      A
 Frequencies --    706.2745               726.0614               746.6431
 Red. masses --      2.3320                 4.6950                 2.2455
 Frc consts  --      0.6854                 1.4582                 0.7375
 IR Inten    --     53.1472                33.1776                21.0531

                     28                     29                     30
                      A                      A                      A
 Frequencies --    764.5234               813.4448               815.8487
 Red. masses --      2.7451                 1.7984                 2.5716
 Frc consts  --      0.9454                 0.7011                 1.0085
 IR Inten    --      7.1446                 2.1905                17.8927

                     31                     32                     33
                      A                      A                      A
 Frequencies --    833.0120               838.0351               909.4268
 Red. masses --      3.4091                 2.4083                 2.6641
 Frc consts  --      1.3938                 0.9965                 1.2982
 IR Inten    --     10.4467                 9.1073                 7.6415

                     34                     35                     36
                      A                      A                      A
 Frequencies --    921.0764               939.1298               950.0338
 Red. masses --      1.3322                 1.4138                 1.2555
 Frc consts  --      0.6659                 0.7346                 0.6676
 IR Inten    --      7.4357                 2.9677                 1.1255

                     37                     38                     39
                      A                      A                      A
 Frequencies --    960.6795               992.3095              1018.2371
 Red. masses --      1.3223                 4.6091                 2.1200
 Frc consts  --      0.7190                 2.6740                 1.2950
 IR Inten    --      3.2931                11.6682               533.5324

                     40                     41                     42
                      A                      A                      A
 Frequencies --   1086.4018              1114.3809              1137.0342
 Red. masses --      2.5171                 1.8698                 2.2981
 Frc consts  --      1.7504                 1.3681                 1.7505
 IR Inten    --     22.9593               444.1078               288.1304

                     43                     44                     45
                      A                      A                      A
 Frequencies --   1141.5501              1144.1026              1158.9203
 Red. masses --      1.8539                 2.0794                 2.1504
 Frc consts  --      1.4234                 1.6037                 1.7017
 IR Inten    --     55.5928               140.0378                41.3639

                     46                     47                     48
                      A                      A                      A
 Frequencies --   1181.5396              1207.3038              1220.2921
 Red. masses --      1.9503                 2.3214                 2.0749
 Frc consts  --      1.6042                 1.9936                 1.8204
 IR Inten    --     22.1702               154.3404                84.9987

                     49                     50                     51
                      A                      A                      A
 Frequencies --   1263.4089              1328.5820              1350.9869
 Red. masses --      2.0249                 5.2762                 1.4847
 Frc consts  --      1.9044                 5.4872                 1.5966
 IR Inten    --    239.4799               676.8762                10.3377

                     52                     53                     54
                      A                      A                      A
 Frequencies --   1366.2170              1379.4422              1386.9094
 Red. masses --      1.3008                 1.5313                 3.6321
 Frc consts  --      1.4305                 1.7168                 4.1163
 IR Inten    --    193.7911               786.8334                62.8140

                     55                     56                     57
                      A                      A                      A
 Frequencies --   1395.7453              1403.8162              1422.8949
 Red. masses --      1.3059                 4.9464                 2.9080
 Frc consts  --      1.4989                 5.7433                 3.4689
 IR Inten    --    332.9540               591.8250               774.1167

                     58                     59                     60
                      A                      A                      A
 Frequencies --   1450.2068              1461.0694              1467.3844
 Red. masses --      3.0149                 1.0651                 1.0968
 Frc consts  --      3.7358                 1.3396                 1.3915
 IR Inten    --    191.5487                52.4198               116.6039

                     61                     62                     63
                      A                      A                      A
 Frequencies --   1481.2228              1491.0786              1501.6310
 Red. masses --      1.0774                 2.1637                 1.3130
 Frc consts  --      1.3928                 2.8343                 1.7444
 IR Inten    --     33.7656              1074.2093                46.4074

                     64                     65                     66
                      A                      A                      A
 Frequencies --   1518.3800              1572.5680              1588.1166
 Red. masses --      4.9377                 6.6560                 5.5508
 Frc consts  --      6.7071                 9.6980                 8.2484
 IR Inten    --    372.6820              3076.6047               195.1400

                     67                     68                     69
                      A                      A                      A
 Frequencies --   2929.4821              2993.8128              3003.7203
 Red. masses --      1.0819                 1.0450                 1.0361
 Frc consts  --      5.4702                 5.5183                 5.5076
 IR Inten    --     38.2127                11.9398               160.2155

                     70                     71                     72
                      A                      A                      A
 Frequencies --   3065.7105              3071.4134              3078.7765
 Red. masses --      1.1001                 1.0999                 1.0902
 Frc consts  --      6.0920                 6.1133                 6.0883
 IR Inten    --     71.0279                24.6876                62.5613

                     73                     74                     75
                      A                      A                      A
 Frequencies --   3087.9365              3105.3763              3112.0502
 Red. masses --      1.0824                 1.1016                 1.0906
 Frc consts  --      6.0811                 6.2589                 6.2233
 IR Inten    --     35.8620                 8.8199               313.0708

                     76                     77                     78
                      A                      A                      A
 Frequencies --   3123.0813              3152.3943              3156.1248
 Red. masses --      1.0876                 1.0903                 1.0910
 Frc consts  --      6.2503                 6.3840                 6.4030
 IR Inten    --    115.0376                77.4767               173.6841

 - Thermochemistry -
 -------------------
 Temperature   298.150 Kelvin.  Pressure   1.00000 Atm.
 Atom     1 has atomic number  6 and mass  12.00000

 Molecular mass:   216.07864 amu.
 Principal axes and moments of inertia in atomic units:
                           1         2         3
     Eigenvalues --  1742.359845165.973546512.28452
           X            0.98492   0.09987  -0.14127
           Y            0.17105  -0.68468   0.70849
           Z            0.02597   0.72197   0.69143
 This molecule is an asymmetric top.
 Rotational symmetry number  1.
 Warning -- assumption of classical behavior for rotation
           may cause significant error
 Rotational temperatures (Kelvin)      0.04971     0.01677     0.01330
 Rotational constants (GHZ):           1.03580     0.34935     0.27713
 Zero-point vibrational energy     563518.5 (Joules/Mol)
                                  134.68416 (Kcal/Mol)
 Warning -- explicit consideration of  21 degrees of freedom as
           vibrations may cause significant error
 Vibrational temperatures:     54.54    71.25    79.16   185.37   197.61
          (Kelvin)            275.20   282.10   328.75   366.21   373.01
                              394.20   465.49   504.86   548.76   577.72
                              634.37   655.27   667.11   698.30   751.92
                              825.19   917.40   943.15   968.12  1016.17
                             1044.64  1074.25  1099.98  1170.37  1173.82
                             1198.52  1205.75  1308.46  1325.22  1351.20
                             1366.89  1382.20  1427.71  1465.02  1563.09
                             1603.35  1635.94  1642.44  1646.11  1667.43
                             1699.97  1737.04  1755.73  1817.76  1911.53
                             1943.77  1965.68  1984.71  1995.45  2008.17
                             2019.78  2047.23  2086.52  2102.15  2111.24
                             2131.15  2145.33  2160.51  2184.61  2262.57
                             2284.95  4214.87  4307.43  4321.68  4410.87
                             4419.08  4429.67  4442.85  4467.94  4477.55
                             4493.42  4535.59  4540.96

 Zero-point correction=                           0.214633 (Hartree/Particle)
 Thermal correction to Energy=                    0.228882
 Thermal correction to Enthalpy=                  0.229826
 Thermal correction to Gibbs Free Energy=         0.173117
 Sum of electronic and zero-point Energies=           -728.230892
 Sum of electronic and thermal Energies=              -728.216643
 Sum of electronic and thermal Enthalpies=            -728.215699
 Sum of electronic and thermal Free Energies=         -728.272408

                     E (Thermal)             CV                S
                      KCal/Mol        Cal/Mol-Kelvin    Cal/Mol-Kelvin
 Total                  143.625             55.416            119.355
 Electronic               0.000              0.000              0.000
 Translational            0.889              2.981             42.015
 Rotational               0.889              2.981             32.439
 Vibrational            141.848             49.455             44.901
 Vibration     1          0.594              1.982              5.365
 Vibration     2          0.595              1.978              4.836
 Vibration     3          0.596              1.976              4.628
 Vibration     4          0.611              1.924              2.963
 Vibration     5          0.614              1.916              2.840
 Vibration     6          0.634              1.852              2.215
 Vibration     7          0.636              1.845              2.170
 Vibration     8          0.651              1.798              1.891
 Vibration     9          0.665              1.755              1.699
 Vibration    10          0.668              1.747              1.667
 Vibration    11          0.676              1.721              1.571
 Vibration    12          0.708              1.628              1.292
 Vibration    13          0.728              1.573              1.162
 Vibration    14          0.751              1.510              1.034
 Vibration    15          0.767              1.467              0.957
 Vibration    16          0.801              1.381              0.824
 Vibration    17          0.814              1.349              0.780
 Vibration    18          0.821              1.331              0.756
 Vibration    19          0.841              1.283              0.696
 Vibration    20          0.878              1.200              0.604
 Vibration    21          0.930              1.088              0.497

 Optimization completed.
    -- Stationary point found.
 Normal termination of Gaussian 16 at Mon Jan  8 17:27:12 2024.
