 Q-Chem 5.4, Q-Chem, Inc., Pleasanton, CA (2021)
 Q-Chem 5.4.0 for Intel X86 EM64T Linux

User input:
--------------------------------------------------------------
$molecule
-1 2
C                 -6.7555630000      5.7399680000      0.9651510000
C                 -7.8565690000      4.9815480000      0.6131010000
C                 -7.7297990000      3.9564790000     -0.3461820000
C                 -6.4998720000      3.7106880000     -0.9349080000
C                 -5.3650440000      4.4674530000     -0.5947510000
C                 -5.4952390000      5.5031950000      0.3746290000
C                 -4.3430340000      6.2978950000      0.7437570000
C                 -3.0969040000      5.9805230000      0.0852590000
C                 -2.9375300000      4.9912540000     -0.8620050000
C                 -4.0693950000      4.1746150000     -1.2441620000
O                 -4.3471320000      7.2455750000      1.5967320000
O                 -3.9657200000      3.2526460000     -2.0950740000
C                 -1.6010170000      4.7203960000     -1.5029850000
C                 -0.8036110000      3.6070710000     -0.7965920000
C                  0.5407010000      3.3092670000     -1.4693930000
C                  1.3435830000      2.2026800000     -0.7758180000
C                  2.6889350000      1.8991940000     -1.4455110000
C                  3.4876630000      0.7913660000     -0.7490500000
C                  4.8330630000      0.4851830000     -1.4170040000
C                  5.6256480000     -0.6238570000     -0.7149710000
C                  6.9725570000     -0.9286820000     -1.3853330000
C                  7.7404240000     -2.0352270000     -0.6640790000
S                  9.3523880000     -2.3586860000     -1.5159270000
C                 10.0185860000     -3.6647870000     -0.4766690000
C                  9.7495100000     -5.0072600000     -0.7599530000
C                 10.8473260000     -3.3582400000      0.6066820000
C                 11.3813060000     -4.3743990000      1.3960360000
C                 11.1074640000     -5.7197230000      1.1279840000
C                 10.2866840000     -6.0172420000      0.0348000000
C                 11.6611520000     -6.8161350000      2.0056070000
H                 -6.8280530000      6.5337130000      1.7001550000
H                 -8.8202670000      5.1748670000      1.0755610000
H                 -8.5951840000      3.3612900000     -0.6222160000
H                 -6.3732220000      2.9283720000     -1.6747590000
O                 -2.0554910000      6.7672820000      0.4851450000
H                 -1.0049060000      5.6387490000     -1.5097730000
H                 -1.7751050000      4.4151730000     -2.5398580000
H                 -1.4159790000      2.6991860000     -0.7816310000
H                 -0.6342000000      3.8962390000      0.2476170000
H                  1.1437020000      4.2272970000     -1.4995990000
H                  0.3642460000      3.0254130000     -2.5154920000
H                  0.7401170000      1.2861130000     -0.7458220000
H                  1.5172960000      2.4852770000      0.2709600000
H                  3.2930960000      2.8157080000     -1.4756410000
H                  2.5157100000      1.6160770000     -2.4921620000
H                  2.8828690000     -0.1243930000     -0.7187650000
H                  3.6603140000      1.0745760000      0.2975930000
H                  5.4395640000      1.3996540000     -1.4465860000
H                  4.6617400000      0.2003510000     -2.4631380000
H                  5.0195140000     -1.5382570000     -0.6864100000
H                  5.7973100000     -0.3385170000      0.3307460000
H                  7.5825150000     -0.0184910000     -1.4109530000
H                  6.8040770000     -1.2213500000     -2.4279700000
H                  7.1671500000     -2.9649950000     -0.6567270000
H                  7.9531380000     -1.7511310000      0.3689830000
H                  9.1242450000     -5.2570790000     -1.6092900000
H                 11.0772840000     -2.3216240000      0.8240500000
H                 12.0253120000     -4.1156050000      2.2309200000
H                 10.0680370000     -7.0536430000     -0.2036060000
H                 12.6135950000     -6.5249100000      2.4547610000
H                 11.8196250000     -7.7377800000      1.4405620000
H                 10.9708260000     -7.0488530000      2.8240810000
H                 -2.4894460000      7.3587630000      1.1394460000
$end
$rem
MAX_SCF_CYCLES=200
BASIS  =  6-311++G(d,p)
GUI  =  2
JOB_TYPE  =  SP
METHOD  =  B3LYP
THRESH = 14
SCF_CONVERGENCE  = 6
SOLVENT_METHOD = COSMO
$end
$solvent
dielectric 37.219
opticaldielectric 1.43
$end

--------------------------------------------------------------

             Standard Nuclear Orientation (Angstroms)
    I     Atom           X                Y                Z
 ----------------------------------------------------------------
    1      C       9.8728107582     1.1058484504     1.2051657208
    2      C      10.4117307030     2.2183024945     0.5860004733
    3      C       9.7727698957     2.7789332801    -0.5384919325
    4      C       8.6038813053     2.2130329843    -1.0213876382
    5      C       8.0354677443     1.0817901563    -0.4102981790
    6      C       8.6828688600     0.5164314553     0.7257701057
    7      C       8.1194148206    -0.6484270336     1.3746184537
    8      C       6.8996890239    -1.1796046546     0.8113211120
    9      C       6.2517885979    -0.6625666293    -0.2906131103
   10      C       6.7865187043     0.5069356820    -0.9542317240
   11      O       8.6143706852    -1.2327794235     2.3940455002
   12      O       6.2204978191     1.0192400603    -1.9552268067
   13      C       4.9796293792    -1.2746816622    -0.8173127633
   14      C       3.7082471053    -0.6037366198    -0.2625517170
   15      C       2.4155604318    -1.2049331733    -0.8247323193
   16      C       1.1432025015    -0.5453190075    -0.2804759231
   17      C      -0.1533939671    -1.1416450167    -0.8406521084
   18      C      -1.4229048521    -0.4782030135    -0.2943060263
   19      C      -2.7209810533    -1.0719270058    -0.8533245702
   20      C      -3.9859656643    -0.4030391675    -0.3024942600
   21      C      -5.2845845895    -0.9992153027    -0.8634133709
   22      C      -6.5274384109    -0.3152372857    -0.2961767799
   23      S      -8.0593253707    -1.0742728261    -1.0074334621
   24      C      -9.3240995075    -0.1000472016    -0.1822016139
   25      C      -9.8006435729     1.0819623802    -0.7572186366
   26      C      -9.8770395817    -0.5310303600     1.0273194614
   27      C     -10.8741752772     0.2144409600     1.6524485737
   28      C     -11.3483206073     1.4047609630     1.0911443095
   29      C     -10.7972879632     1.8219289594    -0.1252365969
   30      C     -12.4053715746     2.2266383931     1.7883333424
   31      H      10.3458430923     0.6567166160     2.0712129548
   32      H      11.3279771596     2.6613730118     0.9656533015
   33      H      10.1968395009     3.6527076954    -1.0243099584
   34      H       8.0909069544     2.6237157187    -1.8837304097
   35      O       6.4258815379    -2.2737672355     1.4759670978
   36      H       4.9574800822    -2.3416125753    -0.5724975897
   37      H       4.9766127319    -1.1713170293    -1.9072118330
   38      H       3.7496495360     0.4648031110    -0.4991574114
   39      H       3.7067006302    -0.6897486873     0.8307415591
   40      H       2.3876132476    -2.2805293645    -0.6019914885
   41      H       2.4259120032    -1.1201151653    -1.9195982146
   42      H       1.1723182375     0.5292603820    -0.5031807683
   43      H       1.1345112034    -0.6275305943     0.8144885368
   44      H      -0.1831268415    -2.2165694362    -0.6180095889
   45      H      -0.1453927103    -1.0592262221    -1.9355418628
   46      H      -1.3922375498     0.5964596615    -0.5167181694
   47      H      -1.4303693100    -0.5604047750     0.8005295749
   48      H      -2.7537846219    -2.1462438090    -0.6302929588
   49      H      -2.7155051010    -0.9889529494    -1.9478393049
   50      H      -3.9534266005     0.6707952761    -0.5264637080
   51      H      -3.9914577365    -0.4867031684     0.7917547857
   52      H      -5.3226204559    -2.0708679251    -0.6369917899
   53      H      -5.2856898748    -0.9104313709    -1.9557723660
   54      H      -6.5307165455     0.7494857754    -0.5401434206
   55      H      -6.5683427679    -0.4219287518     0.7901558779
   56      H      -9.3929285578     1.4150856152    -1.7046027031
   57      H      -9.5279033101    -1.4554854357     1.4725036228
   58      H     -11.2929407784    -0.1390689036     2.5896868504
   59      H     -11.1557176040     2.7355443488    -0.5895706116
   60      H     -13.0653625907     1.5988085437     2.3916081750
   61      H     -13.0205418010     2.7761597652     1.0718063688
   62      H     -11.9494800806     2.9625246196     2.4600786437
   63      H       7.1001467980    -2.3882441191     2.1820392727
 ----------------------------------------------------------------

   14   -1672.4879740959      9.52e-07  Convergence criterion met
 Total energy in the final basis set =    -1672.4879740959
    6   -1672.5749680500      7.50e-07  Convergence criterion met
 Total energy in the final basis set =    -1672.5749680500

                    Orbital Energies (a.u.)
 --------------------------------------------------------------

 Alpha MOs
 -- Occupied --
-88.8433 -19.1446 -19.0889 -19.0771 -10.2255 -10.2235 -10.2226 -10.2051
-10.1945 -10.1902 -10.1817 -10.1816 -10.1767 -10.1767 -10.1757 -10.1735
-10.1721 -10.1712 -10.1709 -10.1695 -10.1679 -10.1644 -10.1635 -10.1613
-10.1576 -10.1567 -10.1559 -10.1551 -10.1546 -10.1543 -10.1540  -7.9295
 -5.8933  -5.8900  -5.8831  -1.0646  -1.0027  -0.9989  -0.8714  -0.8592
 -0.8180  -0.8138  -0.8026  -0.7901  -0.7743  -0.7560  -0.7537  -0.7512
 -0.7363  -0.7150  -0.6926  -0.6747  -0.6590  -0.6353  -0.6180  -0.6154
 -0.6059  -0.5879  -0.5778  -0.5760  -0.5708  -0.5694  -0.5663  -0.5374
 -0.5053  -0.4970  -0.4858  -0.4840  -0.4751  -0.4705  -0.4608  -0.4560
 -0.4529  -0.4464  -0.4386  -0.4298  -0.4268  -0.4259  -0.4245  -0.4231
 -0.4206  -0.4195  -0.4119  -0.4038  -0.4006  -0.3911  -0.3898  -0.3885
 -0.3857  -0.3796  -0.3777  -0.3702  -0.3657  -0.3589  -0.3578  -0.3503
 -0.3464  -0.3454  -0.3414  -0.3388  -0.3352  -0.3330  -0.3261  -0.3230
 -0.3204  -0.3186  -0.3166  -0.3145  -0.2996  -0.2689  -0.2641  -0.2631
 -0.2587  -0.2495  -0.2423  -0.2353  -0.2285  -0.1534

 Beta MOs
 -- Occupied --
-88.8433 -19.1441 -19.0828 -19.0718 -10.2241 -10.2217 -10.2204 -10.2051
-10.1945 -10.1902 -10.1817 -10.1816 -10.1767 -10.1767 -10.1756 -10.1724
-10.1721 -10.1704 -10.1703 -10.1696 -10.1679 -10.1644 -10.1627 -10.1613
-10.1576 -10.1568 -10.1559 -10.1551 -10.1545 -10.1543 -10.1540  -7.9295
 -5.8933  -5.8900  -5.8831  -1.0624  -0.9935  -0.9886  -0.8714  -0.8568
 -0.8179  -0.8116  -0.8019  -0.7894  -0.7733  -0.7549  -0.7537  -0.7491
 -0.7357  -0.7144  -0.6910  -0.6702  -0.6556  -0.6345  -0.6164  -0.6154
 -0.6045  -0.5869  -0.5776  -0.5756  -0.5699  -0.5688  -0.5651  -0.5356
 -0.5029  -0.4970  -0.4852  -0.4821  -0.4749  -0.4700  -0.4597  -0.4559
 -0.4520  -0.4460  -0.4307  -0.4282  -0.4259  -0.4256  -0.4236  -0.4221
 -0.4187  -0.4156  -0.4102  -0.4017  -0.3980  -0.3904  -0.3883  -0.3852
 -0.3794  -0.3784  -0.3757  -0.3654  -0.3643  -0.3586  -0.3506  -0.3490
 -0.3464  -0.3407  -0.3375  -0.3352  -0.3320  -0.3297  -0.3258  -0.3225
 -0.3204  -0.3185  -0.3165  -0.3143  -0.2989  -0.2641  -0.2577  -0.2518
 -0.2495  -0.2494  -0.2374  -0.2353  -0.2200

          Ground-State Mulliken Net Atomic Charges

     Atom                 Charge (a.u.)    Spin (a.u.)
  --------------------------------------------------------
      1 C                     0.062605       0.076758
      2 C                    -0.408697      -0.001693
      3 C                    -0.446811       0.072697
      4 C                     0.098960       0.004570
      5 C                     0.015364       0.060794
      6 C                     0.281814      -0.010093
      7 C                    -0.760301       0.178946
      8 C                    -0.596584       0.056379
      9 C                     1.806905       0.049216
     10 C                    -0.717047       0.082002
     11 O                    -0.555426       0.222266
     12 O                    -0.482134       0.193183
     13 C                    -0.299664       0.012066
     14 C                    -0.625628      -0.002821
     15 C                    -0.176813       0.002548
     16 C                    -0.183020      -0.001643
     17 C                    -0.300467      -0.000409
     18 C                    -0.385924      -0.000044
     19 C                    -0.230182       0.000132
     20 C                    -0.299011      -0.000013
     21 C                    -0.098622      -0.000000
     22 C                    -0.842451       0.000008
     23 S                    -0.223453       0.000001
     24 C                     1.295071      -0.000019
     25 C                    -0.525477       0.000020
     26 C                    -0.545131       0.000019
     27 C                    -0.480498      -0.000022
     28 C                     0.540103       0.000024
     29 C                    -0.468531      -0.000022
     30 C                    -0.668480      -0.000005
     31 H                     0.182114      -0.004047
     32 H                     0.203965      -0.000645
     33 H                     0.200173      -0.005094
     34 H                     0.177803      -0.000306
     35 O                    -0.302295       0.016224
     36 H                     0.217476      -0.000575
     37 H                     0.200966       0.002442
     38 H                     0.179665      -0.001502
     39 H                     0.171297       0.001968
     40 H                     0.116390      -0.000324
     41 H                     0.119278       0.000516
     42 H                     0.130266      -0.000057
     43 H                     0.130186      -0.000013
     44 H                     0.137903      -0.000011
     45 H                     0.138321       0.000003
     46 H                     0.136930       0.000004
     47 H                     0.136762      -0.000005
     48 H                     0.135826      -0.000011
     49 H                     0.135750       0.000004
     50 H                     0.138041      -0.000002
     51 H                     0.138148       0.000001
     52 H                     0.138900       0.000003
     53 H                     0.139605      -0.000002
     54 H                     0.219452      -0.000001
     55 H                     0.221165       0.000001
     56 H                     0.220560      -0.000002
     57 H                     0.221201      -0.000002
     58 H                     0.209136       0.000002
     59 H                     0.210031       0.000002
     60 H                     0.161673       0.000001
     61 H                     0.161400       0.000001
     62 H                     0.182676       0.000001
     63 H                     0.308768      -0.003420
  --------------------------------------------------------
  Sum of atomic charges =    -1.000000

                    Cartesian Multipole Moments
 -----------------------------------------------------------------
    Charge (ESU x 10^10)
                -4.8032
    Dipole Moment (Debye)
         X     -34.3873      Y       3.3361      Z       1.3643
       Tot      34.5757
    Quadrupole Moments (Debye-Ang)
        XX    -450.1943     XY     -10.0344     YY    -205.1681
        XZ     -36.1112     YZ       5.8422     ZZ    -219.3936

 Total job time:  868.61s(wall), 6473.62s(cpu)
        *  Thank you very much for using Q-Chem.  Have a nice day.  *
