 Gaussian 16, Revision A.03,
 Gaussian 16:  ES64L-G16RevA.03 25-Dec-2016

 --------------------------------------
 #P UB3LYP/6-311++G(d,p) nosym opt freq
 --------------------------------------

 -------
 Radical
 -------
 Symbolic Z-matrix:
 Charge = -1 Multiplicity = 2

 SCF Done:  E(UB3LYP) =  -5639.50441409     A.U. after   20 cycles
 SCF Done:  E(UB3LYP) =  -5639.50442088     A.U. after   12 cycles
 SCF Done:  E(UB3LYP) =  -5639.49866982     A.U. after   19 cycles
 SCF Done:  E(UB3LYP) =  -5639.50463396     A.U. after   16 cycles
 SCF Done:  E(UB3LYP) =  -5639.50601217     A.U. after   17 cycles
 SCF Done:  E(UB3LYP) =  -5639.48382453     A.U. after   19 cycles
 SCF Done:  E(UB3LYP) =  -5639.50628735     A.U. after   15 cycles
 SCF Done:  E(UB3LYP) =  -5639.50636661     A.U. after   15 cycles
 SCF Done:  E(UB3LYP) =  -5639.50638020     A.U. after   14 cycles
 SCF Done:  E(UB3LYP) =  -5639.50638177     A.U. after   13 cycles
 SCF Done:  E(UB3LYP) =  -5639.50638331     A.U. after   12 cycles
 Optimization completed.
    -- Stationary point found.
 Normal termination of Gaussian 16 at Fri Feb  2 17:22:39 2024.

 ----------------------------------------------------------------------
 #P Geom=AllCheck Guess=TCheck SCRF=Check GenChk UB3LYP/6-311++G(d,p) F
 req
 ----------------------------------------------------------------------

 Structure from the checkpoint file:  "024-rad.chk"
 -------
 Radical
 -------
 Charge = -1 Multiplicity = 2

                          Input orientation:
 ---------------------------------------------------------------------
 Center     Atomic      Atomic             Coordinates (Angstroms)
 Number     Number       Type             X           Y           Z
 ---------------------------------------------------------------------
      1          6           0       -1.674432    0.816530    1.635563
      2          6           0       -2.857324    1.118103    0.807126
      3          6           0       -2.806492    1.007107   -0.566233
      4          6           0       -1.635828    0.631798   -1.300418
      5          6           0       -0.452807    0.330411   -0.471978
      6          6           0       -0.503667    0.441464    0.901398
      7          8           0       -1.540924    0.558385   -2.553779
      8          8           0       -1.769318    0.889699    2.888939
      9         35           0        1.087952    0.065712    1.936264
     10         35           0       -4.398104    1.382567   -1.601130
     11          7           0        0.649041   -0.087495   -1.191751
     12          7           0       -3.959396    1.536536    1.526917
     13          1           0        0.548260    0.118608   -2.179206
     14          1           0        1.552681    0.076557   -0.774916
     15          1           0       -3.858104    1.329237    2.514166
     16          1           0       -4.862806    1.368671    1.110868
 ---------------------------------------------------------------------

 SCF Done:  E(UB3LYP) =  -5639.50638331     A.U. after    1 cycles

 Alpha  occ. eigenvalues -- -482.70290-482.70288 -62.35566 -62.35563 -56.17578
 Alpha  occ. eigenvalues --  -56.17576 -56.17229 -56.17227 -56.17213 -56.17211
 Alpha  occ. eigenvalues --  -18.95062 -18.95060 -14.20134 -14.20126 -10.10491
 Alpha  occ. eigenvalues --  -10.10489 -10.09381 -10.09374 -10.08216 -10.08214
 Alpha  occ. eigenvalues --   -8.56526  -8.56523  -6.39590  -6.39588  -6.38424
 Alpha  occ. eigenvalues --   -6.38421  -6.38381  -6.38379  -2.50697  -2.50695
 Alpha  occ. eigenvalues --   -2.50367  -2.50365  -2.50336  -2.50333  -2.49408
 Alpha  occ. eigenvalues --   -2.49406  -2.49406  -2.49404  -0.88295  -0.87864
 Alpha  occ. eigenvalues --   -0.79874  -0.79808  -0.70537  -0.68144  -0.64498
 Alpha  occ. eigenvalues --   -0.57786  -0.55347  -0.47380  -0.46102  -0.43374
 Alpha  occ. eigenvalues --   -0.37035  -0.36949  -0.36331  -0.32303  -0.30710
 Alpha  occ. eigenvalues --   -0.28692  -0.28254  -0.27721  -0.26110  -0.24293
 Alpha  occ. eigenvalues --   -0.23404  -0.20013  -0.18359  -0.17580  -0.16850
 Alpha  occ. eigenvalues --   -0.16762  -0.12619  -0.12300  -0.11934  -0.08456
 Alpha  occ. eigenvalues --   -0.02508
 Alpha virt. eigenvalues --    0.08634   0.09293   0.10426   0.10900   0.12953
 Alpha virt. eigenvalues --    0.13201   0.13321   0.13859   0.14361   0.15038
 Alpha virt. eigenvalues --    0.15643   0.15657   0.15993   0.16878   0.17215

  Beta  occ. eigenvalues -- -482.70291-482.70288 -62.35566 -62.35564 -56.17579
  Beta  occ. eigenvalues --  -56.17576 -56.17230 -56.17228 -56.17214 -56.17212
  Beta  occ. eigenvalues --  -18.94469 -18.94467 -14.20018 -14.20011 -10.10313
  Beta  occ. eigenvalues --  -10.10312 -10.09133 -10.09126 -10.08281 -10.08279
  Beta  occ. eigenvalues --   -8.56527  -8.56524  -6.39591  -6.39589  -6.38425
  Beta  occ. eigenvalues --   -6.38423  -6.38382  -6.38379  -2.50698  -2.50696
  Beta  occ. eigenvalues --   -2.50368  -2.50366  -2.50337  -2.50334  -2.49409
  Beta  occ. eigenvalues --   -2.49407  -2.49407  -2.49405  -0.87336  -0.86854
  Beta  occ. eigenvalues --   -0.79478  -0.79445  -0.70279  -0.68103  -0.64234
  Beta  occ. eigenvalues --   -0.57476  -0.54450  -0.47038  -0.45740  -0.43226
  Beta  occ. eigenvalues --   -0.36807  -0.36776  -0.36002  -0.32073  -0.29318
  Beta  occ. eigenvalues --   -0.28334  -0.27821  -0.27339  -0.24276  -0.23567
  Beta  occ. eigenvalues --   -0.22846  -0.18167  -0.18018  -0.17016  -0.16833
  Beta  occ. eigenvalues --   -0.16506  -0.12052  -0.11375  -0.10369  -0.07852
  Beta virt. eigenvalues --    0.04383   0.08660   0.09297   0.10446   0.10904
  Beta virt. eigenvalues --    0.13187   0.13344   0.13865   0.13936   0.14868
  Beta virt. eigenvalues --    0.15053   0.15660   0.15670   0.16888   0.17221

 Mulliken charges and spin densities:
               1          2
     1  C   -0.754602   0.112480
     2  C   -1.039180   0.157293
     3  C    1.673119  -0.040777
     4  C   -0.755643   0.112576
     5  C   -1.043363   0.156830
     6  C    1.677642  -0.040676
     7  O   -0.394549   0.216765
     8  O   -0.394480   0.216662
     9  Br  -0.218488  -0.000997
    10  Br  -0.218424  -0.000989
    11  N   -0.241069   0.057240
    12  N   -0.241179   0.057045
    13  H    0.259653  -0.002301
    14  H    0.215493   0.000547
    15  H    0.259643  -0.002287
    16  H    0.215427   0.000588
 Sum of Mulliken charges =  -1.00000   1.00000

 Dipole moment (field-independent basis, Debye):
    X=              7.9551    Y=             -3.4854    Z=             -0.8077  Tot=              8.7227
 Quadrupole moment (field-independent basis, Debye-Ang):
   XX=           -116.0913   YY=           -106.5065   ZZ=           -132.0167
   XY=             11.1091   XZ=            -10.2108   YZ=             -1.7891

  Exact polarizability: 189.041 -28.285  93.561  13.884   2.512 193.800
 Approx polarizability: 260.830 -37.680 142.940  -2.109  14.935 349.618

                      1                      2                      3
                      A                      A                      A
 Frequencies --     59.1956               114.7982               133.1855
 Red. masses --     16.8181                 6.8996                 8.1415
 Frc consts  --      0.0347                 0.0536                 0.0851
 IR Inten    --      1.5421                10.3171                 0.0001

                      4                      5                      6
                      A                      A                      A
 Frequencies --    147.3411               184.4554               185.9523
 Red. masses --     16.5864                 6.8578                11.6629
 Frc consts  --      0.2122                 0.1375                 0.2376
 IR Inten    --      2.4720                 4.4313                 0.0000

                      7                      8                      9
                      A                      A                      A
 Frequencies --    198.5046               271.2986               290.8945
 Red. masses --     21.8587                 6.6968                 9.3512
 Frc consts  --      0.5075                 0.2904                 0.4662
 IR Inten    --      0.0000                 3.3470                 0.0000

                     10                     11                     12
                      A                      A                      A
 Frequencies --    354.1962               359.4456               383.1142
 Red. masses --      3.3895                 3.4279                 2.4134
 Frc consts  --      0.2505                 0.2609                 0.2087
 IR Inten    --      0.0002                25.3304                 0.0652

                     13                     14                     15
                      A                      A                      A
 Frequencies --    414.6521               426.8764               465.4343
 Red. masses --      1.4587                 8.1688                 1.7800
 Frc consts  --      0.1478                 0.8770                 0.2272
 IR Inten    --    141.0133                 0.0003                 0.0216

                     16                     17                     18
                      A                      A                      A
 Frequencies --    477.9732               529.4800               546.1803
 Red. masses --      4.0865                10.1140                 4.3301
 Frc consts  --      0.5501                 1.6706                 0.7611
 IR Inten    --     78.4655                 0.0000                18.5057

                     19                     20                     21
                      A                      A                      A
 Frequencies --    607.9734               612.6632               719.9802
 Red. masses --      1.4818                 1.3291                11.9499
 Frc consts  --      0.3227                 0.2939                 3.6497
 IR Inten    --    327.0241                76.6106                 6.0010

                     22                     23                     24
                      A                      A                      A
 Frequencies --    723.3113               725.0686               763.7839
 Red. masses --      4.3214                11.2318                 5.4589
 Frc consts  --      1.3321                 3.4790                 1.8763
 IR Inten    --      0.0082                 0.0038               172.6224

                     25                     26                     27
                      A                      A                      A
 Frequencies --    833.5410               961.2372              1123.8746
 Red. masses --     10.1440                 3.7411                 2.7476
 Frc consts  --      4.1525                 2.0366                 2.0448
 IR Inten    --      0.0002                24.7639                74.4136

                     28                     29                     30
                      A                      A                      A
 Frequencies --   1153.8566              1189.7710              1235.1056
 Red. masses --      1.6568                11.2046                 6.2961
 Frc consts  --      1.2996                 9.3449                 5.6589
 IR Inten    --      0.0029                27.0637                 0.0000

                     31                     32                     33
                      A                      A                      A
 Frequencies --   1325.1624              1398.7861              1512.7988
 Red. masses --      2.4948                 4.2400                 3.0974
 Frc consts  --      2.5813                 4.8879                 4.1764
 IR Inten    --     69.9960                 0.0003               252.0418

                     34                     35                     36
                      A                      A                      A
 Frequencies --   1541.9068              1543.0319              1565.1447
 Red. masses --     10.1758                 8.1924                 1.6555
 Frc consts  --     14.2539                11.4925                 2.3893
 IR Inten    --    790.4368                 6.6417                 0.0016

                     37                     38                     39
                      A                      A                      A
 Frequencies --   1600.7573              1629.5930              3516.9171
 Red. masses --      1.5619                 3.3487                 1.0473
 Frc consts  --      2.3581                 5.2394                 7.6321
 IR Inten    --    101.8852                 0.0019                10.5464

                     40                     41                     42
                      A                      A                      A
 Frequencies --   3518.1298              3652.5982              3654.0843
 Red. masses --      1.0472                 1.0981                 1.0982
 Frc consts  --      7.6370                 8.6316                 8.6393
 IR Inten    --     25.7936                32.8257                30.4755

 - Thermochemistry -
 -------------------
 Temperature   298.150 Kelvin.  Pressure   1.00000 Atm.
 Atom     1 has atomic number  6 and mass  12.00000

 Molecular mass:   293.86395 amu.
 Principal axes and moments of inertia in atomic units:
                           1         2         3
     Eigenvalues --  1639.637806927.908808564.41069
           X            0.82536  -0.49509   0.27141
           Y           -0.20019   0.19286   0.96059
           Z            0.52792   0.84717  -0.06006
 This molecule is an asymmetric top.
 Rotational symmetry number  1.
 Warning -- assumption of classical behavior for rotation
           may cause significant error
 Rotational temperatures (Kelvin)      0.05283     0.01250     0.01011
 Rotational constants (GHZ):           1.10070     0.26050     0.21073
 Zero-point vibrational energy     255115.9 (Joules/Mol)
                                   60.97417 (Kcal/Mol)
 Warning -- explicit consideration of  20 degrees of freedom as
           vibrations may cause significant error
 Vibrational temperatures:     85.17   165.17   191.62   211.99   265.39
          (Kelvin)            267.54   285.60   390.34   418.53   509.61
                              517.16   551.22   596.59   614.18   669.66
                              687.70   761.80   785.83   874.74   881.49
                             1035.89  1040.68  1043.21  1098.91  1199.28
                             1383.01  1617.00  1660.14  1711.82  1777.04
                             1906.61  2012.54  2176.58  2218.46  2220.08
                             2251.89  2303.13  2344.62  5060.06  5061.80
                             5255.27  5257.41

 Zero-point correction=                           0.097169 (Hartree/Particle)
 Thermal correction to Energy=                    0.108902
 Thermal correction to Enthalpy=                  0.109847
 Thermal correction to Gibbs Free Energy=         0.057353
 Sum of electronic and zero-point Energies=          -5639.409215
 Sum of electronic and thermal Energies=             -5639.397481
 Sum of electronic and thermal Enthalpies=           -5639.396537
 Sum of electronic and thermal Free Energies=        -5639.449030

                     E (Thermal)             CV                S
                      KCal/Mol        Cal/Mol-Kelvin    Cal/Mol-Kelvin
 Total                   68.337             42.718            110.482
 Electronic               0.000              0.000              1.377
 Translational            0.889              2.981             42.931
 Rotational               0.889              2.981             32.942
 Vibrational             66.560             36.757             33.232
 Vibration     1          0.597              1.974              4.484
 Vibration     2          0.608              1.937              3.186
 Vibration     3          0.613              1.920              2.900
 Vibration     4          0.617              1.906              2.706
 Vibration     5          0.631              1.861              2.283
 Vibration     6          0.632              1.859              2.268
 Vibration     7          0.637              1.842              2.147
 Vibration     8          0.675              1.726              1.588
 Vibration     9          0.687              1.691              1.469
 Vibration    10          0.730              1.567              1.147
 Vibration    11          0.734              1.556              1.124
 Vibration    12          0.752              1.506              1.027
 Vibration    13          0.778              1.438              0.910
 Vibration    14          0.789              1.412              0.869
 Vibration    15          0.823              1.327              0.750
 Vibration    16          0.834              1.299              0.716
 Vibration    17          0.884              1.185              0.588
 Vibration    18          0.901              1.148              0.552
 Vibration    19          0.967              1.015              0.436
 Vibration    20          0.972              1.005              0.428

                           ! Non-Optimized Parameters !
 Normal termination of Gaussian 16 at Fri Feb  2 17:37:18 2024.
