 Q-Chem 5.4, Q-Chem, Inc., Pleasanton, CA (2021)
 Q-Chem 5.4.0 for Intel X86 EM64T Linux

User input:
--------------------------------------------------------------
$molecule
-2 1
N                 -4.5182730000     -0.0480840000      0.1893490000
C                 -3.1239000000     -0.3748570000      0.2778710000
C                 -2.7485260000     -1.6270150000      0.8248610000
C                 -1.4181940000     -1.9601460000      0.9421190000
C                 -0.3863680000     -1.0728110000      0.5510140000
C                  0.9879030000     -1.5030650000      0.7400080000
O                  1.2925860000     -2.6349410000      1.2570280000
C                  1.9909860000     -0.5577010000      0.2984120000
C                  3.3635580000     -0.8782420000      0.4371000000
C                  4.3656770000     -0.0203710000      0.0302170000
C                  4.0187500000      1.2332530000     -0.5500040000
C                  2.6913150000      1.5743300000     -0.7012440000
C                  1.6363540000      0.7133230000     -0.2937320000
C                  0.2709690000      1.1347370000     -0.4806430000
O                  0.0034710000      2.2873530000     -1.0317450000
C                 -0.7431820000      0.2106180000     -0.0258290000
C                 -2.1487710000      0.5135240000     -0.1654220000
N                 -2.5576650000      1.7462980000     -0.7408620000
H                 -5.0140370000     -0.6080900000     -0.5105050000
H                 -4.6298890000      0.9310240000     -0.0528450000
H                 -3.5301370000     -2.2947710000      1.1801180000
H                 -1.1066060000     -2.9089810000      1.3651370000
H                  3.5899560000     -1.8421050000      0.8830010000
H                  5.4116360000     -0.2968200000      0.1515270000
H                  4.8002940000      1.9193690000     -0.8729290000
H                  2.3982910000      2.5223090000     -1.1407610000
H                 -1.6946460000      2.2398740000     -1.0441050000
H                 -3.2015500000      1.6019870000     -1.5171350000
$end
$rem
MAX_SCF_CYCLES=200
BASIS  =  6-311++G(d,p)
GUI  =  2
JOB_TYPE  =  SP
METHOD  =  B3LYP
SOLVENT_METHOD = PCM
$end
$pcm
theory = CPCM
$end
$solvent
dielectric 37.219
opticaldielectric 1.43
$end

--------------------------------------------------------------

             Standard Nuclear Orientation (Angstroms)
    I     Atom           X                Y                Z
 ----------------------------------------------------------------
    1      N      -4.5182730000    -0.0480840000     0.1893490000
    2      C      -3.1239000000    -0.3748570000     0.2778710000
    3      C      -2.7485260000    -1.6270150000     0.8248610000
    4      C      -1.4181940000    -1.9601460000     0.9421190000
    5      C      -0.3863680000    -1.0728110000     0.5510140000
    6      C       0.9879030000    -1.5030650000     0.7400080000
    7      O       1.2925860000    -2.6349410000     1.2570280000
    8      C       1.9909860000    -0.5577010000     0.2984120000
    9      C       3.3635580000    -0.8782420000     0.4371000000
   10      C       4.3656770000    -0.0203710000     0.0302170000
   11      C       4.0187500000     1.2332530000    -0.5500040000
   12      C       2.6913150000     1.5743300000    -0.7012440000
   13      C       1.6363540000     0.7133230000    -0.2937320000
   14      C       0.2709690000     1.1347370000    -0.4806430000
   15      O       0.0034710000     2.2873530000    -1.0317450000
   16      C      -0.7431820000     0.2106180000    -0.0258290000
   17      C      -2.1487710000     0.5135240000    -0.1654220000
   18      N      -2.5576650000     1.7462980000    -0.7408620000
   19      H      -5.0140370000    -0.6080900000    -0.5105050000
   20      H      -4.6298890000     0.9310240000    -0.0528450000
   21      H      -3.5301370000    -2.2947710000     1.1801180000
   22      H      -1.1066060000    -2.9089810000     1.3651370000
   23      H       3.5899560000    -1.8421050000     0.8830010000
   24      H       5.4116360000    -0.2968200000     0.1515270000
   25      H       4.8002940000     1.9193690000    -0.8729290000
   26      H       2.3982910000     2.5223090000    -1.1407610000
   27      H      -1.6946460000     2.2398740000    -1.0441050000
   28      H      -3.2015500000     1.6019870000    -1.5171350000
 ----------------------------------------------------------------

    9    -799.9492800457      3.45e-06  Convergence criterion met
 Total energy in the final basis set =     -799.9492800457

                    Orbital Energies (a.u.)
 --------------------------------------------------------------

 Alpha MOs
 -- Occupied --
-19.0262 -19.0245 -14.2935 -14.2765 -10.1809 -10.1768 -10.1764 -10.1729
-10.1488 -10.1479 -10.1463 -10.1455 -10.1446 -10.1437 -10.1387 -10.1363
-10.1352 -10.1349  -0.9462  -0.9428  -0.9010  -0.8554  -0.8252  -0.8032
 -0.7471  -0.7231  -0.7022  -0.6946  -0.6335  -0.6062  -0.5891  -0.5566
 -0.5287  -0.5121  -0.5015  -0.4788  -0.4634  -0.4436  -0.4418  -0.4337
 -0.4189  -0.4060  -0.3981  -0.3840  -0.3827  -0.3741  -0.3625  -0.3567
 -0.3488  -0.3319  -0.3278  -0.3212  -0.3113  -0.3037  -0.2834  -0.2695
 -0.2307  -0.2270  -0.2112  -0.2075  -0.1993  -0.1861  -0.1061

          Ground-State Mulliken Net Atomic Charges

     Atom                 Charge (a.u.)
  ----------------------------------------
      1 N                    -0.512698
      2 C                    -0.177017
      3 C                    -0.360541
      4 C                    -0.105387
      5 C                     0.369676
      6 C                    -0.426511
      7 O                    -0.674129
      8 C                     0.011360
      9 C                    -0.016948
     10 C                    -0.483792
     11 C                    -0.545044
     12 C                     0.021224
     13 C                     0.141059
     14 C                    -0.429535
     15 O                    -0.664234
     16 C                     0.238157
     17 C                     0.091688
     18 N                    -0.560370
     19 H                     0.279201
     20 H                     0.265652
     21 H                     0.186380
     22 H                     0.142614
     23 H                     0.141585
     24 H                     0.172015
     25 H                     0.171265
     26 H                     0.149069
     27 H                     0.321454
     28 H                     0.253807
  ----------------------------------------
  Sum of atomic charges =    -2.000000

                    Cartesian Multipole Moments
 -----------------------------------------------------------------
    Charge (ESU x 10^10)
                -9.6064
    Dipole Moment (Debye)
         X      -5.4328      Y       1.8509      Z      -4.3938
       Tot       7.2282
    Quadrupole Moments (Debye-Ang)
        XX    -139.5923     XY      10.4082     YY    -158.1007
        XZ       8.5120     YZ      16.4435     ZZ    -124.7378

 Total job time:  84.17s(wall), 349.77s(cpu)
        *  Thank you very much for using Q-Chem.  Have a nice day.  *
