 Q-Chem 5.4, Q-Chem, Inc., Pleasanton, CA (2021)
 Q-Chem 5.4.0 for Intel X86 EM64T Linux

User input:
--------------------------------------------------------------
$molecule
0 1
C                 -3.5503130000      0.2039520000      0.8569230000
C                 -3.5797690000     -0.1789870000     -0.5174020000
C                 -2.4207210000     -0.3710750000     -1.2161620000
C                 -1.1577010000     -0.1899010000     -0.5757560000
N                 -0.0291900000     -0.3809860000     -1.2705500000
C                  1.1278050000     -0.1978870000     -0.6223740000
C                  2.3624780000     -0.3878490000     -1.3139960000
C                  3.5503120000     -0.2039970000     -0.6633120000
C                  3.5796990000      0.1790030000      0.7112270000
C                  2.4208300000      0.3710940000      1.4099970000
C                  1.1575820000      0.1899250000      0.7696090000
N                  0.0292940000      0.3809980000      1.4643610000
C                 -1.1279210000      0.1978830000      0.8161280000
C                 -2.3624120000      0.3878370000      1.5077200000
H                 -4.4859380000      0.3490550000      1.3850630000
H                 -4.5370670000     -0.3175230000     -1.0070380000
H                 -2.4193500000     -0.6618830000     -2.2598840000
H                  2.3161820000     -0.6784820000     -2.3567240000
H                  4.4860150000     -0.3490510000     -1.1912760000
H                  4.5370800000      0.3175010000      1.2007250000
H                  2.4193750000      0.6619030000      2.4537210000
H                 -2.3162730000      0.6784710000      2.5504530000
$end

$rem
BASIS  =  6-311++G(d,p)
GUI  =  2
JOB_TYPE  =  SP
METHOD  =  B3LYP
SCF_CONVERGENCE  = 8
SOLVENT_METHOD = sm12
$end

$smx
solvent dimethylformamide
charges CM5
$end

--------------------------------------------------------------

             Standard Nuclear Orientation (Angstroms)
    I     Atom           X                Y                Z
 ----------------------------------------------------------------
    1      C      -3.5503130000     0.2039520000     0.8569230000
    2      C      -3.5797690000    -0.1789870000    -0.5174020000
    3      C      -2.4207210000    -0.3710750000    -1.2161620000
    4      C      -1.1577010000    -0.1899010000    -0.5757560000
    5      N      -0.0291900000    -0.3809860000    -1.2705500000
    6      C       1.1278050000    -0.1978870000    -0.6223740000
    7      C       2.3624780000    -0.3878490000    -1.3139960000
    8      C       3.5503120000    -0.2039970000    -0.6633120000
    9      C       3.5796990000     0.1790030000     0.7112270000
   10      C       2.4208300000     0.3710940000     1.4099970000
   11      C       1.1575820000     0.1899250000     0.7696090000
   12      N       0.0292940000     0.3809980000     1.4643610000
   13      C      -1.1279210000     0.1978830000     0.8161280000
   14      C      -2.3624120000     0.3878370000     1.5077200000
   15      H      -4.4859380000     0.3490550000     1.3850630000
   16      H      -4.5370670000    -0.3175230000    -1.0070380000
   17      H      -2.4193500000    -0.6618830000    -2.2598840000
   18      H       2.3161820000    -0.6784820000    -2.3567240000
   19      H       4.4860150000    -0.3490510000    -1.1912760000
   20      H       4.5370800000     0.3175010000     1.2007250000
   21      H       2.4193750000     0.6619030000     2.4537210000
   22      H      -2.3162730000     0.6784710000     2.5504530000
 ----------------------------------------------------------------

   12    -571.7425784983      7.52e-09  Convergence criterion met
 Total energy in the final basis set =     -571.7597095665

                    Orbital Energies (a.u.)
 --------------------------------------------------------------

 Alpha MOs
 -- Occupied --
-14.3423 -14.3423 -10.2373 -10.2373 -10.2370 -10.2369 -10.1968 -10.1968
-10.1963 -10.1963 -10.1929 -10.1929 -10.1929 -10.1929  -1.0016  -0.9343
 -0.8815  -0.8506  -0.7834  -0.7725  -0.7529  -0.6969  -0.6632  -0.6299
 -0.6130  -0.5756  -0.5725  -0.5157  -0.5045  -0.4889  -0.4813  -0.4619
 -0.4524  -0.4474  -0.4471  -0.4027  -0.3894  -0.3876  -0.3732  -0.3730
 -0.3701  -0.3391  -0.3316  -0.2830  -0.2705  -0.2702  -0.2418

          Ground-State Mulliken Net Atomic Charges

     Atom                 Charge (a.u.)
  ----------------------------------------
      1 C                     0.596823
      2 C                     0.597989
      3 C                     0.587122
      4 C                    -1.737465
      5 N                    -0.112989
      6 C                    -1.736486
      7 C                     0.586519
      8 C                     0.597360
      9 C                     0.598358
     10 C                     0.586918
     11 C                    -1.737517
     12 N                    -0.112991
     13 C                    -1.736677
     14 C                     0.586697
     15 H                     0.351260
     16 H                     0.351323
     17 H                     0.257771
     18 H                     0.257763
     19 H                     0.351318
     20 H                     0.351344
     21 H                     0.257758
     22 H                     0.257803
  ----------------------------------------
  Sum of atomic charges =     0.000000

                    Cartesian Multipole Moments
 -----------------------------------------------------------------
    Charge (ESU x 10^10)
                 0.0000
    Dipole Moment (Debye)
         X       0.0010      Y      -0.0001      Z      -0.0002
       Tot       0.0010
    Quadrupole Moments (Debye-Ang)
        XX     -53.7263     XY      -0.0786     YY     -85.0634
        XZ      -0.5347     YZ       1.4644     ZZ     -80.1745

 Total job time:  257.91s(wall), 1949.07s(cpu)
        *  Thank you very much for using Q-Chem.  Have a nice day.  *
