 Gaussian 16, Revision A.03,
 Gaussian 16:  ES64L-G16RevA.03 25-Dec-2016

 --------------------------------------
 #P UB3LYP/6-311++G(d,p) nosym opt freq
 --------------------------------------

 -------
 Radical
 -------
 Symbolic Z-matrix:
 Charge = -1 Multiplicity = 2

 SCF Done:  E(UB3LYP) =  -918.102040418     A.U. after   21 cycles
 Optimization completed.
    -- Stationary point found.
 Normal termination of Gaussian 16 at Wed Dec 27 19:56:13 2023.

 ----------------------------------------------------------------------
 #P Geom=AllCheck Guess=TCheck SCRF=Check GenChk UB3LYP/6-311++G(d,p) F
 req
 ----------------------------------------------------------------------

 Structure from the checkpoint file:  "140-rad.chk"
 -------
 Radical
 -------
 Charge = -1 Multiplicity = 2

                          Input orientation:
 ---------------------------------------------------------------------
 Center     Atomic      Atomic             Coordinates (Angstroms)
 Number     Number       Type             X           Y           Z
 ---------------------------------------------------------------------
      1          6           0       -5.007500   -1.025172    0.045692
      2          8           0       -3.600365   -1.078987    0.053853
      3          6           0       -2.893588    0.090002    0.007967
      4          6           0       -3.530819    1.322277   -0.045825
      5          6           0       -2.775027    2.510738   -0.092533
      6          6           0       -1.402275    2.457328   -0.085212
      7          6           0       -0.724827    1.218675   -0.031013
      8          6           0        0.751036    1.282335   -0.028291
      9          8           0        1.320699    2.397396   -0.072085
     10          6           0        1.461568    0.003549    0.026990
     11          6           0        2.893588   -0.089997    0.034889
     12          8           0        3.600374    1.078927   -0.012732
     13          6           0        5.007520    1.024989   -0.006684
     14          6           0        3.530823   -1.322266    0.088625
     15          6           0        2.775021   -2.510679    0.136576
     16          6           0        1.402270   -2.457216    0.130268
     17          6           0        0.724808   -1.218569    0.076070
     18          6           0       -0.751050   -1.282193    0.074075
     19          8           0       -1.320722   -2.397180    0.119720
     20          6           0       -1.461568   -0.003465    0.017407
     21          1           0       -5.341323   -2.062800    0.087310
     22          1           0       -5.405448   -0.484058    0.915002
     23          1           0       -5.397927   -0.557919   -0.868692
     24          1           0       -4.610569    1.383482   -0.052401
     25          1           0       -3.290087    3.466082   -0.134356
     26          1           0       -0.792781    3.351068   -0.120259
     27          1           0        5.341368    2.062556   -0.049598
     28          1           0        5.404062    0.483111   -0.876159
     29          1           0        5.399307    0.558455    0.907487
     30          1           0        4.610577   -1.383503    0.094198
     31          1           0        3.290071   -3.466030    0.178326
     32          1           0        0.792783   -3.350935    0.166060
 ---------------------------------------------------------------------

 SCF Done:  E(UB3LYP) =  -918.102040418     A.U. after    1 cycles

 Alpha  occ. eigenvalues --  -19.03612 -19.03611 -18.93382 -18.93381 -10.12361
 Alpha  occ. eigenvalues --  -10.12361 -10.11781 -10.11781 -10.09116 -10.09115
 Alpha  occ. eigenvalues --  -10.05428 -10.05427 -10.05152 -10.05152 -10.04964
 Alpha  occ. eigenvalues --  -10.04963 -10.04573 -10.04572 -10.03767 -10.03767
 Alpha  occ. eigenvalues --   -0.95561  -0.95556  -0.86444  -0.86186  -0.73422
 Alpha  occ. eigenvalues --   -0.72634  -0.66043  -0.64319  -0.64229  -0.61943
 Alpha  occ. eigenvalues --   -0.58868  -0.58628  -0.53946  -0.50911  -0.50054
 Alpha  occ. eigenvalues --   -0.46346  -0.44404  -0.42626  -0.41718  -0.38034
 Alpha  occ. eigenvalues --   -0.36987  -0.36594  -0.36569  -0.36562  -0.34935
 Alpha  occ. eigenvalues --   -0.34811  -0.33215  -0.31890  -0.31009  -0.29470
 Alpha  occ. eigenvalues --   -0.29226  -0.27753  -0.27486  -0.26361  -0.25835
 Alpha  occ. eigenvalues --   -0.24243  -0.24202  -0.23705  -0.23436  -0.22065
 Alpha  occ. eigenvalues --   -0.21878  -0.21474  -0.20004  -0.19935  -0.13730
 Alpha  occ. eigenvalues --   -0.12708  -0.10803  -0.10780  -0.09988  -0.09159
 Alpha  occ. eigenvalues --   -0.00618
 Alpha virt. eigenvalues --    0.07152   0.07185   0.08253   0.09102   0.09184
 Alpha virt. eigenvalues --    0.09797   0.10790   0.11070   0.11109   0.11187
 Alpha virt. eigenvalues --    0.12611   0.12643   0.12932   0.13474   0.13995

  Beta  occ. eigenvalues --  -19.03613 -19.03613 -18.92772 -18.92771 -10.12360
  Beta  occ. eigenvalues --  -10.12360 -10.11791 -10.11791 -10.09009 -10.09008
  Beta  occ. eigenvalues --  -10.05356 -10.05356 -10.05096 -10.05096 -10.04897
  Beta  occ. eigenvalues --  -10.04896 -10.04447 -10.04446 -10.03789 -10.03789
  Beta  occ. eigenvalues --   -0.95558  -0.95554  -0.85420  -0.85129  -0.73169
  Beta  occ. eigenvalues --   -0.72517  -0.65638  -0.64203  -0.64163  -0.61724
  Beta  occ. eigenvalues --   -0.58795  -0.58493  -0.53257  -0.50753  -0.49805
  Beta  occ. eigenvalues --   -0.46305  -0.44301  -0.42438  -0.41582  -0.37882
  Beta  occ. eigenvalues --   -0.36943  -0.36571  -0.36547  -0.36407  -0.34808
  Beta  occ. eigenvalues --   -0.34740  -0.33099  -0.31721  -0.30942  -0.29364
  Beta  occ. eigenvalues --   -0.28333  -0.27424  -0.27278  -0.26129  -0.25394
  Beta  occ. eigenvalues --   -0.24206  -0.23608  -0.22704  -0.22349  -0.21870
  Beta  occ. eigenvalues --   -0.21841  -0.21296  -0.19287  -0.19205  -0.12060
  Beta  occ. eigenvalues --   -0.11273  -0.10498  -0.09973  -0.09427  -0.08600
  Beta virt. eigenvalues --    0.05252   0.07149   0.07182   0.09093   0.09113
  Beta virt. eigenvalues --    0.09176   0.10764   0.10788   0.11083   0.11185
  Beta virt. eigenvalues --    0.11319   0.12619   0.12633   0.13097   0.13479

 Mulliken charges and spin densities:
               1          2
     1  C   -0.286861  -0.001386
     2  O   -0.077877  -0.001509
     3  C    0.069044   0.012806
     4  C   -0.105969   0.045787
     5  C   -0.515660   0.062448
     6  C   -0.022035   0.011351
     7  C    0.469299   0.071398
     8  C   -0.533284   0.040632
     9  O   -0.358946   0.232538
    10  C    0.035047   0.032747
    11  C    0.069062   0.012801
    12  O   -0.077883  -0.001509
    13  C   -0.286859  -0.001386
    14  C   -0.105972   0.045791
    15  C   -0.515665   0.062449
    16  C   -0.022039   0.011353
    17  C    0.469270   0.071399
    18  C   -0.533270   0.040635
    19  O   -0.358952   0.232546
    20  C    0.035089   0.032741
    21  H    0.173529  -0.000236
    22  H    0.124224   0.000961
    23  H    0.124158   0.000959
    24  H    0.122816  -0.003466
    25  H    0.132605  -0.004394
    26  H    0.149899  -0.000640
    27  H    0.173530  -0.000236
    28  H    0.124160   0.000957
    29  H    0.124221   0.000964
    30  H    0.122819  -0.003466
    31  H    0.132605  -0.004394
    32  H    0.149898  -0.000641
 Sum of Mulliken charges =  -1.00000   1.00000

 Dipole moment (field-independent basis, Debye):
    X=             -0.0001    Y=             -0.0005    Z=             -0.1134  Tot=              0.1134
 Quadrupole moment (field-independent basis, Debye-Ang):
   XX=           -120.4471   YY=           -147.8801   ZZ=           -123.6967
   XY=             -7.9475   XZ=              0.3436   YZ=              0.9873

  Exact polarizability: 373.137 -30.444 269.400   2.132  -6.443 118.377
 Approx polarizability: 524.745 -24.307 489.235   2.154 -12.744 187.613

                      1                      2                      3
                      A                      A                      A
 Frequencies --     21.1917                47.4461                53.4653
 Red. masses --      5.2493                 5.2381                 5.1389
 Frc consts  --      0.0014                 0.0069                 0.0087
 IR Inten    --      8.3946                 2.0792                 0.0000

                      4                      5                      6
                      A                      A                      A
 Frequencies --     84.0423                91.6911               149.8784
 Red. masses --      3.7509                 4.2875                 4.2262
 Frc consts  --      0.0156                 0.0212                 0.0559
 IR Inten    --      2.7428                 0.0000                 8.3648

                      7                      8                      9
                      A                      A                      A
 Frequencies --    155.5184               189.0054               202.8194
 Red. masses --      5.1432                 2.9298                 4.8462
 Frc consts  --      0.0733                 0.0617                 0.1175
 IR Inten    --      2.7878                 0.0000                 0.0000

                     10                     11                     12
                      A                      A                      A
 Frequencies --    227.9010               267.5229               288.1827
 Red. masses --      2.1642                 1.4637                 1.5064
 Frc consts  --      0.0662                 0.0617                 0.0737
 IR Inten    --      0.0460                 0.0000                 0.2545

                     13                     14                     15
                      A                      A                      A
 Frequencies --    303.8965               309.7207               315.9019
 Red. masses --      3.0319                 4.0542                 3.9152
 Frc consts  --      0.1650                 0.2291                 0.2302
 IR Inten    --      0.0000                 0.0000                 0.7553

                     16                     17                     18
                      A                      A                      A
 Frequencies --    355.7186               372.0872               387.3287
 Red. masses --      7.3373                 7.7030                 7.3937
 Frc consts  --      0.5470                 0.6283                 0.6535
 IR Inten    --      0.0000                 0.0000                 3.9395

                     19                     20                     21
                      A                      A                      A
 Frequencies --    410.2366               411.8598               482.1511
 Red. masses --      8.5969                 6.5451                12.0463
 Frc consts  --      0.8524                 0.6541                 1.6500
 IR Inten    --      2.5060                 0.0049                 0.0000

                     22                     23                     24
                      A                      A                      A
 Frequencies --    492.4718               510.4603               540.6327
 Red. masses --      4.0808                 6.4833                 4.9947
 Frc consts  --      0.5831                 0.9953                 0.8601
 IR Inten    --      1.4241                 0.0000                 3.1238

                     25                     26                     27
                      A                      A                      A
 Frequencies --    571.3474               578.3775               625.0910
 Red. masses --      6.6643                 4.7138                 5.4654
 Frc consts  --      1.2818                 0.9291                 1.2582
 IR Inten    --     12.8792                 0.0001                 0.0000

                     28                     29                     30
                      A                      A                      A
 Frequencies --    632.4000               663.5790               703.7175
 Red. masses --      4.8785                 3.8837                 6.6341
 Frc consts  --      1.1495                 1.0076                 1.9357
 IR Inten    --      5.2431                 0.0001                 0.0404

                     31                     32                     33
                      A                      A                      A
 Frequencies --    704.9791               745.2496               761.2638
 Red. masses --      2.1323                 1.3869                 3.1999
 Frc consts  --      0.6244                 0.4538                 1.0926
 IR Inten    --     67.4548                 0.0000                 6.3910

                     34                     35                     36
                      A                      A                      A
 Frequencies --    767.4855               781.7765               825.9987
 Red. masses --      6.5195                 3.1493                 4.7027
 Frc consts  --      2.2626                 1.1340                 1.8904
 IR Inten    --     41.6372                58.7498                 0.0000

                     37                     38                     39
                      A                      A                      A
 Frequencies --    842.3262               843.2115               847.0943
 Red. masses --      6.8406                 1.5789                 1.4635
 Frc consts  --      2.8596                 0.6614                 0.6187
 IR Inten    --     18.6700                 0.0000                 0.5464

                     40                     41                     42
                      A                      A                      A
 Frequencies --    880.6203               938.4340               971.4815
 Red. masses --      6.8672                 5.6391                 1.2721
 Frc consts  --      3.1377                 2.9259                 0.7074
 IR Inten    --      0.0000                 0.0000                 0.0005

                     43                     44                     45
                      A                      A                      A
 Frequencies --    971.8553               999.9807              1094.7740
 Red. masses --      1.2788                 6.7157                 2.1732
 Frc consts  --      0.7116                 3.9566                 1.5346
 IR Inten    --      2.7817                36.2231                 0.0001

                     46                     47                     48
                      A                      A                      A
 Frequencies --   1095.4233              1099.7046              1111.4569
 Red. masses --      2.4110                 6.3754                 3.0266
 Frc consts  --      1.7045                 4.5426                 2.2029
 IR Inten    --     52.6819                 0.0001               350.9971

                     49                     50                     51
                      A                      A                      A
 Frequencies --   1157.4509              1161.8772              1161.9110
 Red. masses --      2.2906                 1.2820                 1.2820
 Frc consts  --      1.8081                 1.0197                 1.0197
 IR Inten    --     56.1955                 1.4237                 0.0121

                     52                     53                     54
                      A                      A                      A
 Frequencies --   1178.2687              1181.9071              1191.9990
 Red. masses --      1.3508                 2.0924                 1.5781
 Frc consts  --      1.1050                 1.7221                 1.3211
 IR Inten    --      0.0000                 0.0000                22.2675

                     55                     56                     57
                      A                      A                      A
 Frequencies --   1207.4754              1207.8546              1227.4893
 Red. masses --      1.3641                 2.6756                 1.8712
 Frc consts  --      1.1718                 2.2999                 1.6611
 IR Inten    --      0.0000                78.9848                39.1493

                     58                     59                     60
                      A                      A                      A
 Frequencies --   1263.6536              1269.3380              1321.9576
 Red. masses --      4.0358                 3.5998                 3.9150
 Frc consts  --      3.7969                 3.4173                 4.0310
 IR Inten    --    346.9281                 0.0012                 0.0000

                     61                     62                     63
                      A                      A                      A
 Frequencies --   1349.5295              1375.0945              1411.0818
 Red. masses --      8.9635                 7.2919                 3.9492
 Frc consts  --      9.6182                 8.1238                 4.6330
 IR Inten    --     56.4325                 0.0000               123.1078

                     64                     65                     66
                      A                      A                      A
 Frequencies --   1429.6957              1450.3268              1463.0274
 Red. masses --      2.3312                 3.6169                 1.4908
 Frc consts  --      2.8074                 4.4824                 1.8800
 IR Inten    --     74.4840                 0.0000                 0.0000

                     67                     68                     69
                      A                      A                      A
 Frequencies --   1468.8402              1482.6455              1485.6304
 Red. masses --      1.2306                 1.9279                 1.0481
 Frc consts  --      1.5643                 2.4969                 1.3630
 IR Inten    --     64.6556                 0.0001                10.5389

                     70                     71                     72
                      A                      A                      A
 Frequencies --   1485.6672              1502.8700              1504.0104
 Red. masses --      1.0482                 1.0609                 1.0795
 Frc consts  --      1.3631                 1.4118                 1.4387
 IR Inten    --      0.0088               135.3445                 0.0001

                     73                     74                     75
                      A                      A                      A
 Frequencies --   1534.8408              1542.0734              1562.4953
 Red. masses --      6.9557                 4.7515                 5.0868
 Frc consts  --      9.6542                 6.6572                 7.3170
 IR Inten    --      0.0006               734.3768               394.3185

                     76                     77                     78
                      A                      A                      A
 Frequencies --   1611.6488              1619.1034              1619.8360
 Red. masses --      5.7849                 7.6009                 6.5208
 Frc consts  --      8.8530                11.7399                10.0807
 IR Inten    --      0.0000                 0.0000                26.4639

                     79                     80                     81
                      A                      A                      A
 Frequencies --   2968.6850              2969.1515              3014.0481
 Red. masses --      1.0362                 1.0363                 1.1041
 Frc consts  --      5.3806                 5.3829                 5.9096
 IR Inten    --    262.0436                 0.0048                 0.0001

                     82                     83                     84
                      A                      A                      A
 Frequencies --   3014.0979              3101.6148              3101.6711
 Red. masses --      1.1041                 1.0955                 1.0954
 Frc consts  --      5.9099                 6.2093                 6.2091
 IR Inten    --    134.6859                81.1054                 0.0416

                     85                     86                     87
                      A                      A                      A
 Frequencies --   3140.6578              3140.8871              3196.0661
 Red. masses --      1.0873                 1.0875                 1.0888
 Frc consts  --      6.3191                 6.3208                 6.5527
 IR Inten    --     73.4995                 0.0534                 2.5160

                     88                     89                     90
                      A                      A                      A
 Frequencies --   3196.0847              3198.4283              3198.8740
 Red. masses --      1.0888                 1.0922                 1.0922
 Frc consts  --      6.5527                 6.5831                 6.5848
 IR Inten    --     18.0407                63.6043                 0.0229

 - Thermochemistry -
 -------------------
 Temperature   298.150 Kelvin.  Pressure   1.00000 Atm.
 Atom     1 has atomic number  6 and mass  12.00000

 Molecular mass:   268.07356 amu.
 Principal axes and moments of inertia in atomic units:
                           1         2         3
     Eigenvalues --  2586.053377594.27147**********
           X            0.99983   0.01811  -0.00334
           Y           -0.01795   0.99896   0.04187
           Z            0.00410  -0.04180   0.99912
 This molecule is an asymmetric top.
 Rotational symmetry number  1.
 Warning -- assumption of classical behavior for rotation
           may cause significant error
 Rotational temperatures (Kelvin)      0.03349     0.01141     0.00853
 Rotational constants (GHZ):           0.69787     0.23765     0.17768
 Zero-point vibrational energy     630423.8 (Joules/Mol)
                                  150.67490 (Kcal/Mol)
 Warning -- explicit consideration of  26 degrees of freedom as
           vibrations may cause significant error
 Vibrational temperatures:     30.49    68.26    76.92   120.92   131.92
          (Kelvin)            215.64   223.76   271.94   291.81   327.90
                              384.91   414.63   437.24   445.62   454.51
                              511.80   535.35   557.28   590.24   592.57
                              693.71   708.56   734.44   777.85   822.04
                              832.16   899.37   909.88   954.74  1012.49
                             1014.31  1072.25  1095.29  1104.24  1124.80
                             1188.43  1211.92  1213.19  1218.78  1267.02
                             1350.20  1397.75  1398.28  1438.75  1575.14
                             1576.07  1582.23  1599.14  1665.31  1671.68
                             1671.73  1695.27  1700.50  1715.02  1737.29
                             1737.83  1766.08  1818.12  1826.29  1902.00
                             1941.67  1978.45  2030.23  2057.01  2086.70
                             2104.97  2113.33  2133.20  2137.49  2137.54
                             2162.29  2163.94  2208.29  2218.70  2248.08
                             2318.80  2329.53  2330.58  4271.28  4271.95
                             4336.54  4336.61  4462.53  4462.61  4518.71
                             4519.04  4598.43  4598.45  4601.82  4602.47

 Zero-point correction=                           0.240116 (Hartree/Particle)
 Thermal correction to Energy=                    0.256804
 Thermal correction to Enthalpy=                  0.257748
 Thermal correction to Gibbs Free Energy=         0.194302
 Sum of electronic and zero-point Energies=           -917.861925
 Sum of electronic and thermal Energies=              -917.845236
 Sum of electronic and thermal Enthalpies=            -917.844292
 Sum of electronic and thermal Free Energies=         -917.907739

                     E (Thermal)             CV                S
                      KCal/Mol        Cal/Mol-Kelvin    Cal/Mol-Kelvin
 Total                  161.147             64.894            133.535
 Electronic               0.000              0.000              1.377
 Translational            0.889              2.981             42.657
 Rotational               0.889              2.981             33.655
 Vibrational            159.370             58.932             55.844
 Vibration     1          0.593              1.985              6.519
 Vibration     2          0.595              1.979              4.921
 Vibration     3          0.596              1.976              4.685
 Vibration     4          0.601              1.960              3.794
 Vibration     5          0.602              1.955              3.624
 Vibration     6          0.618              1.903              2.674
 Vibration     7          0.620              1.897              2.604
 Vibration     8          0.633              1.855              2.238
 Vibration     9          0.639              1.836              2.107
 Vibration    10          0.651              1.798              1.895
 Vibration    11          0.673              1.733              1.612
 Vibration    12          0.685              1.696              1.485
 Vibration    13          0.695              1.666              1.395
 Vibration    14          0.699              1.655              1.364
 Vibration    15          0.703              1.643              1.331
 Vibration    16          0.731              1.564              1.141
 Vibration    17          0.744              1.529              1.071
 Vibration    18          0.756              1.497              1.010
 Vibration    19          0.774              1.448              0.926
 Vibration    20          0.776              1.444              0.920
 Vibration    21          0.838              1.290              0.704
 Vibration    22          0.848              1.267              0.677
 Vibration    23          0.866              1.227              0.632
 Vibration    24          0.896              1.160              0.564
 Vibration    25          0.927              1.093              0.502
 Vibration    26          0.935              1.078              0.488

                           ! Non-Optimized Parameters !
 Normal termination of Gaussian 16 at Wed Dec 27 22:05:20 2023.
