 Q-Chem 5.4, Q-Chem, Inc., Pleasanton, CA (2021)
 Q-Chem 5.4.0 for Intel X86 EM64T Linux

User input:
--------------------------------------------------------------
$molecule
-1 2
C                 -5.0075000000     -1.0251720000      0.0456920000
O                 -3.6003650000     -1.0789870000      0.0538530000
C                 -2.8935880000      0.0900020000      0.0079670000
C                 -3.5308190000      1.3222770000     -0.0458250000
C                 -2.7750270000      2.5107380000     -0.0925330000
C                 -1.4022750000      2.4573280000     -0.0852120000
C                 -0.7248270000      1.2186750000     -0.0310130000
C                  0.7510360000      1.2823350000     -0.0282910000
O                  1.3206990000      2.3973960000     -0.0720850000
C                  1.4615680000      0.0035490000      0.0269900000
C                  2.8935880000     -0.0899970000      0.0348890000
O                  3.6003740000      1.0789270000     -0.0127320000
C                  5.0075200000      1.0249890000     -0.0066840000
C                  3.5308230000     -1.3222660000      0.0886250000
C                  2.7750210000     -2.5106790000      0.1365760000
C                  1.4022700000     -2.4572160000      0.1302680000
C                  0.7248080000     -1.2185690000      0.0760700000
C                 -0.7510500000     -1.2821930000      0.0740750000
O                 -1.3207220000     -2.3971800000      0.1197200000
C                 -1.4615680000     -0.0034650000      0.0174070000
H                 -5.3413230000     -2.0628000000      0.0873100000
H                 -5.4054480000     -0.4840580000      0.9150020000
H                 -5.3979270000     -0.5579190000     -0.8686920000
H                 -4.6105690000      1.3834820000     -0.0524010000
H                 -3.2900870000      3.4660820000     -0.1343560000
H                 -0.7927810000      3.3510680000     -0.1202590000
H                  5.3413680000      2.0625560000     -0.0495980000
H                  5.4040620000      0.4831110000     -0.8761590000
H                  5.3993070000      0.5584550000      0.9074870000
H                  4.6105770000     -1.3835030000      0.0941980000
H                  3.2900710000     -3.4660300000      0.1783260000
H                  0.7927830000     -3.3509350000      0.1660600000
$end

$rem
BASIS  =  6-311++G(d,p)
GUI  =  2
JOB_TYPE  =  SP
METHOD  =  B3LYP
SCF_CONVERGENCE  = 8
SOLVENT_METHOD = sm12
$end

$smx
solvent dimethylformamide
charges CM5
$end

--------------------------------------------------------------

             Standard Nuclear Orientation (Angstroms)
    I     Atom           X                Y                Z
 ----------------------------------------------------------------
    1      C      -5.0075000000    -1.0251720000     0.0456920000
    2      O      -3.6003650000    -1.0789870000     0.0538530000
    3      C      -2.8935880000     0.0900020000     0.0079670000
    4      C      -3.5308190000     1.3222770000    -0.0458250000
    5      C      -2.7750270000     2.5107380000    -0.0925330000
    6      C      -1.4022750000     2.4573280000    -0.0852120000
    7      C      -0.7248270000     1.2186750000    -0.0310130000
    8      C       0.7510360000     1.2823350000    -0.0282910000
    9      O       1.3206990000     2.3973960000    -0.0720850000
   10      C       1.4615680000     0.0035490000     0.0269900000
   11      C       2.8935880000    -0.0899970000     0.0348890000
   12      O       3.6003740000     1.0789270000    -0.0127320000
   13      C       5.0075200000     1.0249890000    -0.0066840000
   14      C       3.5308230000    -1.3222660000     0.0886250000
   15      C       2.7750210000    -2.5106790000     0.1365760000
   16      C       1.4022700000    -2.4572160000     0.1302680000
   17      C       0.7248080000    -1.2185690000     0.0760700000
   18      C      -0.7510500000    -1.2821930000     0.0740750000
   19      O      -1.3207220000    -2.3971800000     0.1197200000
   20      C      -1.4615680000    -0.0034650000     0.0174070000
   21      H      -5.3413230000    -2.0628000000     0.0873100000
   22      H      -5.4054480000    -0.4840580000     0.9150020000
   23      H      -5.3979270000    -0.5579190000    -0.8686920000
   24      H      -4.6105690000     1.3834820000    -0.0524010000
   25      H      -3.2900870000     3.4660820000    -0.1343560000
   26      H      -0.7927810000     3.3510680000    -0.1202590000
   27      H       5.3413680000     2.0625560000    -0.0495980000
   28      H       5.4040620000     0.4831110000    -0.8761590000
   29      H       5.3993070000     0.5584550000     0.9074870000
   30      H       4.6105770000    -1.3835030000     0.0941980000
   31      H       3.2900710000    -3.4660300000     0.1783260000
   32      H       0.7927830000    -3.3509350000     0.1660600000
 ----------------------------------------------------------------

   17    -918.0942098743      5.83e-09  Convergence criterion met
 Total energy in the final basis set =     -918.1896202693

                    Orbital Energies (a.u.)
 --------------------------------------------------------------

 Alpha MOs
 -- Occupied --
-19.1482 -19.1482 -19.0661 -19.0661 -10.2410 -10.2410 -10.2230 -10.2229
-10.2162 -10.2162 -10.1787 -10.1787 -10.1784 -10.1784 -10.1758 -10.1758
-10.1726 -10.1726 -10.1649 -10.1649  -1.0676  -1.0675  -0.9966  -0.9946
 -0.8600  -0.8514  -0.7876  -0.7603  -0.7581  -0.7448  -0.6997  -0.6954
 -0.6672  -0.6321  -0.6240  -0.5813  -0.5597  -0.5445  -0.5383  -0.5001
 -0.4877  -0.4851  -0.4708  -0.4684  -0.4666  -0.4652  -0.4538  -0.4308
 -0.4263  -0.4190  -0.4088  -0.4063  -0.3957  -0.3850  -0.3800  -0.3741
 -0.3675  -0.3587  -0.3513  -0.3480  -0.3305  -0.3298  -0.3203  -0.3163
 -0.2674  -0.2551  -0.2317  -0.2316  -0.2305  -0.2227  -0.1368

 Beta MOs
 -- Occupied --
-19.1482 -19.1482 -19.0601 -19.0601 -10.2411 -10.2411 -10.2218 -10.2218
-10.2162 -10.2162 -10.1781 -10.1781 -10.1778 -10.1778 -10.1746 -10.1746
-10.1720 -10.1720 -10.1650 -10.1650  -1.0675  -1.0674  -0.9865  -0.9842
 -0.8574  -0.8502  -0.7836  -0.7586  -0.7572  -0.7426  -0.6990  -0.6943
 -0.6604  -0.6303  -0.6216  -0.5806  -0.5584  -0.5423  -0.5373  -0.4987
 -0.4872  -0.4831  -0.4694  -0.4678  -0.4659  -0.4649  -0.4528  -0.4291
 -0.4252  -0.4088  -0.4083  -0.4016  -0.3940  -0.3822  -0.3766  -0.3671
 -0.3573  -0.3546  -0.3458  -0.3430  -0.3298  -0.3295  -0.3150  -0.3108
 -0.2490  -0.2441  -0.2272  -0.2262  -0.2234  -0.2173

          Ground-State Mulliken Net Atomic Charges

     Atom                 Charge (a.u.)    Spin (a.u.)
  --------------------------------------------------------
      1 C                     0.092923      -0.000666
      2 O                    -0.092856      -0.000746
      3 C                     0.227343       0.019514
      4 C                     1.599004       0.050570
      5 C                     0.776671       0.054099
      6 C                    -0.631143       0.026101
      7 C                    -1.223959       0.062211
      8 C                    -1.833167       0.045745
      9 O                    -0.302592       0.228640
     10 C                    -0.668306       0.022392
     11 C                     0.227301       0.019512
     12 O                    -0.092851      -0.000746
     13 C                     0.092923      -0.000666
     14 C                     1.598992       0.050573
     15 C                     0.776716       0.054100
     16 C                    -0.631188       0.026102
     17 C                    -1.223981       0.062213
     18 C                    -1.833173       0.045748
     19 O                    -0.302591       0.228647
     20 C                    -0.668245       0.022385
     21 H                     0.276455      -0.000134
     22 H                     0.223344       0.000411
     23 H                     0.223267       0.000402
     24 H                     0.378460      -0.003419
     25 H                     0.348617      -0.003641
     26 H                     0.105945      -0.001483
     27 H                     0.276460      -0.000134
     28 H                     0.223243       0.000408
     29 H                     0.223362       0.000405
     30 H                     0.378464      -0.003420
     31 H                     0.348617      -0.003641
     32 H                     0.105947      -0.001483
  --------------------------------------------------------
  Sum of atomic charges =    -1.000000

                    Cartesian Multipole Moments
 -----------------------------------------------------------------
    Charge (ESU x 10^10)
                -4.8032
    Dipole Moment (Debye)
         X      -0.0001      Y      -0.0006      Z      -0.1154
       Tot       0.1154
    Quadrupole Moments (Debye-Ang)
        XX    -102.7653     XY      -8.9503     YY    -147.4192
        XZ       0.4449     YZ       0.9583     ZZ    -123.9267

 Total job time:  1043.89s(wall), 7890.17s(cpu)
        *  Thank you very much for using Q-Chem.  Have a nice day.  *
