 Gaussian 16, Revision A.03,
 Gaussian 16:  ES64L-G16RevA.03 25-Dec-2016

 ----------------------------------------------------------------
 #P UB3LYP/6-311++G(d,p) SCRF=(PCM,Solvent=n,n-DiMethylFormamide)
 ----------------------------------------------------------------

 ------------------
 Quinone PCM in DMF
 ------------------
 Symbolic Z-matrix:
 Charge =  0 Multiplicity = 1

                         Standard orientation:
 ---------------------------------------------------------------------
 Center     Atomic      Atomic             Coordinates (Angstroms)
 Number     Number       Type             X           Y           Z
 ---------------------------------------------------------------------
      1          6           0        3.982739   -1.141831    0.000877
      2          6           0        2.661732   -0.414217   -0.000369
      3          6           0        2.621496    0.989496   -0.000616
      4          6           0        1.414134    1.674687   -0.000438
      5          6           0        0.208066    0.969667   -0.000111
      6          6           0       -1.089268    1.699027    0.000161
      7          8           0       -1.149451    2.919892    0.000383
      8          6           0       -2.325050    0.887415    0.000212
      9          6           0       -2.335090   -0.458452    0.000122
     10          6           0       -3.590476   -1.276276    0.000214
     11          6           0       -1.040626   -1.214395   -0.000180
     12          8           0       -1.044260   -2.434879   -0.000457
     13          6           0        0.230663   -0.433091   -0.000110
     14          6           0        1.452682   -1.110348   -0.000283
     15          1           0        4.583397   -0.866469   -0.871266
     16          1           0        4.568594   -0.889211    0.889969
     17          1           0        3.841910   -2.223594   -0.013898
     18          1           0        3.552174    1.548145   -0.001049
     19          1           0        1.383046    2.757547   -0.000648
     20          1           0       -3.247308    1.460064    0.000382
     21          1           0       -3.620820   -1.932568    0.874333
     22          1           0       -4.474584   -0.637853    0.000575
     23          1           0       -3.621241   -1.932130   -0.874221
     24          1           0        1.438506   -2.194125   -0.000470
 ---------------------------------------------------------------------

 SCF Done:  E(UB3LYP) =  -613.928456877     A.U. after   15 cycles

 The electronic state is 1-A.
 Alpha  occ. eigenvalues --  -19.13811 -19.13366 -10.28530 -10.28203 -10.22101
 Alpha  occ. eigenvalues --  -10.20811 -10.20773 -10.20462 -10.20374 -10.19756
 Alpha  occ. eigenvalues --  -10.19493 -10.19490 -10.17852 -10.17451  -1.07104
 Alpha  occ. eigenvalues --   -1.06548  -0.89208  -0.84939  -0.80046  -0.77922
 Alpha  occ. eigenvalues --   -0.73815  -0.70617  -0.68385  -0.63239  -0.61973
 Alpha  occ. eigenvalues --   -0.58859  -0.54181  -0.52119  -0.50246  -0.47251
 Alpha  occ. eigenvalues --   -0.46566  -0.46114  -0.45923  -0.44996  -0.43303
 Alpha  occ. eigenvalues --   -0.42510  -0.42490  -0.41489  -0.40940  -0.40100
 Alpha  occ. eigenvalues --   -0.39413  -0.37513  -0.36783  -0.36453  -0.29890
 Alpha  occ. eigenvalues --   -0.28968  -0.27846  -0.27697  -0.26938
 Alpha virt. eigenvalues --   -0.12583  -0.05476  -0.03224  -0.00751   0.00192
 Alpha virt. eigenvalues --    0.01023   0.02075   0.02213   0.02356   0.03373
 Alpha virt. eigenvalues --    0.03530   0.03843   0.04273   0.05147   0.05637

  Beta  occ. eigenvalues --  -19.13811 -19.13366 -10.28530 -10.28203 -10.22101
  Beta  occ. eigenvalues --  -10.20811 -10.20773 -10.20462 -10.20374 -10.19756
  Beta  occ. eigenvalues --  -10.19493 -10.19490 -10.17852 -10.17451  -1.07104
  Beta  occ. eigenvalues --   -1.06548  -0.89208  -0.84939  -0.80046  -0.77922
  Beta  occ. eigenvalues --   -0.73815  -0.70617  -0.68385  -0.63239  -0.61973
  Beta  occ. eigenvalues --   -0.58859  -0.54181  -0.52119  -0.50246  -0.47251
  Beta  occ. eigenvalues --   -0.46566  -0.46114  -0.45923  -0.44996  -0.43303
  Beta  occ. eigenvalues --   -0.42510  -0.42490  -0.41489  -0.40940  -0.40100
  Beta  occ. eigenvalues --   -0.39413  -0.37513  -0.36783  -0.36453  -0.29890
  Beta  occ. eigenvalues --   -0.28968  -0.27846  -0.27697  -0.26938
  Beta virt. eigenvalues --   -0.12583  -0.05476  -0.03224  -0.00751   0.00192
  Beta virt. eigenvalues --    0.01023   0.02075   0.02213   0.02356   0.03373
  Beta virt. eigenvalues --    0.03530   0.03843   0.04273   0.05147   0.05637

 Mulliken charges and spin densities:
               1          2
     1  C   -0.440568   0.000000
     2  C    0.497692   0.000000
     3  C   -0.343639  -0.000000
     4  C    0.080809   0.000000
     5  C    0.453824  -0.000000
     6  C   -0.686759   0.000000
     7  O   -0.305439  -0.000000
     8  C   -0.493146   0.000000
     9  C    1.032398   0.000000
    10  C   -0.295495   0.000000
    11  C   -0.672981  -0.000000
    12  O   -0.260980   0.000000
    13  C   -0.064204  -0.000000
    14  C   -0.314480  -0.000000
    15  H    0.172345   0.000000
    16  H    0.174195   0.000000
    17  H    0.178917   0.000000
    18  H    0.209142   0.000000
    19  H    0.175916  -0.000000
    20  H    0.198371  -0.000000
    21  H    0.188952  -0.000000
    22  H    0.176074  -0.000000
    23  H    0.188949  -0.000000
    24  H    0.150108  -0.000000
 Sum of Mulliken charges =  -0.00000  -0.00000

 Dipole moment (field-independent basis, Debye):
    X=              2.0562    Y=             -1.1777    Z=              0.0028  Tot=              2.3696
 Quadrupole moment (field-independent basis, Debye-Ang):
   XX=            -59.7566   YY=            -99.4819   ZZ=            -82.6031
   XY=              2.5904   XZ=              0.0084   YZ=             -0.0085

 Normal termination of Gaussian 16 at Sun Jan 21 07:53:53 2024.
