 Gaussian 16, Revision A.03,
 Gaussian 16:  ES64L-G16RevA.03 25-Dec-2016

 --------------------------------------
 #P UB3LYP/6-311++G(d,p) nosym opt freq
 --------------------------------------

 --------
 Oxidized
 --------
 Symbolic Z-matrix:
 Charge =  0 Multiplicity = 1

 SCF Done:  E(UB3LYP) =  -613.919240834     A.U. after   15 cycles
 Optimization completed.
    -- Stationary point found.
 Normal termination of Gaussian 16 at Sun Jan  7 20:16:01 2024.

 ----------------------------------------------------------------------
 #P Geom=AllCheck Guess=TCheck SCRF=Check GenChk UB3LYP/6-311++G(d,p) F
 req
 ----------------------------------------------------------------------

 Structure from the checkpoint file:  "243.chk"
 --------
 Oxidized
 --------
 Charge =  0 Multiplicity = 1

                          Input orientation:
 ---------------------------------------------------------------------
 Center     Atomic      Atomic             Coordinates (Angstroms)
 Number     Number       Type             X           Y           Z
 ---------------------------------------------------------------------
      1          6           0        3.741012   -1.041211   -0.325778
      2          6           0        2.455192   -0.291339   -0.083208
      3          6           0        2.468825    1.097143    0.126462
      4          6           0        1.294525    1.802248    0.352416
      5          6           0        0.068376    1.133130    0.374625
      6          6           0       -1.193688    1.883955    0.616487
      7          8           0       -1.206833    3.092088    0.801890
      8          6           0       -2.453485    1.110201    0.625887
      9          6           0       -2.514932   -0.219892    0.429584
     10          6           0       -3.794455   -0.999340    0.440149
     11          6           0       -1.256740   -0.996923    0.184094
     12          8           0       -1.307042   -2.203199    0.005319
     13          6           0        0.037215   -0.253965    0.166685
     14          6           0        1.226394   -0.951566   -0.059623
     15          1           0        4.262234   -0.652317   -1.205742
     16          1           0        4.421441   -0.938118    0.525054
     17          1           0        3.558158   -2.105033   -0.484240
     18          1           0        3.415540    1.627946    0.111287
     19          1           0        1.304992    2.873362    0.514146
     20          1           0       -3.348602    1.697488    0.805737
     21          1           0       -3.762965   -1.778218    1.207013
     22          1           0       -4.649105   -0.347946    0.625867
     23          1           0       -3.936904   -1.516011   -0.512996
     24          1           0        1.170845   -2.022483   -0.217180
 ---------------------------------------------------------------------

 SCF Done:  E(UB3LYP) =  -613.919240834     A.U. after    1 cycles

 Alpha  occ. eigenvalues --  -19.13310 -19.12675 -10.28113 -10.27625 -10.22101
 Alpha  occ. eigenvalues --  -10.21109 -10.20781 -10.20462 -10.20452 -10.19883
 Alpha  occ. eigenvalues --  -10.19824 -10.19626 -10.18517 -10.18365  -1.06567
 Alpha  occ. eigenvalues --   -1.05775  -0.89292  -0.85052  -0.80372  -0.78034
 Alpha  occ. eigenvalues --   -0.74083  -0.71100  -0.68410  -0.63472  -0.62152
 Alpha  occ. eigenvalues --   -0.58821  -0.54110  -0.52221  -0.50116  -0.47462
 Alpha  occ. eigenvalues --   -0.46530  -0.46065  -0.45260  -0.44955  -0.44099
 Alpha  occ. eigenvalues --   -0.42523  -0.42390  -0.41672  -0.40792  -0.40789
 Alpha  occ. eigenvalues --   -0.39940  -0.37835  -0.36845  -0.36688  -0.29741
 Alpha  occ. eigenvalues --   -0.28312  -0.27915  -0.27127  -0.27084
 Alpha virt. eigenvalues --   -0.12255  -0.05481  -0.03455  -0.01255  -0.00476
 Alpha virt. eigenvalues --    0.00833   0.01740   0.02165   0.02247   0.02765
 Alpha virt. eigenvalues --    0.03338   0.03383   0.04095   0.04818   0.05824

  Beta  occ. eigenvalues --  -19.13310 -19.12675 -10.28113 -10.27625 -10.22101
  Beta  occ. eigenvalues --  -10.21109 -10.20781 -10.20462 -10.20452 -10.19883
  Beta  occ. eigenvalues --  -10.19824 -10.19626 -10.18517 -10.18365  -1.06567
  Beta  occ. eigenvalues --   -1.05775  -0.89292  -0.85052  -0.80372  -0.78034
  Beta  occ. eigenvalues --   -0.74083  -0.71100  -0.68410  -0.63472  -0.62152
  Beta  occ. eigenvalues --   -0.58821  -0.54110  -0.52221  -0.50116  -0.47462
  Beta  occ. eigenvalues --   -0.46530  -0.46065  -0.45260  -0.44955  -0.44099
  Beta  occ. eigenvalues --   -0.42523  -0.42390  -0.41672  -0.40792  -0.40789
  Beta  occ. eigenvalues --   -0.39940  -0.37835  -0.36845  -0.36688  -0.29741
  Beta  occ. eigenvalues --   -0.28312  -0.27915  -0.27127  -0.27084
  Beta virt. eigenvalues --   -0.12255  -0.05481  -0.03455  -0.01255  -0.00476
  Beta virt. eigenvalues --    0.00833   0.01740   0.02165   0.02247   0.02765
  Beta virt. eigenvalues --    0.03338   0.03383   0.04095   0.04818   0.05824

 Mulliken charges and spin densities:
               1          2
     1  C   -0.412022   0.000000
     2  C    0.556111  -0.000000
     3  C   -0.301854   0.000000
     4  C    0.074869   0.000000
     5  C    0.452901  -0.000000
     6  C   -0.785564   0.000000
     7  O   -0.235565  -0.000000
     8  C   -0.463124  -0.000000
     9  C    1.045310   0.000000
    10  C   -0.270219   0.000000
    11  C   -0.753566  -0.000000
    12  O   -0.204225   0.000000
    13  C   -0.073507   0.000000
    14  C   -0.336685  -0.000000
    15  H    0.162065  -0.000000
    16  H    0.164019  -0.000000
    17  H    0.171833   0.000000
    18  H    0.176397  -0.000000
    19  H    0.177480   0.000000
    20  H    0.180194  -0.000000
    21  H    0.184843   0.000000
    22  H    0.159161   0.000000
    23  H    0.184830   0.000000
    24  H    0.146319   0.000000
 Sum of Mulliken charges =  -0.00000   0.00000

 Dipole moment (field-independent basis, Debye):
    X=              1.5077    Y=             -0.9445    Z=             -0.2937  Tot=              1.8032
 Quadrupole moment (field-independent basis, Debye-Ang):
   XX=            -64.7554   YY=            -96.4437   ZZ=            -83.0355
   XY=              1.6433   XZ=             -1.2413   YZ=             -2.4580

  Exact polarizability: 191.904   1.381 171.595 -11.212  14.020  81.718
 Approx polarizability: 261.852   4.289 336.410 -13.181  31.813 130.593

                      1                      2                      3
                      A                      A                      A
 Frequencies --     13.9703                56.7460                95.8576
 Red. masses --      1.0355                 5.3360                 4.3751
 Frc consts  --      0.0001                 0.0101                 0.0237
 IR Inten    --      0.3134                 7.5185                 0.5350

                      4                      5                      6
                      A                      A                      A
 Frequencies --    131.2211               144.5260               182.1774
 Red. masses --      1.4860                 2.7264                 2.7000
 Frc consts  --      0.0151                 0.0336                 0.0528
 IR Inten    --      0.1027                 0.6369                 1.3442

                      7                      8                      9
                      A                      A                      A
 Frequencies --    198.7638               277.5804               292.4308
 Red. masses --      3.8672                 4.0286                 3.2499
 Frc consts  --      0.0900                 0.1829                 0.1637
 IR Inten    --      0.6496                 0.6961                 0.3234

                     10                     11                     12
                      A                      A                      A
 Frequencies --    342.6379               355.9476               376.9765
 Red. masses --      5.3851                 3.7971                 5.0096
 Frc consts  --      0.3725                 0.2834                 0.4194
 IR Inten    --      5.9873                 0.3675                 3.0724

                     13                     14                     15
                      A                      A                      A
 Frequencies --    410.8538               437.7030               454.7429
 Red. masses --      6.2456                 3.1538                 6.1399
 Frc consts  --      0.6212                 0.3560                 0.7481
 IR Inten    --      9.6998                 1.1981                12.9785

                     16                     17                     18
                      A                      A                      A
 Frequencies --    495.2350               525.7748               639.9199
 Red. masses --      8.6579                 3.8182                 4.7816
 Frc consts  --      1.2511                 0.6219                 1.1536
 IR Inten    --      1.5882                 6.4931                 0.1560

                     19                     20                     21
                      A                      A                      A
 Frequencies --    679.3712               681.6673               692.6121
 Red. masses --      3.2253                 6.3756                 4.4203
 Frc consts  --      0.8771                 1.7455                 1.2494
 IR Inten    --      9.6481                 3.1935                 3.1085

                     22                     23                     24
                      A                      A                      A
 Frequencies --    713.7208               734.8914               793.7900
 Red. masses --      3.9321                 5.5498                 5.9813
 Frc consts  --      1.1801                 1.7659                 2.2205
 IR Inten    --      4.3455                 1.2350                 0.0254

                     25                     26                     27
                      A                      A                      A
 Frequencies --    855.7087               870.7657               914.4952
 Red. masses --      1.3280                 4.9643                 1.4820
 Frc consts  --      0.5729                 2.2177                 0.7302
 IR Inten    --     32.9326                17.2573                15.9514

                     28                     29                     30
                      A                      A                      A
 Frequencies --    936.6665               981.6482              1005.3540
 Red. masses --      1.3759                 2.3317                 1.3503
 Frc consts  --      0.7112                 1.3238                 0.8041
 IR Inten    --      0.0104                26.8272                 0.5991

                     31                     32                     33
                      A                      A                      A
 Frequencies --   1017.0385              1040.9402              1058.1779
 Red. masses --      1.5363                 2.0740                 1.5319
 Frc consts  --      0.9363                 1.3241                 1.0107
 IR Inten    --      9.5933                 2.9457                 2.4682

                     34                     35                     36
                      A                      A                      A
 Frequencies --   1063.8885              1104.7074              1133.4893
 Red. masses --      1.5597                 2.9134                 2.6104
 Frc consts  --      1.0401                 2.0948                 1.9760
 IR Inten    --      4.6022                 7.1982                 1.8383

                     37                     38                     39
                      A                      A                      A
 Frequencies --   1168.8869              1213.8036              1257.9045
 Red. masses --      1.4943                 2.1991                 1.8815
 Frc consts  --      1.2029                 1.9090                 1.7541
 IR Inten    --     26.6576                14.5741                 6.4264

                     40                     41                     42
                      A                      A                      A
 Frequencies --   1289.1034              1312.8133              1353.6343
 Red. masses --      2.1697                 3.7818                 5.5984
 Frc consts  --      2.1244                 3.8402                 6.0439
 IR Inten    --     89.9549               244.7613                20.0736

                     43                     44                     45
                      A                      A                      A
 Frequencies --   1361.6190              1415.2600              1415.7195
 Red. masses --      2.5633                 1.2834                 1.2518
 Frc consts  --      2.8000                 1.5145                 1.4783
 IR Inten    --     27.6903                13.9276                 3.1993

                     46                     47                     48
                      A                      A                      A
 Frequencies --   1441.2307              1467.1180              1479.0297
 Red. masses --      2.9944                 1.0434                 1.0735
 Frc consts  --      3.6646                 1.3232                 1.3836
 IR Inten    --      6.5225                 9.0220                 9.7328

                     49                     50                     51
                      A                      A                      A
 Frequencies --   1486.6993              1496.8458              1520.6927
 Red. masses --      1.0431                 1.1769                 2.9393
 Frc consts  --      1.3584                 1.5536                 4.0047
 IR Inten    --      7.9255                 3.9094                 0.0357

                     52                     53                     54
                      A                      A                      A
 Frequencies --   1604.7255              1635.9042              1675.6482
 Red. masses --      6.7482                 6.0110                 8.1732
 Frc consts  --     10.2386                 9.4779                13.5210
 IR Inten    --      9.5984               115.5845                65.6479

                     55                     56                     57
                      A                      A                      A
 Frequencies --   1715.7229              1721.3173              3026.9799
 Red. masses --     10.4334                12.0099                 1.0375
 Frc consts  --     18.0954                20.9657                 5.6007
 IR Inten    --     76.2503               338.9075                22.2088

                     58                     59                     60
                      A                      A                      A
 Frequencies --   3036.4329              3076.2929              3087.2320
 Red. masses --      1.0357                 1.1002                 1.0987
 Frc consts  --      5.6260                 6.1342                 6.1696
 IR Inten    --      9.3928                12.0826                 6.1339

                     61                     62                     63
                      A                      A                      A
 Frequencies --   3111.0237              3121.5510              3161.4991
 Red. masses --      1.1004                 1.1034                 1.0895
 Frc consts  --      6.2751                 6.3344                 6.4160
 IR Inten    --     12.5723                12.4477                10.8684

                     64                     65                     66
                      A                      A                      A
 Frequencies --   3168.3727              3186.3813              3196.7329
 Red. masses --      1.0916                 1.0905                 1.0928
 Frc consts  --      6.4565                 6.5233                 6.5797
 IR Inten    --      7.7255                 2.6375                 3.1972

 - Thermochemistry -
 -------------------
 Temperature   298.150 Kelvin.  Pressure   1.00000 Atm.
 Atom     1 has atomic number  6 and mass  12.00000

 Molecular mass:   186.06808 amu.
 Principal axes and moments of inertia in atomic units:
                           1         2         3
     Eigenvalues --  1574.888333189.581314742.29911
           X            0.99419   0.04165   0.09926
           Y           -0.02646   0.98837  -0.14972
           Z           -0.10434   0.14623   0.98373
 This molecule is an asymmetric top.
 Rotational symmetry number  1.
 Warning -- assumption of classical behavior for rotation
           may cause significant error
 Rotational temperatures (Kelvin)      0.05500     0.02716     0.01826
 Rotational constants (GHZ):           1.14595     0.56582     0.38056
 Zero-point vibrational energy     489979.5 (Joules/Mol)
                                  117.10791 (Kcal/Mol)
 Warning -- explicit consideration of  17 degrees of freedom as
           vibrations may cause significant error
 Vibrational temperatures:     20.10    81.64   137.92   188.80   207.94
          (Kelvin)            262.11   285.98   399.38   420.74   492.98
                              512.13   542.39   591.13   629.76   654.27
                              712.53   756.47   920.70   977.46   980.77
                              996.51  1026.89  1057.34  1142.09  1231.17
                             1252.84  1315.75  1347.65  1412.37  1446.48
                             1463.29  1497.68  1522.48  1530.70  1589.43
                             1630.84  1681.77  1746.39  1809.84  1854.73
                             1888.85  1947.58  1959.07  2036.24  2036.90
                             2073.61  2110.86  2127.99  2139.03  2153.63
                             2187.94  2308.84  2353.70  2410.88  2468.54
                             2476.59  4355.15  4368.75  4426.10  4441.84
                             4476.07  4491.22  4548.69  4558.58  4584.49
                             4599.39

 Zero-point correction=                           0.186623 (Hartree/Particle)
 Thermal correction to Energy=                    0.199013
 Thermal correction to Enthalpy=                  0.199957
 Thermal correction to Gibbs Free Energy=         0.146470
 Sum of electronic and zero-point Energies=           -613.732618
 Sum of electronic and thermal Energies=              -613.720228
 Sum of electronic and thermal Enthalpies=            -613.719284
 Sum of electronic and thermal Free Energies=         -613.772771

                     E (Thermal)             CV                S
                      KCal/Mol        Cal/Mol-Kelvin    Cal/Mol-Kelvin
 Total                  124.883             46.558            112.573
 Electronic               0.000              0.000              0.000
 Translational            0.889              2.981             41.569
 Rotational               0.889              2.981             31.544
 Vibrational            123.105             40.596             39.460
 Vibration     1          0.593              1.986              7.347
 Vibration     2          0.596              1.975              4.567
 Vibration     3          0.603              1.952              3.537
 Vibration     4          0.612              1.922              2.928
 Vibration     5          0.616              1.909              2.743
 Vibration     6          0.630              1.864              2.306
 Vibration     7          0.637              1.842              2.145
 Vibration     8          0.679              1.715              1.549
 Vibration     9          0.688              1.688              1.460
 Vibration    10          0.722              1.590              1.200
 Vibration    11          0.731              1.563              1.140
 Vibration    12          0.748              1.519              1.051
 Vibration    13          0.775              1.447              0.924
 Vibration    14          0.798              1.388              0.834
 Vibration    15          0.813              1.350              0.782
 Vibration    16          0.851              1.261              0.670
 Vibration    17          0.881              1.193              0.597

 Optimization completed on the basis of negligible forces.
    -- Stationary point found.
 Normal termination of Gaussian 16 at Sun Jan  7 20:48:15 2024.
