 Gaussian 16, Revision A.03,
 Gaussian 16:  ES64L-G16RevA.03 25-Dec-2016

 ----------------------------------------------------------------
 #P UB3LYP/6-311++G(d,p) SCRF=(PCM,Solvent=n,n-DiMethylFormamide)
 ----------------------------------------------------------------

 -------
 Reduced
 -------
 Symbolic Z-matrix:
 Charge = -2 Multiplicity = 1

                         Standard orientation:
 ---------------------------------------------------------------------
 Center     Atomic      Atomic             Coordinates (Angstroms)
 Number     Number       Type             X           Y           Z
 ---------------------------------------------------------------------
      1          8           0       -0.274719    2.670413    0.091936
      2          6           0       -0.307787    1.363595    0.103112
      3          6           0        0.910964    0.599352    0.055360
      4          6           0        2.194814    1.222283   -0.032263
      5          6           0        3.347081    0.446843   -0.083167
      6          6           0        3.284050   -0.959542   -0.087734
      7          6           0        2.032958   -1.583491   -0.033125
      8          6           0        0.884398   -0.809126    0.046856
      9          8           0       -0.310267   -1.501211    0.181205
     10          6           0       -1.513636   -0.809145    0.051530
     11          6           0       -2.662989   -1.569308   -0.019229
     12          6           0       -3.928391   -0.935695   -0.072364
     13          6           0       -3.977522    0.458727   -0.106540
     14          6           0       -2.813014    1.223077   -0.072761
     15          6           0       -1.529155    0.613403    0.049933
     16          8           0        2.257594    2.585255   -0.037253
     17          1           0        4.309020    0.950049   -0.113985
     18          1           0        4.182924   -1.565341   -0.115524
     19          8           0        1.941051   -2.970114   -0.018597
     20          1           0       -2.579869   -2.652045    0.008793
     21          1           0       -4.836845   -1.531237   -0.089340
     22          1           0       -4.944731    0.956609   -0.161939
     23          1           0       -2.844488    2.305313   -0.116492
     24          1           0        1.276065    2.870636    0.012524
     25          1           0        0.998026   -3.174574    0.039991
 ---------------------------------------------------------------------

 SCF Done:  E(UB3LYP) =  -801.508338826     A.U. after   20 cycles

 The electronic state is 1-A.
 Alpha  occ. eigenvalues --  -19.14379 -19.13350 -19.09253 -19.02052 -10.20304
 Alpha  occ. eigenvalues --  -10.19804 -10.19641 -10.18750 -10.15212 -10.14202
 Alpha  occ. eigenvalues --  -10.14034 -10.13994 -10.13627 -10.13517 -10.13397
 Alpha  occ. eigenvalues --  -10.12618 -10.12080  -1.06384  -1.03243  -1.00879
 Alpha  occ. eigenvalues --   -0.92974  -0.82148  -0.81112  -0.73830  -0.72922
 Alpha  occ. eigenvalues --   -0.70570  -0.69142  -0.62285  -0.61203  -0.57153
 Alpha  occ. eigenvalues --   -0.55977  -0.52333  -0.52202  -0.50722  -0.49093
 Alpha  occ. eigenvalues --   -0.44961  -0.44454  -0.43309  -0.43064  -0.40178
 Alpha  occ. eigenvalues --   -0.39348  -0.38944  -0.37835  -0.37758  -0.36976
 Alpha  occ. eigenvalues --   -0.36798  -0.36103  -0.34410  -0.33028  -0.32882
 Alpha  occ. eigenvalues --   -0.31977  -0.30757  -0.30000  -0.27782  -0.22937
 Alpha  occ. eigenvalues --   -0.21691  -0.20765  -0.20542  -0.17566  -0.06947
 Alpha virt. eigenvalues --    0.00017   0.00575   0.00837   0.01198   0.02077
 Alpha virt. eigenvalues --    0.02171   0.02727   0.04266   0.04376   0.04694
 Alpha virt. eigenvalues --    0.04715   0.05203   0.06798   0.07049   0.07399

  Beta  occ. eigenvalues --  -19.14379 -19.13350 -19.09253 -19.02052 -10.20304
  Beta  occ. eigenvalues --  -10.19804 -10.19641 -10.18750 -10.15212 -10.14202
  Beta  occ. eigenvalues --  -10.14034 -10.13994 -10.13627 -10.13517 -10.13397
  Beta  occ. eigenvalues --  -10.12618 -10.12080  -1.06384  -1.03243  -1.00879
  Beta  occ. eigenvalues --   -0.92974  -0.82148  -0.81112  -0.73830  -0.72922
  Beta  occ. eigenvalues --   -0.70570  -0.69142  -0.62285  -0.61203  -0.57153
  Beta  occ. eigenvalues --   -0.55977  -0.52333  -0.52202  -0.50722  -0.49093
  Beta  occ. eigenvalues --   -0.44961  -0.44454  -0.43309  -0.43064  -0.40178
  Beta  occ. eigenvalues --   -0.39348  -0.38944  -0.37835  -0.37758  -0.36976
  Beta  occ. eigenvalues --   -0.36798  -0.36103  -0.34410  -0.33028  -0.32882
  Beta  occ. eigenvalues --   -0.31977  -0.30757  -0.30000  -0.27782  -0.22937
  Beta  occ. eigenvalues --   -0.21691  -0.20765  -0.20542  -0.17566  -0.06947
  Beta virt. eigenvalues --    0.00017   0.00575   0.00837   0.01198   0.02077
  Beta virt. eigenvalues --    0.02171   0.02727   0.04266   0.04376   0.04694
  Beta virt. eigenvalues --    0.04715   0.05203   0.06798   0.07049   0.07399

 Mulliken charges and spin densities:
               1          2
     1  O   -0.721540  -0.000000
     2  C   -0.089393   0.000000
     3  C    1.159212   0.000000
     4  C   -0.200277   0.000000
     5  C   -0.122247  -0.000000
     6  C   -0.124219  -0.000000
     7  C   -0.827349  -0.000000
     8  C   -0.409920  -0.000000
     9  O   -0.231346  -0.000000
    10  C   -0.969445  -0.000000
    11  C   -0.412874  -0.000000
    12  C   -0.504387  -0.000000
    13  C   -0.297341   0.000000
    14  C   -0.110696   0.000000
    15  C    1.146949   0.000000
    16  O   -0.466225   0.000000
    17  H    0.157390  -0.000000
    18  H    0.165450  -0.000000
    19  O   -0.339543   0.000000
    20  H    0.136333   0.000000
    21  H    0.137877  -0.000000
    22  H    0.134671  -0.000000
    23  H    0.142594  -0.000000
    24  H    0.351922  -0.000000
    25  H    0.294406   0.000000
 Sum of Mulliken charges =  -2.00000  -0.00000

 Dipole moment (field-independent basis, Debye):
    X=              0.0433    Y=             -8.2296    Z=             -0.0640  Tot=              8.2300
 Quadrupole moment (field-independent basis, Debye-Ang):
   XX=           -158.1737   YY=           -146.9273   ZZ=           -113.0952
   XY=              2.1595   XZ=              0.2914   YZ=             -0.8431

 Normal termination of Gaussian 16 at Sat Jan 13 19:21:54 2024.
