 Q-Chem 5.4, Q-Chem, Inc., Pleasanton, CA (2021)
 Q-Chem 5.4.0 for Intel X86 EM64T Linux

User input:
--------------------------------------------------------------
$molecule
-2 1
C                 -1.3502310000      2.0065570000      0.7882860000
C                 -2.5863810000      1.4302110000      0.2961270000
C                 -2.6141120000      0.2205830000     -0.3960320000
C                 -1.4664350000     -0.5741560000     -0.6991960000
C                 -0.2119690000     -0.0316940000     -0.2136320000
C                 -0.2240510000      1.1797220000      0.4813460000
O                 -1.5351390000     -1.6924350000     -1.3516510000
H                 -3.5599730000     -0.1824770000     -0.7506980000
O                 -1.3062270000      3.1215560000      1.4284740000
I                  1.6558960000      2.0167180000      1.2258770000
C                  1.0348090000     -0.8253920000     -0.4995740000
C                 -3.8439100000      2.2339930000      0.5944290000
C                 -3.9477130000      3.4628950000     -0.3349520000
C                 -5.1505140000      1.4284400000      0.5562290000
H                  0.7354080000     -1.7177190000     -1.0550440000
H                  1.5562290000     -1.1270700000      0.4195850000
H                  1.7624580000     -0.2543410000     -1.0931290000
H                 -3.7145190000      2.6345990000      1.6092430000
H                 -4.8085170000      4.0975700000     -0.0666020000
H                 -4.0710670000      3.1444160000     -1.3777040000
H                 -3.0343270000      4.0544950000     -0.2499580000
H                 -5.9974510000      2.0509890000      0.8742750000
H                 -5.0990440000      0.5553920000      1.2146940000
H                 -5.3724200000      1.0633180000     -0.4533300000
$end

$rem
BASIS  =  6-311++G(d,p)
GUI  =  2
JOB_TYPE  =  SP
METHOD  =  B3LYP
SCF_CONVERGENCE  = 8
SOLVENT_METHOD = sm12
$end

$smx
solvent dimethylformamide
charges CM5
$end

--------------------------------------------------------------

             Standard Nuclear Orientation (Angstroms)
    I     Atom           X                Y                Z
 ----------------------------------------------------------------
    1      C      -1.3502310000     2.0065570000     0.7882860000
    2      C      -2.5863810000     1.4302110000     0.2961270000
    3      C      -2.6141120000     0.2205830000    -0.3960320000
    4      C      -1.4664350000    -0.5741560000    -0.6991960000
    5      C      -0.2119690000    -0.0316940000    -0.2136320000
    6      C      -0.2240510000     1.1797220000     0.4813460000
    7      O      -1.5351390000    -1.6924350000    -1.3516510000
    8      H      -3.5599730000    -0.1824770000    -0.7506980000
    9      O      -1.3062270000     3.1215560000     1.4284740000
   10      I       1.6558960000     2.0167180000     1.2258770000
   11      C       1.0348090000    -0.8253920000    -0.4995740000
   12      C      -3.8439100000     2.2339930000     0.5944290000
   13      C      -3.9477130000     3.4628950000    -0.3349520000
   14      C      -5.1505140000     1.4284400000     0.5562290000
   15      H       0.7354080000    -1.7177190000    -1.0550440000
   16      H       1.5562290000    -1.1270700000     0.4195850000
   17      H       1.7624580000    -0.2543410000    -1.0931290000
   18      H      -3.7145190000     2.6345990000     1.6092430000
   19      H      -4.8085170000     4.0975700000    -0.0666020000
   20      H      -4.0710670000     3.1444160000    -1.3777040000
   21      H      -3.0343270000     4.0544950000    -0.2499580000
   22      H      -5.9974510000     2.0509890000     0.8742750000
   23      H      -5.0990440000     0.5553920000     1.2146940000
   24      H      -5.3724200000     1.0633180000    -0.4533300000
 ----------------------------------------------------------------

   18   -7457.7702601347      4.04e-09  Convergence criterion met
 Total energy in the final basis set =    -7458.0599265141

                    Orbital Energies (a.u.)
 --------------------------------------------------------------

 Alpha MOs
 -- Occupied --
********-176.2893-165.6926-165.6912-165.6910 -35.7855 -31.2775 -31.2734
-31.2731 -22.9284 -22.9275 -22.9273 -22.9244 -22.9244 -19.0296 -19.0261
-10.1936 -10.1889 -10.1881 -10.1800 -10.1715 -10.1707 -10.1673 -10.1593
-10.1548 -10.1440  -6.3344  -4.7438  -4.7335  -4.7327  -2.0096  -2.0065
 -2.0060  -1.9971  -1.9970  -0.9488  -0.9389  -0.8196  -0.7986  -0.7452
 -0.6996  -0.6931  -0.6590  -0.6355  -0.5970  -0.5420  -0.5294  -0.4787
 -0.4541  -0.4474  -0.4309  -0.4253  -0.4131  -0.3975  -0.3919  -0.3771
 -0.3669  -0.3655  -0.3641  -0.3475  -0.3438  -0.3292  -0.3232  -0.3156
 -0.2762  -0.2591  -0.2356  -0.2267  -0.2079  -0.2031  -0.1317

          Ground-State Mulliken Net Atomic Charges

     Atom                 Charge (a.u.)
  ----------------------------------------
      1 C                    -1.225729
      2 C                     0.034696
      3 C                    -0.876739
      4 C                    -2.220382
      5 C                    -0.450001
      6 C                    -1.063152
      7 O                    -0.387027
      8 H                    -0.085712
      9 O                    -0.205939
     10 I                     0.005489
     11 C                     0.442105
     12 C                     1.683659
     13 C                    -0.200438
     14 C                     0.706743
     15 H                     0.173356
     16 H                     0.148504
     17 H                     0.148043
     18 H                     0.069356
     19 H                     0.342020
     20 H                     0.101832
     21 H                     0.123862
     22 H                     0.467959
     23 H                     0.091378
     24 H                     0.176117
  ----------------------------------------
  Sum of atomic charges =    -2.000000

                    Cartesian Multipole Moments
 -----------------------------------------------------------------
    Charge (ESU x 10^10)
                -9.6064
    Dipole Moment (Debye)
         X       9.3767      Y      -7.9265      Z      -1.3284
       Tot      12.3497
    Quadrupole Moments (Debye-Ang)
        XX    -148.2734     XY       4.0484     YY    -163.8186
        XZ      -5.7119     YZ     -25.2177     ZZ    -129.2166

 Total job time:  475.56s(wall), 3644.74s(cpu)
        *  Thank you very much for using Q-Chem.  Have a nice day.  *
