 Gaussian 16, Revision A.03,
 Gaussian 16:  ES64L-G16RevA.03 25-Dec-2016

 ---------------------------------------------------------
 #P UB3LYP/genecp SCRF=(PCM,Solvent=n,n-DiMethylFormamide)
 ---------------------------------------------------------

 ------------------
 Radical PCM in DMF
 ------------------
 Symbolic Z-matrix:
 Charge = -1 Multiplicity = 2

                         Standard orientation:
 ---------------------------------------------------------------------
 Center     Atomic      Atomic             Coordinates (Angstroms)
 Number     Number       Type             X           Y           Z
 ---------------------------------------------------------------------
      1          6           0       -0.348605   -2.045011   -0.000633
      2          6           0       -1.773487   -1.784673   -0.000619
      3          6           0       -2.352582   -0.545585   -0.000304
      4          6           0       -1.499515    0.650126   -0.000291
      5          6           0       -0.055036    0.405303   -0.000290
      6          6           0        0.493299   -0.853858   -0.000362
      7          8           0       -1.965460    1.816140   -0.000276
      8          8           0        0.104250   -3.214388   -0.000789
      9         53           0        2.571163   -1.264219    0.000255
     10         53           0        1.097995    2.185188   -0.000075
     11          1           0       -2.371956   -2.686823   -0.000704
     12          6           0       -3.882294   -0.360651    0.000207
     13          6           0       -4.630426   -1.707928   -0.000045
     14          6           0       -4.319168    0.418895   -1.263956
     15          6           0       -4.318100    0.417761    1.265411
     16          1           0       -4.395733   -2.306047    0.885160
     17          1           0       -4.396592   -2.305276   -0.886003
     18          1           0       -5.709268   -1.520254    0.000585
     19          1           0       -4.045842   -0.134733   -2.168169
     20          1           0       -3.841690    1.397295   -1.296520
     21          1           0       -5.407787    0.552949   -1.265271
     22          1           0       -4.044521   -0.137050    2.168823
     23          1           0       -5.406664    0.552339    1.267529
     24          1           0       -3.840176    1.395922    1.298852
 ---------------------------------------------------------------------

 SCF Done:  E(UB3LYP) =  -1133.41080449     A.U. after   21 cycles

 The electronic state is 2-A.
 Alpha  occ. eigenvalues --  -19.08657 -19.08499 -10.23648 -10.23501 -10.21771
 Alpha  occ. eigenvalues --  -10.21627 -10.18648 -10.18163 -10.16666 -10.15285
 Alpha  occ. eigenvalues --  -10.14792 -10.14790  -6.83920  -6.83842  -4.86339
 Alpha  occ. eigenvalues --   -4.86262  -4.85251  -4.85176  -4.85146  -4.85063
 Alpha  occ. eigenvalues --   -1.91156  -1.91078  -1.90809  -1.90735  -1.90729
 Alpha  occ. eigenvalues --   -1.90648  -1.89789  -1.89787  -1.89709  -1.89706
 Alpha  occ. eigenvalues --   -1.01463  -1.01213  -0.84526  -0.81520  -0.75680
 Alpha  occ. eigenvalues --   -0.71940  -0.68517  -0.67769  -0.67737  -0.66881
 Alpha  occ. eigenvalues --   -0.59534  -0.57095  -0.52814  -0.49490  -0.46924
 Alpha  occ. eigenvalues --   -0.44166  -0.43635  -0.42519  -0.42386  -0.42381
 Alpha  occ. eigenvalues --   -0.39721  -0.39588  -0.38052  -0.37364  -0.36717
 Alpha  occ. eigenvalues --   -0.35802  -0.35076  -0.33586  -0.32995  -0.32278
 Alpha  occ. eigenvalues --   -0.31742  -0.27771  -0.27608  -0.27050  -0.25745
 Alpha  occ. eigenvalues --   -0.25032  -0.23771  -0.22997  -0.16910
 Alpha virt. eigenvalues --   -0.05222  -0.01987  -0.00328  -0.00145   0.01382
 Alpha virt. eigenvalues --    0.01597   0.01768   0.02499   0.03721   0.04122
 Alpha virt. eigenvalues --    0.04175   0.04289   0.05794   0.06371   0.07108

  Beta  occ. eigenvalues --  -19.07989 -19.07817 -10.23509 -10.23372 -10.21621
  Beta  occ. eigenvalues --  -10.21476 -10.18653 -10.18069 -10.16593 -10.15285
  Beta  occ. eigenvalues --  -10.14786 -10.14784  -6.83918  -6.83840  -4.86342
  Beta  occ. eigenvalues --   -4.86265  -4.85242  -4.85167  -4.85145  -4.85063
  Beta  occ. eigenvalues --   -1.91158  -1.91081  -1.90806  -1.90733  -1.90731
  Beta  occ. eigenvalues --   -1.90652  -1.89783  -1.89781  -1.89703  -1.89701
  Beta  occ. eigenvalues --   -1.00298  -1.00024  -0.84030  -0.81312  -0.75477
  Beta  occ. eigenvalues --   -0.71519  -0.68391  -0.67748  -0.67579  -0.66320
  Beta  occ. eigenvalues --   -0.59194  -0.56703  -0.52593  -0.49276  -0.46692
  Beta  occ. eigenvalues --   -0.43795  -0.43401  -0.42467  -0.41809  -0.40955
  Beta  occ. eigenvalues --   -0.39431  -0.38290  -0.37892  -0.36588  -0.36304
  Beta  occ. eigenvalues --   -0.35064  -0.34927  -0.33399  -0.32885  -0.32231
  Beta  occ. eigenvalues --   -0.30331  -0.27730  -0.26734  -0.25454  -0.25340
  Beta  occ. eigenvalues --   -0.24451  -0.23207  -0.22691
  Beta virt. eigenvalues --   -0.09881  -0.05100  -0.00537  -0.00283   0.00033
  Beta virt. eigenvalues --    0.01627   0.01785   0.02015   0.03730   0.04141
  Beta virt. eigenvalues --    0.04196   0.04197   0.04356   0.05850   0.06399

 Mulliken charges and spin densities:
               1          2
     1  C   -1.156869   0.075972
     2  C   -0.246381   0.057315
     3  C    1.149790   0.102077
     4  C   -1.007036   0.072371
     5  C    0.111767   0.095066
     6  C    0.834761   0.120217
     7  O   -0.337824   0.251969
     8  O   -0.407377   0.240491
     9  I   -0.111633   0.001088
    10  I   -0.112665   0.000468
    11  H    0.198837  -0.005488
    12  C    0.580385  -0.031087
    13  C   -0.491145   0.000979
    14  C   -0.684466   0.009926
    15  C   -0.684727   0.009920
    16  H    0.133871  -0.000274
    17  H    0.133911  -0.000273
    18  H    0.173677   0.000099
    19  H    0.134286   0.000544
    20  H    0.175900  -0.001114
    21  H    0.151381   0.000150
    22  H    0.134270   0.000541
    23  H    0.151360   0.000153
    24  H    0.175926  -0.001110
 Sum of Mulliken charges =  -1.00000   1.00000

 Dipole moment (field-independent basis, Debye):
    X=              0.2444    Y=              2.4840    Z=              0.0027  Tot=              2.4960
 Quadrupole moment (field-independent basis, Debye-Ang):
   XX=           -136.0981   YY=           -164.7242   ZZ=           -131.1780
   XY=             11.5267   XZ=             -0.0014   YZ=             -0.0045

 Normal termination of Gaussian 16 at Mon Jan 22 18:33:03 2024.
