 Gaussian 16, Revision A.03,
 Gaussian 16:  ES64L-G16RevA.03 25-Dec-2016

 ----------------------------------------------------------------------
 #P UB3LYP/6-311++G(d,p) nosym opt freq SCRF=(PCM,Solvent=n,n-DiMethylF
 ormamide)
 ----------------------------------------------------------------------

 --------
 Oxidized
 --------
 Symbolic Z-matrix:
 Charge =  0 Multiplicity = 1

 SCF Done:  E(UB3LYP) =  -994.887513425     A.U. after   16 cycles
 SCF Done:  E(UB3LYP) =  -994.887593607     A.U. after   12 cycles
 SCF Done:  E(UB3LYP) =  -994.887594518     A.U. after   12 cycles
 SCF Done:  E(UB3LYP) =  -994.887604790     A.U. after   11 cycles
 Optimization completed.
    -- Stationary point found.
 Normal termination of Gaussian 16 at Sat Feb 10 23:26:14 2024.

 ----------------------------------------------------------------------
 #P Geom=AllCheck Guess=TCheck SCRF=Check GenChk UB3LYP/6-311++G(d,p) F
 req
 ----------------------------------------------------------------------

 Structure from the checkpoint file:  "229.chk"
 --------
 Oxidized
 --------
 Charge =  0 Multiplicity = 1

                          Input orientation:
 ---------------------------------------------------------------------
 Center     Atomic      Atomic             Coordinates (Angstroms)
 Number     Number       Type             X           Y           Z
 ---------------------------------------------------------------------
      1          6           0        5.779136   -5.133688    1.238677
      2          6           0        6.792200   -5.041171    0.288452
      3          6           0        6.702442   -4.104961   -0.743341
      4          6           0        4.668891   -4.288864    1.162886
      5          6           0        4.579063   -3.345329    0.122990
      6          6           0        5.599172   -3.259564   -0.825805
      7          6           0        3.599770   -4.408621    2.190979
      8          6           0        2.437617   -3.468854    2.052079
      9          6           0        2.350174   -2.569722    1.062626
     10          6           0        3.403308   -2.439522    0.031763
     11          8           0        3.649655   -5.217947    3.098332
     12          8           0        3.285028   -1.603720   -0.854315
     13          1           0        5.837940   -5.855922    2.042852
     14          1           0        7.651444   -5.698065    0.351312
     15          1           0        5.517465   -2.529260   -1.620848
     16         17           0        1.191439   -3.608263    3.256331
     17          1           0        7.492095   -4.034998   -1.481825
     18          1           0        1.505949   -1.897345    0.972796
 ---------------------------------------------------------------------

 SCF Done:  E(UB3LYP) =  -994.887604790     A.U. after    1 cycles

 Alpha  occ. eigenvalues -- -101.57967 -19.14969 -19.14370 -10.30249 -10.29465
 Alpha  occ. eigenvalues --  -10.27787 -10.22318 -10.21844 -10.21630 -10.20550
 Alpha  occ. eigenvalues --  -10.20471 -10.20399 -10.20341  -9.49415  -7.25885
 Alpha  occ. eigenvalues --   -7.24925  -7.24824  -1.08431  -1.07441  -0.91377
 Alpha  occ. eigenvalues --   -0.89423  -0.82977  -0.78657  -0.77722  -0.70828
 Alpha  occ. eigenvalues --   -0.66030  -0.64322  -0.60001  -0.55938  -0.54132
 Alpha  occ. eigenvalues --   -0.51410  -0.49530  -0.47388  -0.46830  -0.46545
 Alpha  occ. eigenvalues --   -0.45839  -0.44666  -0.44480  -0.43098  -0.39639
 Alpha  occ. eigenvalues --   -0.39109  -0.37743  -0.37451  -0.34041  -0.30298
 Alpha  occ. eigenvalues --   -0.30204  -0.29021  -0.28552  -0.28460
 Alpha virt. eigenvalues --   -0.13795  -0.06417  -0.04377  -0.00680  -0.00127
 Alpha virt. eigenvalues --    0.00760   0.01371   0.01515   0.02709   0.03557
 Alpha virt. eigenvalues --    0.04130   0.04299   0.04970   0.05967   0.06544

  Beta  occ. eigenvalues -- -101.57967 -19.14969 -19.14370 -10.30249 -10.29465
  Beta  occ. eigenvalues --  -10.27787 -10.22318 -10.21844 -10.21630 -10.20550
  Beta  occ. eigenvalues --  -10.20471 -10.20399 -10.20341  -9.49415  -7.25885
  Beta  occ. eigenvalues --   -7.24925  -7.24824  -1.08431  -1.07441  -0.91377
  Beta  occ. eigenvalues --   -0.89423  -0.82977  -0.78657  -0.77722  -0.70828
  Beta  occ. eigenvalues --   -0.66030  -0.64322  -0.60001  -0.55938  -0.54132
  Beta  occ. eigenvalues --   -0.51410  -0.49530  -0.47388  -0.46830  -0.46545
  Beta  occ. eigenvalues --   -0.45839  -0.44666  -0.44480  -0.43098  -0.39639
  Beta  occ. eigenvalues --   -0.39109  -0.37743  -0.37451  -0.34041  -0.30298
  Beta  occ. eigenvalues --   -0.30204  -0.29021  -0.28552  -0.28460
  Beta virt. eigenvalues --   -0.13795  -0.06417  -0.04377  -0.00680  -0.00127
  Beta virt. eigenvalues --    0.00760   0.01371   0.01515   0.02709   0.03557
  Beta virt. eigenvalues --    0.04130   0.04299   0.04970   0.05967   0.06544

 Mulliken charges and spin densities:
               1          2
     1  C    0.056953   0.000000
     2  C   -0.381877   0.000000
     3  C   -0.369291   0.000000
     4  C    0.266311   0.000000
     5  C    0.367464  -0.000000
     6  C    0.205399   0.000000
     7  C   -1.467986  -0.000000
     8  C    1.065248   0.000000
     9  C    0.249298  -0.000000
    10  C   -0.937707   0.000000
    11  O   -0.225017   0.000000
    12  O   -0.279046  -0.000000
    13  H    0.184108  -0.000000
    14  H    0.218194   0.000000
    15  H    0.187484   0.000000
    16  Cl   0.393881  -0.000000
    17  H    0.214757  -0.000000
    18  H    0.251827   0.000000
 Sum of Mulliken charges =  -0.00000   0.00000

 Dipole moment (field-independent basis, Debye):
    X=              3.1553    Y=             -0.7275    Z=             -1.7500  Tot=              3.6807
 Quadrupole moment (field-independent basis, Debye-Ang):
   XX=            -43.8979   YY=            -81.0351   ZZ=            -92.7088
   XY=            -19.5054   XZ=             -8.4225   YZ=             15.3107

  Exact polarizability: 200.208 -35.536 163.728 -52.145 -60.915 202.247
 Approx polarizability: 219.292 -39.106 210.266 -50.658 -94.272 256.114

                      1                      2                      3
                      A                      A                      A
 Frequencies --     49.8507               116.6271               138.8704
 Red. masses --     11.7886                 4.6387                 8.4400
 Frc consts  --      0.0173                 0.0372                 0.0959
 IR Inten    --      7.8883                 0.1123                 8.7285

                      4                      5                      6
                      A                      A                      A
 Frequencies --    199.1706               210.2420               281.8873
 Red. masses --      4.9601                10.3395                 7.8755
 Frc consts  --      0.1159                 0.2693                 0.3687
 IR Inten    --      0.6580                 0.3723                 0.6340

                      7                      8                      9
                      A                      A                      A
 Frequencies --    331.3060               362.6992               380.1420
 Red. masses --     15.8816                 5.1844                11.0524
 Frc consts  --      1.0271                 0.4018                 0.9410
 IR Inten    --      2.5323                 0.0253                25.3543

                     10                     11                     12
                      A                      A                      A
 Frequencies --    428.8548               455.5346               480.4789
 Red. masses --      3.5870                 9.9755                 3.9770
 Frc consts  --      0.3887                 1.2196                 0.5409
 IR Inten    --      1.4784                16.0940                 0.1108

                     13                     14                     15
                      A                      A                      A
 Frequencies --    497.2603               620.0619               664.6457
 Red. masses --      9.7096                 7.3443                 6.0403
 Frc consts  --      1.4146                 1.6637                 1.5721
 IR Inten    --      2.2137                55.5388                 0.2385

                     16                     17                     18
                      A                      A                      A
 Frequencies --    682.0138               714.2097               718.5600
 Red. masses --      3.6225                 6.6428                 3.1703
 Frc consts  --      0.9928                 1.9964                 0.9644
 IR Inten    --     10.9846                 6.9368                52.3589

                     19                     20                     21
                      A                      A                      A
 Frequencies --    791.8695               808.6278               814.6632
 Red. masses --      1.7150                 5.3676                 3.7529
 Frc consts  --      0.6336                 2.0679                 1.4675
 IR Inten    --     57.7421                26.1352                 6.1912

                     22                     23                     24
                      A                      A                      A
 Frequencies --    851.3807               913.6447               918.0115
 Red. masses --      8.3812                 1.3946                 1.5252
 Frc consts  --      3.5794                 0.6859                 0.7573
 IR Inten    --    208.9140                14.9179                17.3286

                     25                     26                     27
                      A                      A                      A
 Frequencies --   1002.3547              1026.4874              1043.8572
 Red. masses --      1.3903                 1.3403                 3.2193
 Frc consts  --      0.8230                 0.8320                 2.0668
 IR Inten    --      1.4052                 0.0087                11.5614

                     28                     29                     30
                      A                      A                      A
 Frequencies --   1075.7850              1099.1604              1129.7420
 Red. masses --      3.6316                 2.9462                 1.7574
 Frc consts  --      2.4763                 2.0972                 1.3215
 IR Inten    --     94.2669                 5.7403                63.5072

                     31                     32                     33
                      A                      A                      A
 Frequencies --   1180.7353              1233.5071              1265.9773
 Red. masses --      1.1143                 2.2076                 2.3467
 Frc consts  --      0.9153                 1.9790                 2.2160
 IR Inten    --      6.6712                49.5823               369.7880

                     34                     35                     36
                      A                      A                      A
 Frequencies --   1306.9914              1327.6346              1360.7457
 Red. masses --      2.4721                 2.1458                 7.6303
 Frc consts  --      2.4880                 2.2284                 8.3243
 IR Inten    --    283.2753                27.2356                20.5088

                     37                     38                     39
                      A                      A                      A
 Frequencies --   1480.7889              1504.0658              1608.6618
 Red. masses --      2.3357                 2.6478                 6.5567
 Frc consts  --      3.0176                 3.5291                 9.9968
 IR Inten    --      1.0493                10.5954                24.6288

                     40                     41                     42
                      A                      A                      A
 Frequencies --   1619.6378              1646.1482              1693.8404
 Red. masses --      5.8565                 8.9364                11.3375
 Frc consts  --      9.0516                14.2676                19.1652
 IR Inten    --    229.6844               205.2692               543.1771

                     43                     44                     45
                      A                      A                      A
 Frequencies --   1716.7128              3182.7179              3194.2940
 Red. masses --     12.7191                 1.0875                 1.0910
 Frc consts  --     22.0852                 6.4907                 6.5588
 IR Inten    --    470.7996                 2.5935                 6.3744

                     46                     47                     48
                      A                      A                      A
 Frequencies --   3203.2549              3204.5981              3208.3918
 Red. masses --      1.0936                 1.0931                 1.0959
 Frc consts  --      6.6114                 6.6139                 6.6467
 IR Inten    --      0.2173                 2.7955                13.9811

 - Thermochemistry -
 -------------------
 Temperature   298.150 Kelvin.  Pressure   1.00000 Atm.
 Atom     1 has atomic number  6 and mass  12.00000

 Molecular mass:   191.99781 amu.
 Principal axes and moments of inertia in atomic units:
                           1         2         3
     Eigenvalues --  1402.808323267.406294670.20941
           X            0.80645  -0.35392   0.47369
           Y           -0.07101   0.73733   0.67179
           Z           -0.58702  -0.57540   0.56949
 This molecule is an asymmetric top.
 Rotational symmetry number  1.
 Warning -- assumption of classical behavior for rotation
           may cause significant error
 Rotational temperatures (Kelvin)      0.06174     0.02651     0.01855
 Rotational constants (GHZ):           1.28652     0.55235     0.38644
 Zero-point vibrational energy     321476.7 (Joules/Mol)
                                   76.83477 (Kcal/Mol)
 Warning -- explicit consideration of  14 degrees of freedom as
           vibrations may cause significant error
 Vibrational temperatures:     71.72   167.80   199.80   286.56   302.49
          (Kelvin)            405.57   476.68   521.84   546.94   617.03
                              655.41   691.30   715.45   892.13   956.28
                              981.27  1027.59  1033.85  1139.32  1163.44
                             1172.12  1224.95  1314.53  1320.81  1442.16
                             1476.89  1501.88  1547.81  1581.45  1625.45
                             1698.81  1774.74  1821.46  1880.47  1910.17
                             1957.81  2130.52  2164.02  2314.51  2330.30
                             2368.44  2437.06  2469.97  4579.22  4595.88
                             4608.77  4610.70  4616.16

 Zero-point correction=                           0.122444 (Hartree/Particle)
 Thermal correction to Energy=                    0.132375
 Thermal correction to Enthalpy=                  0.133319
 Thermal correction to Gibbs Free Energy=         0.086084
 Sum of electronic and zero-point Energies=           -994.765161
 Sum of electronic and thermal Energies=              -994.755230
 Sum of electronic and thermal Enthalpies=            -994.754286
 Sum of electronic and thermal Free Energies=         -994.801521

                     E (Thermal)             CV                S
                      KCal/Mol        Cal/Mol-Kelvin    Cal/Mol-Kelvin
 Total                   83.066             38.178             99.413
 Electronic               0.000              0.000              0.000
 Translational            0.889              2.981             41.662
 Rotational               0.889              2.981             31.438
 Vibrational             81.289             32.216             26.313
 Vibration     1          0.595              1.978              4.823
 Vibration     2          0.608              1.936              3.156
 Vibration     3          0.614              1.914              2.819
 Vibration     4          0.637              1.841              2.141
 Vibration     5          0.642              1.825              2.042
 Vibration     6          0.681              1.707              1.522
 Vibration     7          0.714              1.613              1.254
 Vibration     8          0.737              1.549              1.111
 Vibration     9          0.750              1.513              1.039
 Vibration    10          0.790              1.407              0.862
 Vibration    11          0.814              1.349              0.779
 Vibration    12          0.837              1.293              0.709
 Vibration    13          0.853              1.256              0.665
 Vibration    14          0.980              0.990              0.416

 Optimization completed.
    -- Stationary point found.
 Normal termination of Gaussian 16 at Sat Feb 10 23:35:00 2024.
