 Gaussian 16, Revision A.03,
 Gaussian 16:  ES64L-G16RevA.03 25-Dec-2016

 ----------------------------------------------------------------
 #P UB3LYP/6-311++G(d,p) SCRF=(PCM,Solvent=n,n-DiMethylFormamide)
 ----------------------------------------------------------------

 ------------------
 Quinone PCM in DMF
 ------------------
 Symbolic Z-matrix:
 Charge =  0 Multiplicity = 1

                         Standard orientation:
 ---------------------------------------------------------------------
 Center     Atomic      Atomic             Coordinates (Angstroms)
 Number     Number       Type             X           Y           Z
 ---------------------------------------------------------------------
      1          7           0       -3.817726    1.456661    0.177020
      2          6           0       -2.591457    2.170334    0.222753
      3          6           0       -1.364153    1.543088   -0.000505
      4          6           0       -2.648582    3.548636    0.444196
      5          6           0       -0.167097    2.277217    0.034124
      6          6           0       -1.468581    4.281660    0.439013
      7          6           0       -0.232709    3.676562    0.239590
      8         16           0        1.225293    4.790045    0.142412
      9          8           0        2.341385    3.957120    0.690828
     10          8           0        1.361325    5.086920   -1.300080
     11          8           0        0.867194    5.951533    0.984303
     12          7           0        1.101010    1.687370   -0.099564
     13          6           0        1.471782    0.408536   -0.344730
     14          7           0        0.537694   -0.539655   -0.607842
     15          6           0        1.054691   -1.732415   -0.826484
     16          7           0        2.300857   -2.111645   -0.819857
     17          6           0        3.168356   -1.082303   -0.538814
     18          7           0        2.798657    0.172844   -0.303261
     19         17           0       -0.134156   -3.010091   -1.173259
     20          7           0        4.463791   -1.471177   -0.518379
     21          6           0        5.677493   -0.790761   -0.247252
     22          6           0        5.774605    0.577820    0.014477
     23          6           0        6.833269   -1.587886   -0.257894
     24          6           0        7.037530    1.123021    0.262183
     25          6           0        8.076662   -1.029392   -0.008447
     26          6           0        8.185578    0.338191    0.253700
     27         16           0        9.566239   -2.098166    0.001939
     28          8           0        9.072793   -3.419591   -0.470566
     29          8           0       10.508253   -1.426952   -0.930331
     30          8           0       10.015042   -2.088486    1.418635
     31          1           0       -4.608374    1.899877   -0.294400
     32          1           0       -1.316890    0.492261   -0.233499
     33          1           0       -3.602960    4.031535    0.622978
     34          1           0       -1.481591    5.350866    0.612157
     35          1           0        1.875796    2.336660    0.118593
     36          1           0        4.566082   -2.457842   -0.710726
     37          1           0        4.891509    1.197798    0.024016
     38          1           0        6.782508   -2.652437   -0.464627
     39          1           0        7.111188    2.186875    0.462752
     40          1           0        9.161200    0.770132    0.440220
     41          6           0       -4.113651    0.226163    0.671034
     42          6           0       -5.369669   -0.400149    0.414661
     43          6           0       -3.179441   -0.461437    1.506503
     44          6           0       -3.445217   -1.698085    2.003314
     45          6           0       -5.637174   -1.724236    0.937087
     46          6           0       -4.663758   -2.379181    1.723290
     47          6           0       -6.889813   -2.411798    0.642705
     48          6           0       -7.892292   -1.708322   -0.194861
     49          6           0       -7.646227   -0.414554   -0.675830
     50          6           0       -6.375992    0.293894   -0.370103
     51          6           0       -9.102291   -2.346587   -0.502478
     52          6           0      -10.053798   -1.704788   -1.280949
     53          6           0       -9.808540   -0.411759   -1.761569
     54          6           0       -8.615462    0.227797   -1.459737
     55          8           0       -7.152123   -3.557955    1.057615
     56          8           0       -6.228317    1.456026   -0.802097
     57          7           0       -4.846749   -3.617160    2.264171
     58          1           0       -2.247425    0.024570    1.755592
     59          1           0       -2.713451   -2.185685    2.639689
     60          1           0       -9.264933   -3.345277   -0.116824
     61          1           0      -10.987328   -2.204049   -1.518218
     62          1           0      -10.552036    0.089915   -2.371970
     63          1           0       -8.400265    1.226571   -1.818160
     64          1           0       -5.679012   -4.123723    1.980798
     65          1           0       -4.049413   -4.101751    2.641060
 ---------------------------------------------------------------------

 SCF Done:  E(UB3LYP) =  -3358.09577545     A.U. after   31 cycles

 The electronic state is 1-A.
 Alpha  occ. eigenvalues -- -101.57236 -89.07868 -89.04717 -19.17818 -19.17215
 Alpha  occ. eigenvalues --  -19.12200 -19.12144 -19.11996 -19.09260 -19.09212
 Alpha  occ. eigenvalues --  -19.09201 -14.46719 -14.42360 -14.39222 -14.37938
 Alpha  occ. eigenvalues --  -14.34493 -14.34452 -14.34004 -10.33187 -10.32992
 Alpha  occ. eigenvalues --  -10.32971 -10.32903 -10.32809 -10.32502 -10.32061
 Alpha  occ. eigenvalues --  -10.29776 -10.29550 -10.28994 -10.28895 -10.26259
 Alpha  occ. eigenvalues --  -10.26146 -10.25840 -10.24347 -10.24296 -10.23314
 Alpha  occ. eigenvalues --  -10.23207 -10.23136 -10.22819 -10.21761 -10.21717
 Alpha  occ. eigenvalues --  -10.21591 -10.21509 -10.20492 -10.19152 -10.18901
 Alpha  occ. eigenvalues --  -10.18625 -10.18611  -9.48719  -8.13709  -8.10601
 Alpha  occ. eigenvalues --   -7.25168  -7.24233  -7.24140  -6.09966  -6.09951
 Alpha  occ. eigenvalues --   -6.09937  -6.06869  -6.06861  -6.06783  -1.14143
 Alpha  occ. eigenvalues --   -1.11117  -1.10579  -1.09820  -1.07557  -1.05555
 Alpha  occ. eigenvalues --   -1.01860  -1.01639  -1.00482  -1.00351  -0.98827
 Alpha  occ. eigenvalues --   -0.97567  -0.97438  -0.94398  -0.93645  -0.92080
 Alpha  occ. eigenvalues --   -0.91090  -0.90225  -0.86958  -0.86510  -0.85705
 Alpha  occ. eigenvalues --   -0.84332  -0.81237  -0.80780  -0.80427  -0.79642
 Alpha  occ. eigenvalues --   -0.77463  -0.77064  -0.75264  -0.72746  -0.72236
 Alpha  occ. eigenvalues --   -0.70503  -0.69340  -0.68838  -0.67339  -0.65942
 Alpha  occ. eigenvalues --   -0.64929  -0.64261  -0.63394  -0.63124  -0.62714
 Alpha  occ. eigenvalues --   -0.61840  -0.60589  -0.59898  -0.59632  -0.58675
 Alpha  occ. eigenvalues --   -0.57705  -0.56704  -0.56064  -0.54716  -0.54116
 Alpha  occ. eigenvalues --   -0.53691  -0.53542  -0.52464  -0.52050  -0.51486
 Alpha  occ. eigenvalues --   -0.50838  -0.50721  -0.50554  -0.50132  -0.49638
 Alpha  occ. eigenvalues --   -0.49379  -0.48488  -0.48294  -0.48098  -0.47904
 Alpha  occ. eigenvalues --   -0.47707  -0.47092  -0.46929  -0.46821  -0.46793
 Alpha  occ. eigenvalues --   -0.46317  -0.46175  -0.45835  -0.45551  -0.45383
 Alpha  occ. eigenvalues --   -0.44678  -0.44550  -0.43882  -0.43772  -0.42947
 Alpha  occ. eigenvalues --   -0.42428  -0.40928  -0.40924  -0.40377  -0.39892
 Alpha  occ. eigenvalues --   -0.38793  -0.38732  -0.38685  -0.37234  -0.37132
 Alpha  occ. eigenvalues --   -0.36298  -0.36064  -0.34546  -0.34478  -0.34299
 Alpha  occ. eigenvalues --   -0.33669  -0.33602  -0.33577  -0.33123  -0.32859
 Alpha  occ. eigenvalues --   -0.32470  -0.32180  -0.32019  -0.31971  -0.30862
 Alpha  occ. eigenvalues --   -0.30325  -0.30260  -0.30229  -0.29859  -0.29814
 Alpha  occ. eigenvalues --   -0.29638  -0.29083  -0.28385  -0.26650  -0.26466
 Alpha  occ. eigenvalues --   -0.25760  -0.23913
 Alpha virt. eigenvalues --   -0.23344  -0.15874  -0.10700  -0.08009  -0.07713
 Alpha virt. eigenvalues --   -0.07125  -0.05875  -0.04766  -0.03508  -0.02739
 Alpha virt. eigenvalues --   -0.01675  -0.00785  -0.00765  -0.00408  -0.00284

  Beta  occ. eigenvalues -- -101.57236 -89.07868 -89.04717 -19.17818 -19.17215
  Beta  occ. eigenvalues --  -19.12200 -19.12144 -19.11996 -19.09260 -19.09212
  Beta  occ. eigenvalues --  -19.09201 -14.46719 -14.42360 -14.39222 -14.37938
  Beta  occ. eigenvalues --  -14.34493 -14.34452 -14.34004 -10.33187 -10.32992
  Beta  occ. eigenvalues --  -10.32971 -10.32903 -10.32809 -10.32502 -10.32061
  Beta  occ. eigenvalues --  -10.29776 -10.29550 -10.28994 -10.28895 -10.26259
  Beta  occ. eigenvalues --  -10.26146 -10.25840 -10.24347 -10.24296 -10.23314
  Beta  occ. eigenvalues --  -10.23207 -10.23136 -10.22819 -10.21761 -10.21717
  Beta  occ. eigenvalues --  -10.21591 -10.21509 -10.20492 -10.19152 -10.18901
  Beta  occ. eigenvalues --  -10.18625 -10.18611  -9.48719  -8.13709  -8.10601
  Beta  occ. eigenvalues --   -7.25168  -7.24233  -7.24140  -6.09966  -6.09951
  Beta  occ. eigenvalues --   -6.09937  -6.06869  -6.06861  -6.06783  -1.14143
  Beta  occ. eigenvalues --   -1.11117  -1.10579  -1.09820  -1.07557  -1.05555
  Beta  occ. eigenvalues --   -1.01860  -1.01639  -1.00482  -1.00351  -0.98827
  Beta  occ. eigenvalues --   -0.97567  -0.97438  -0.94398  -0.93645  -0.92080
  Beta  occ. eigenvalues --   -0.91090  -0.90225  -0.86958  -0.86510  -0.85705
  Beta  occ. eigenvalues --   -0.84332  -0.81237  -0.80780  -0.80427  -0.79642
  Beta  occ. eigenvalues --   -0.77463  -0.77064  -0.75264  -0.72746  -0.72236
  Beta  occ. eigenvalues --   -0.70503  -0.69340  -0.68838  -0.67339  -0.65942
  Beta  occ. eigenvalues --   -0.64929  -0.64261  -0.63394  -0.63124  -0.62714
  Beta  occ. eigenvalues --   -0.61840  -0.60589  -0.59898  -0.59632  -0.58675
  Beta  occ. eigenvalues --   -0.57705  -0.56704  -0.56064  -0.54716  -0.54116
  Beta  occ. eigenvalues --   -0.53691  -0.53542  -0.52464  -0.52050  -0.51486
  Beta  occ. eigenvalues --   -0.50838  -0.50721  -0.50554  -0.50132  -0.49638
  Beta  occ. eigenvalues --   -0.49379  -0.48488  -0.48294  -0.48098  -0.47904
  Beta  occ. eigenvalues --   -0.47707  -0.47092  -0.46929  -0.46821  -0.46793
  Beta  occ. eigenvalues --   -0.46317  -0.46175  -0.45835  -0.45551  -0.45383
  Beta  occ. eigenvalues --   -0.44678  -0.44550  -0.43882  -0.43772  -0.42947
  Beta  occ. eigenvalues --   -0.42428  -0.40928  -0.40924  -0.40377  -0.39892
  Beta  occ. eigenvalues --   -0.38793  -0.38732  -0.38685  -0.37234  -0.37132
  Beta  occ. eigenvalues --   -0.36298  -0.36064  -0.34546  -0.34478  -0.34299
  Beta  occ. eigenvalues --   -0.33669  -0.33602  -0.33577  -0.33123  -0.32859
  Beta  occ. eigenvalues --   -0.32470  -0.32180  -0.32019  -0.31971  -0.30862
  Beta  occ. eigenvalues --   -0.30325  -0.30260  -0.30229  -0.29859  -0.29814
  Beta  occ. eigenvalues --   -0.29638  -0.29083  -0.28385  -0.26650  -0.26466
  Beta  occ. eigenvalues --   -0.25760  -0.23913
  Beta virt. eigenvalues --   -0.23344  -0.15874  -0.10700  -0.08009  -0.07713
  Beta virt. eigenvalues --   -0.07125  -0.05875  -0.04766  -0.03508  -0.02739
  Beta virt. eigenvalues --   -0.01675  -0.00785  -0.00765  -0.00408  -0.00284

 Mulliken charges and spin densities:
               1          2
     1  N    0.281083  -0.000000
     2  C   -0.073387  -0.000000
     3  C   -0.433450  -0.000000
     4  C    0.076819   0.000000
     5  C    0.051542  -0.000000
     6  C   -0.049332   0.000000
     7  C   -0.852379   0.000000
     8  S    0.444504  -0.000000
     9  O   -0.371175  -0.000000
    10  O   -0.248349  -0.000000
    11  O   -0.262883   0.000000
    12  N   -0.080615   0.000000
    13  C    0.013094   0.000000
    14  N    0.027267  -0.000000
    15  C   -0.473827   0.000000
    16  N    0.063194   0.000000
    17  C   -0.162354   0.000000
    18  N   -0.121444   0.000000
    19  Cl   0.509006  -0.000000
    20  N   -0.125485  -0.000000
    21  C    0.294522   0.000000
    22  C   -0.214642   0.000000
    23  C   -0.331693  -0.000000
    24  C   -0.085692  -0.000000
    25  C   -0.606516  -0.000000
    26  C   -0.551502   0.000000
    27  S    0.683513  -0.000000
    28  O   -0.419531  -0.000000
    29  O   -0.374255  -0.000000
    30  O   -0.355350  -0.000000
    31  H    0.415198   0.000000
    32  H    0.422433   0.000000
    33  H    0.254465   0.000000
    34  H    0.271778   0.000000
    35  H    0.475495  -0.000000
    36  H    0.411890  -0.000000
    37  H    0.224671   0.000000
    38  H    0.220654   0.000000
    39  H    0.216571   0.000000
    40  H    0.206533   0.000000
    41  C    0.093937  -0.000000
    42  C    0.337994   0.000000
    43  C   -0.385698  -0.000000
    44  C   -0.367419   0.000000
    45  C    0.233999   0.000000
    46  C    0.054259   0.000000
    47  C   -0.536051  -0.000000
    48  C    0.482911  -0.000000
    49  C    0.223097  -0.000000
    50  C   -0.402377   0.000000
    51  C    0.107586   0.000000
    52  C   -0.393090   0.000000
    53  C   -0.368710  -0.000000
    54  C    0.055585   0.000000
    55  O   -0.219875   0.000000
    56  O   -0.201916  -0.000000
    57  N   -0.218699  -0.000000
    58  H    0.296122  -0.000000
    59  H    0.273394   0.000000
    60  H    0.213210  -0.000000
    61  H    0.222049   0.000000
    62  H    0.226238  -0.000000
    63  H    0.196457   0.000000
    64  H    0.363192  -0.000000
    65  H    0.343435  -0.000000
 Sum of Mulliken charges =  -0.00000  -0.00000

 Dipole moment (field-independent basis, Debye):
    X=            -88.3622    Y=             -8.8048    Z=              7.0951  Tot=             89.0828
 Quadrupole moment (field-independent basis, Debye-Ang):
   XX=           -557.3136   YY=           -364.7962   ZZ=           -287.4651
   XY=            116.0446   XZ=            -12.4785   YZ=            -18.7160

 Normal termination of Gaussian 16 at Sun Jan 14 02:39:52 2024.
