 Q-Chem 5.4, Q-Chem, Inc., Pleasanton, CA (2021)
 Q-Chem 5.4.0 for Intel X86 EM64T Linux

User input:
--------------------------------------------------------------
$molecule
0 1
C                 -4.6989380000     -0.3684880000     -0.5524400000
C                 -3.9940560000     -0.4286000000      0.8149130000
C                 -2.5692790000      0.0723950000      0.7589180000
C                 -2.2762520000      1.4320170000      0.9481450000
C                 -0.9740700000      1.9052060000      0.8632180000
C                  0.0788840000      1.0281820000      0.5859090000
C                  1.4675440000      1.5588090000      0.5022160000
O                  1.7076400000      2.7445700000      0.6670410000
C                  2.5589520000      0.5828740000      0.2075970000
C                  3.8761320000      1.0436920000      0.1201310000
C                  4.9105380000      0.1564080000     -0.1527210000
C                  4.6382200000     -1.2015600000     -0.3410040000
C                  3.3321320000     -1.6688310000     -0.2558870000
C                  2.2848820000     -0.7835220000      0.0181240000
C                  0.8919790000     -1.3136370000      0.1038290000
O                  0.6554400000     -2.4998710000     -0.0597240000
C                 -0.1982010000     -0.3371470000      0.3959720000
C                 -1.5137130000     -0.7980510000      0.4849190000
H                 -4.1750800000     -0.9811910000     -1.2907090000
H                 -5.7255850000     -0.7357970000     -0.4735440000
H                 -4.7335640000      0.6558310000     -0.9330960000
H                 -4.5587350000      0.1659140000      1.5399270000
H                 -4.0004190000     -1.4598440000      1.1800500000
H                 -3.0825010000      2.1241190000      1.1700640000
H                 -0.7474600000      2.9537610000      1.0126560000
H                  4.0639260000      2.0997400000      0.2696080000
H                  5.9300480000      0.5190070000     -0.2194780000
H                  5.4464800000     -1.8920640000     -0.5536760000
H                  3.0981210000     -2.7166200000     -0.3980570000
H                 -1.6930630000     -1.8573040000      0.3388000000
$end
$rem
MAX_SCF_CYCLES=200
BASIS  =  6-311++G(d,p)
GUI  =  2
JOB_TYPE  =  SP
METHOD  =  B3LYP
SOLVENT_METHOD = COSMO
$end
$solvent
dielectric 37.219
opticaldielectric 1.43
$end

--------------------------------------------------------------

             Standard Nuclear Orientation (Angstroms)
    I     Atom           X                Y                Z
 ----------------------------------------------------------------
    1      C      -5.0763457637     0.7571700104     1.0024997016
    2      C      -4.4542314390     0.5218328759    -0.3859226092
    3      C      -3.0414791528    -0.0095677187    -0.3093372589
    4      C      -2.7940919732    -1.3895500601    -0.2408392011
    5      C      -1.5012353883    -1.8835862410    -0.1347803081
    6      C      -0.4121019623    -1.0078228708    -0.0946504656
    7      C       0.9655551997    -1.5615078222     0.0168835903
    8      O       1.1658929892    -2.7644263442     0.0776644956
    9      C       2.0965495431    -0.5868169429     0.0522444011
   10      C       3.4048310882    -1.0687749485     0.1575181504
   11      C       4.4754397253    -0.1831638936     0.1922613376
   12      C       4.2486193160     1.1942634695     0.1220400335
   13      C       2.9517074978     1.6826049221     0.0171814793
   14      C       1.8682609375     0.7991656464    -0.0183883549
   15      C       0.4862354531     1.3521068933    -0.1315588705
   16      O       0.2893817606     2.5551102507    -0.1938720397
   17      C      -0.6433973823     0.3773144578    -0.1644533952
   18      C      -1.9501019924     0.8590053302    -0.2712843525
   19      H      -4.4938072243     1.4836759589     1.5749603933
   20      H      -6.0965051254     1.1386845437     0.9083398350
   21      H      -5.1131479690    -0.1704170502     1.5800420869
   22      H      -5.0762525895    -0.1827697403    -0.9467964016
   23      H      -4.4572205339     1.4607375494    -0.9474195223
   24      H      -3.6291311367    -2.0821554843    -0.2768668682
   25      H      -1.3100366896    -2.9485546565    -0.0854170888
   26      H       3.5571094485    -2.1396893539     0.2104423931
   27      H       5.4878590281    -0.5621912617     0.2739961615
   28      H       5.0850661566     1.8834129448     0.1492257779
   29      H       2.7526648947     2.7456618941    -0.0387395544
   30      H      -2.0940784972     1.9320947567    -0.3285901252
 ----------------------------------------------------------------

    9    -767.6067765020      2.11e-06  Convergence criterion met
 Total energy in the final basis set =     -767.6067765020
    5    -767.6209806306      3.07e-06  Convergence criterion met
 Total energy in the final basis set =     -767.6209806306

                    Orbital Energies (a.u.)
 --------------------------------------------------------------

 Alpha MOs
 -- Occupied --
-19.1322 -19.1310 -10.2839 -10.2828 -10.2076 -10.2071 -10.2066 -10.2043
-10.2033 -10.1963 -10.1959 -10.1955 -10.1953 -10.1947 -10.1926 -10.1924
-10.1770 -10.1624  -1.0676  -1.0655  -0.8935  -0.8817  -0.8202  -0.7894
 -0.7773  -0.7726  -0.7438  -0.6878  -0.6681  -0.6464  -0.6201  -0.6069
 -0.5849  -0.5586  -0.5444  -0.5059  -0.4915  -0.4844  -0.4743  -0.4610
 -0.4554  -0.4528  -0.4493  -0.4445  -0.4412  -0.4247  -0.4206  -0.4175
 -0.3951  -0.3841  -0.3794  -0.3727  -0.3650  -0.3593  -0.3499  -0.3448
 -0.2894  -0.2872  -0.2784  -0.2760  -0.2754  -0.2672

          Ground-State Mulliken Net Atomic Charges

     Atom                 Charge (a.u.)
  ----------------------------------------
      1 C                    -0.672294
      2 C                    -0.180621
      3 C                     0.638538
      4 C                    -0.584646
      5 C                     0.099031
      6 C                     0.178603
      7 C                    -0.674463
      8 O                    -0.299052
      9 C                     0.088549
     10 C                     0.203850
     11 C                    -0.457508
     12 C                    -0.448690
     13 C                     0.162293
     14 C                     0.327012
     15 C                    -0.637771
     16 O                    -0.291523
     17 C                     0.358743
     18 C                    -0.108869
     19 H                     0.153494
     20 H                     0.157554
     21 H                     0.152889
     22 H                     0.177587
     23 H                     0.178015
     24 H                     0.226467
     25 H                     0.203927
     26 H                     0.200232
     27 H                     0.226330
     28 H                     0.227635
     29 H                     0.198740
     30 H                     0.195947
  ----------------------------------------
  Sum of atomic charges =     0.000000

                    Cartesian Multipole Moments
 -----------------------------------------------------------------
    Charge (ESU x 10^10)
                 0.0000
    Dipole Moment (Debye)
         X      -0.9292      Y       0.3021      Z       0.0291
       Tot       0.9775
    Quadrupole Moments (Debye-Ang)
        XX     -68.0340     XY       6.9325     YY    -117.8424
        XZ       2.0095     YZ       0.9029     ZZ    -107.6278

 Total job time:  59.03s(wall), 449.45s(cpu)
        *  Thank you very much for using Q-Chem.  Have a nice day.  *
