 Gaussian 16, Revision A.03,
 Gaussian 16:  ES64L-G16RevA.03 25-Dec-2016

 ----------------------------------------------------------------
 #P UB3LYP/6-311++G(d,p) SCRF=(PCM,Solvent=n,n-DiMethylFormamide)
 ----------------------------------------------------------------

 ------------------
 Radical PCM in DMF
 ------------------
 Symbolic Z-matrix:
 Charge = -1 Multiplicity = 2

                         Standard orientation:
 ---------------------------------------------------------------------
 Center     Atomic      Atomic             Coordinates (Angstroms)
 Number     Number       Type             X           Y           Z
 ---------------------------------------------------------------------
      1          6           0        1.314624    1.006611   -0.000091
      2          6           0        2.488405    0.214845   -0.000051
      3          6           0        2.340696   -1.218656   -0.000048
      4          6           0        0.014716    0.466151   -0.000206
      5          6           0       -0.086359   -0.984883   -0.000202
      6          6           0        1.056526   -1.769337   -0.000117
      7          6           0       -1.222513    1.276923   -0.000290
      8          6           0       -2.493524    0.540311   -0.000082
      9          6           0       -2.574842   -0.878199   -0.000002
     10          6           0       -1.376534   -1.700044   -0.000222
     11          6           0       -3.695786    1.285042    0.000015
     12          6           0       -4.925794    0.660804    0.000202
     13          6           0       -5.002915   -0.750997    0.000328
     14          6           0       -3.845308   -1.499281    0.000220
     15          6           0        3.816274    0.742192    0.000038
     16          6           0        4.912899   -0.081061    0.000183
     17          6           0        4.762724   -1.494984    0.000197
     18          6           0        3.506143   -2.039609    0.000049
     19          8           0       -1.228397    2.526883   -0.000272
     20          8           0       -1.424615   -2.953635   -0.000155
     21         17           0        1.575769    2.758418    0.000143
     22          1           0        0.918938   -2.844665   -0.000095
     23          1           0       -3.609463    2.364982   -0.000073
     24          1           0       -5.835880    1.253246    0.000275
     25          1           0       -5.971347   -1.242211    0.000497
     26          1           0       -3.869126   -2.582819    0.000298
     27          1           0        3.949395    1.814811    0.000015
     28          1           0        5.907905    0.352337    0.000268
     29          1           0        5.640178   -2.133203    0.000268
     30          1           0        3.368823   -3.116524    0.000012
 ---------------------------------------------------------------------

 SCF Done:  E(UB3LYP) =  -1302.37910461     A.U. after   22 cycles

 The electronic state is 2-A.
 Alpha  occ. eigenvalues -- -101.54659 -19.07766 -19.07459 -10.24167 -10.23042
 Alpha  occ. eigenvalues --  -10.22735 -10.19687 -10.19298 -10.19104 -10.18211
 Alpha  occ. eigenvalues --  -10.18187 -10.18150 -10.18015 -10.17999 -10.17539
 Alpha  occ. eigenvalues --  -10.17402 -10.17365 -10.17317 -10.17255 -10.17099
 Alpha  occ. eigenvalues --  -10.16969  -9.46170  -7.22612  -7.21704  -7.21572
 Alpha  occ. eigenvalues --   -1.00804  -1.00517  -0.89741  -0.85834  -0.85441
 Alpha  occ. eigenvalues --   -0.82835  -0.78072  -0.76678  -0.75148  -0.74421
 Alpha  occ. eigenvalues --   -0.72728  -0.66553  -0.65715  -0.62629  -0.60739
 Alpha  occ. eigenvalues --   -0.58650  -0.55976  -0.55613  -0.52881  -0.50637
 Alpha  occ. eigenvalues --   -0.49868  -0.47577  -0.46137  -0.45041  -0.44786
 Alpha  occ. eigenvalues --   -0.43310  -0.43133  -0.42926  -0.42372  -0.41557
 Alpha  occ. eigenvalues --   -0.41458  -0.40765  -0.40008  -0.38590  -0.37826
 Alpha  occ. eigenvalues --   -0.36929  -0.35845  -0.35026  -0.34770  -0.34294
 Alpha  occ. eigenvalues --   -0.33736  -0.31984  -0.31340  -0.28445  -0.26681
 Alpha  occ. eigenvalues --   -0.25753  -0.25159  -0.24691  -0.23232  -0.22913
 Alpha  occ. eigenvalues --   -0.13803
 Alpha virt. eigenvalues --   -0.07830  -0.03050  -0.02612  -0.00411   0.00145
 Alpha virt. eigenvalues --    0.00825   0.00859   0.01480   0.01977   0.02381
 Alpha virt. eigenvalues --    0.02883   0.03525   0.03829   0.04450   0.04804

  Beta  occ. eigenvalues -- -101.54656 -19.07264 -19.06897 -10.24116 -10.22876
  Beta  occ. eigenvalues --  -10.22557 -10.19660 -10.19242 -10.19059 -10.18201
  Beta  occ. eigenvalues --  -10.18152 -10.18142 -10.17990 -10.17974 -10.17534
  Beta  occ. eigenvalues --  -10.17315 -10.17310 -10.17269 -10.17179 -10.17091
  Beta  occ. eigenvalues --  -10.16974  -9.46167  -7.22614  -7.21691  -7.21571
  Beta  occ. eigenvalues --   -0.99865  -0.99590  -0.89622  -0.85615  -0.85386
  Beta  occ. eigenvalues --   -0.82687  -0.77767  -0.76591  -0.74929  -0.74263
  Beta  occ. eigenvalues --   -0.72540  -0.65927  -0.65550  -0.62394  -0.60672
  Beta  occ. eigenvalues --   -0.58595  -0.55734  -0.55391  -0.52790  -0.50545
  Beta  occ. eigenvalues --   -0.49703  -0.47324  -0.46038  -0.44986  -0.44707
  Beta  occ. eigenvalues --   -0.43188  -0.42886  -0.42320  -0.42235  -0.41376
  Beta  occ. eigenvalues --   -0.41057  -0.40470  -0.39318  -0.37706  -0.36847
  Beta  occ. eigenvalues --   -0.36791  -0.35329  -0.34914  -0.34256  -0.33985
  Beta  occ. eigenvalues --   -0.33627  -0.31267  -0.31159  -0.28164  -0.25159
  Beta  occ. eigenvalues --   -0.25019  -0.24590  -0.24225  -0.22754  -0.22272
  Beta virt. eigenvalues --   -0.08246  -0.07034  -0.02267  -0.02081  -0.00400
  Beta virt. eigenvalues --    0.00152   0.00842   0.01066   0.01489   0.01979
  Beta virt. eigenvalues --    0.02412   0.03529   0.03582   0.03842   0.04628

 Mulliken charges and spin densities:
               1          2
     1  C    0.539940   0.036570
     2  C    0.425031   0.015092
     3  C    1.135708   0.036342
     4  C    0.195295   0.024403
     5  C    0.722307   0.019835
     6  C    0.099283   0.013860
     7  C   -1.976742   0.090985
     8  C   -0.234150   0.065777
     9  C    0.488463   0.038711
    10  C   -0.696068   0.093934
    11  C    0.158064   0.029904
    12  C   -0.467205   0.046086
    13  C   -0.488865   0.037355
    14  C    0.134547   0.030419
    15  C   -1.152859   0.010493
    16  C   -0.692536   0.006357
    17  C   -0.281652   0.031345
    18  C   -0.242203  -0.011713
    19  O   -0.332009   0.207754
    20  O   -0.435383   0.188181
    21  Cl   0.539660   0.001591
    22  H    0.137413  -0.001816
    23  H    0.166648  -0.001452
    24  H    0.183381  -0.003481
    25  H    0.184158  -0.003006
    26  H    0.160717  -0.001237
    27  H    0.171877  -0.000311
    28  H    0.200043  -0.000790
    29  H    0.188706  -0.002382
    30  H    0.168433   0.001192
 Sum of Mulliken charges =  -1.00000   1.00000

 Dipole moment (field-independent basis, Debye):
    X=              5.5306    Y=             -1.0554    Z=              0.0009  Tot=              5.6304
 Quadrupole moment (field-independent basis, Debye-Ang):
   XX=           -128.3100   YY=           -163.2132   ZZ=           -136.0018
   XY=             -7.0013   XZ=             -0.0014   YZ=             -0.0001

 Normal termination of Gaussian 16 at Sun Jan 14 01:21:13 2024.
