 Q-Chem 5.4, Q-Chem, Inc., Pleasanton, CA (2021)
 Q-Chem 5.4.0 for Intel X86 EM64T Linux

User input:
--------------------------------------------------------------
$molecule
-2 1
C                  5.0657980000     -2.4599560000      0.3710540000
C                  5.8242390000     -1.5115960000     -0.2696790000
C                  5.1423640000     -0.4826190000     -0.9922300000
C                  3.6461570000     -2.4688220000      0.3298980000
C                  2.9732360000     -1.4194650000     -0.4157450000
C                  3.7573240000     -0.4483210000     -1.0618680000
C                  2.9274240000     -3.5115310000      1.0214990000
C                  1.4762410000     -3.4190060000      0.8986350000
C                  0.8033320000     -2.3695730000      0.1530510000
C                  1.5220590000     -1.3268910000     -0.5385200000
C                  0.6921770000     -4.3902670000      1.5445420000
C                 -0.6163310000     -2.3783830000      0.1120240000
C                 -1.3747570000     -3.3268040000      0.7526570000
O                  3.5032960000     -4.4331610000      1.6875520000
O                  0.9461800000     -0.4052110000     -1.2045810000
H                  5.5357060000     -3.2529100000      0.9434830000
H                 -2.4564800000     -3.3230330000      0.7069480000
H                  3.2339480000      0.3282150000     -1.6082410000
H                  1.2155760000     -5.1669420000      2.0907080000
H                 -1.0862420000     -1.5852900000     -0.4602100000
C                 -0.6928920000     -4.3559840000      1.4749700000
S                  6.0731660000      0.6612650000     -1.9393240000
H                  6.9059510000     -1.5152170000     -0.2237320000
S                 -1.6235640000     -5.5000590000      2.4218490000
O                 -0.8342710000     -6.7060000000      2.7344290000
O                 -2.9841110000     -5.6894220000      1.8884920000
N                 -1.9001340000     -4.6349280000      3.9046420000
H                 -0.9973390000     -4.5017090000      4.3563680000
H                 -2.4737710000     -5.2382040000      4.4937450000
O                  5.2836090000      1.8668310000     -2.2526270000
O                  7.4335120000      0.8511520000     -1.4055770000
N                  6.3507110000     -0.2043220000     -3.4214610000
H                  6.9265440000      0.3977450000     -4.0096140000
H                  5.4486030000     -0.3364960000     -3.8748170000
$end
$rem
MAX_SCF_CYCLES=200
BASIS  =  6-311++G(d,p)
GUI  =  2
JOB_TYPE  =  SP
METHOD  =  B3LYP
SOLVENT_METHOD = PCM
$end
$pcm
theory = CPCM
$end
$solvent
dielectric 37.219
opticaldielectric 1.43
$end

--------------------------------------------------------------

             Standard Nuclear Orientation (Angstroms)
    I     Atom           X                Y                Z
 ----------------------------------------------------------------
    1      C       5.0657980000    -2.4599560000     0.3710540000
    2      C       5.8242390000    -1.5115960000    -0.2696790000
    3      C       5.1423640000    -0.4826190000    -0.9922300000
    4      C       3.6461570000    -2.4688220000     0.3298980000
    5      C       2.9732360000    -1.4194650000    -0.4157450000
    6      C       3.7573240000    -0.4483210000    -1.0618680000
    7      C       2.9274240000    -3.5115310000     1.0214990000
    8      C       1.4762410000    -3.4190060000     0.8986350000
    9      C       0.8033320000    -2.3695730000     0.1530510000
   10      C       1.5220590000    -1.3268910000    -0.5385200000
   11      C       0.6921770000    -4.3902670000     1.5445420000
   12      C      -0.6163310000    -2.3783830000     0.1120240000
   13      C      -1.3747570000    -3.3268040000     0.7526570000
   14      O       3.5032960000    -4.4331610000     1.6875520000
   15      O       0.9461800000    -0.4052110000    -1.2045810000
   16      H       5.5357060000    -3.2529100000     0.9434830000
   17      H      -2.4564800000    -3.3230330000     0.7069480000
   18      H       3.2339480000     0.3282150000    -1.6082410000
   19      H       1.2155760000    -5.1669420000     2.0907080000
   20      H      -1.0862420000    -1.5852900000    -0.4602100000
   21      C      -0.6928920000    -4.3559840000     1.4749700000
   22      S       6.0731660000     0.6612650000    -1.9393240000
   23      H       6.9059510000    -1.5152170000    -0.2237320000
   24      S      -1.6235640000    -5.5000590000     2.4218490000
   25      O      -0.8342710000    -6.7060000000     2.7344290000
   26      O      -2.9841110000    -5.6894220000     1.8884920000
   27      N      -1.9001340000    -4.6349280000     3.9046420000
   28      H      -0.9973390000    -4.5017090000     4.3563680000
   29      H      -2.4737710000    -5.2382040000     4.4937450000
   30      O       5.2836090000     1.8668310000    -2.2526270000
   31      O       7.4335120000     0.8511520000    -1.4055770000
   32      N       6.3507110000    -0.2043220000    -3.4214610000
   33      H       6.9265440000     0.3977450000    -4.0096140000
   34      H       5.4486030000    -0.3364960000    -3.8748170000
 ----------------------------------------------------------------

    9   -1897.2775040774      6.35e-06  Convergence criterion met
 Total energy in the final basis set =    -1897.2775040774

                    Orbital Energies (a.u.)
 --------------------------------------------------------------

 Alpha MOs
 -- Occupied --
-89.0672 -89.0672 -19.1213 -19.1213 -19.1213 -19.1213 -19.0408 -19.0407
-14.3334 -14.3334 -10.2018 -10.2018 -10.1984 -10.1983 -10.1822 -10.1822
-10.1739 -10.1739 -10.1662 -10.1662 -10.1621 -10.1621 -10.1574 -10.1574
 -8.1291  -8.1291  -6.0919  -6.0919  -6.0917  -6.0917  -6.0898  -6.0898
 -1.1196  -1.1196  -1.0096  -1.0096  -0.9655  -0.9622  -0.8973  -0.8973
 -0.8580  -0.8540  -0.7896  -0.7629  -0.7537  -0.7457  -0.6902  -0.6789
 -0.6368  -0.6266  -0.5925  -0.5837  -0.5527  -0.5485  -0.5279  -0.5229
 -0.5113  -0.5110  -0.4986  -0.4897  -0.4698  -0.4650  -0.4584  -0.4574
 -0.4509  -0.4276  -0.4249  -0.4176  -0.4027  -0.4000  -0.3949  -0.3828
 -0.3683  -0.3634  -0.3630  -0.3590  -0.3536  -0.3480  -0.3414  -0.3402
 -0.3330  -0.3262  -0.3220  -0.3207  -0.3130  -0.3123  -0.2853  -0.2844
 -0.2606  -0.2515  -0.2474  -0.2426  -0.2232  -0.2160  -0.1277

          Ground-State Mulliken Net Atomic Charges

     Atom                 Charge (a.u.)
  ----------------------------------------
      1 C                    -0.150375
      2 C                    -0.486169
      3 C                    -0.047926
      4 C                     0.536687
      5 C                     0.056537
      6 C                    -0.121453
      7 C                    -0.526971
      8 C                     0.057586
      9 C                     0.537563
     10 C                    -0.527180
     11 C                    -0.121807
     12 C                    -0.150318
     13 C                    -0.486782
     14 O                    -0.610568
     15 O                    -0.610630
     16 H                     0.160129
     17 H                     0.243719
     18 H                     0.219777
     19 H                     0.219757
     20 H                     0.160128
     21 C                    -0.047909
     22 S                     0.247355
     23 H                     0.243743
     24 S                     0.247230
     25 O                    -0.307141
     26 O                    -0.353960
     27 N                    -0.510591
     28 H                     0.312274
     29 H                     0.338399
     30 O                    -0.307110
     31 O                    -0.354169
     32 N                    -0.510510
     33 H                     0.338384
     34 H                     0.312293
  ----------------------------------------
  Sum of atomic charges =    -2.000007

                    Cartesian Multipole Moments
 -----------------------------------------------------------------
    Charge (ESU x 10^10)
                -9.6064
    Dipole Moment (Debye)
         X     -21.3640      Y      23.2405      Z      -2.3210
       Tot      31.6533
    Quadrupole Moments (Debye-Ang)
        XX    -300.4284     XY       5.7828     YY    -312.1053
        XZ      -4.9529     YZ      37.3014     ZZ    -155.0793

 Total job time:  117.49s(wall), 668.00s(cpu)
        *  Thank you very much for using Q-Chem.  Have a nice day.  *
