 Q-Chem 5.4, Q-Chem, Inc., Pleasanton, CA (2021)
 Q-Chem 5.4.0 for Intel X86 EM64T Linux

User input:
--------------------------------------------------------------
$molecule
-2 1
C                 -3.2088750000      0.0610090000      1.0001430000
C                 -1.8494720000     -0.0023480000      0.3509870000
C                 -1.7402990000     -0.2202620000     -1.0426970000
C                 -0.5246690000     -0.2966680000     -1.7672740000
O                 -0.4475560000     -0.4995870000     -3.0469570000
C                  0.6568390000     -0.1277930000     -0.9272350000
C                  1.9456380000     -0.1812310000     -1.5067340000
C                  3.1030120000     -0.0272840000     -0.7625360000
C                  3.0068540000      0.1943470000      0.6384200000
C                  1.7607460000      0.2514360000      1.2367800000
C                  0.5577230000      0.0963190000      0.5046690000
C                 -0.7186430000      0.1668500000      1.1959740000
O                 -0.8158870000      0.3708830000      2.4780580000
H                 -4.0032350000     -0.1830790000      0.2824380000
H                 -3.2724750000     -0.6289460000      1.8538050000
H                 -3.4162180000      1.0589460000      1.4199890000
H                 -2.6563900000     -0.3444110000     -1.6246050000
H                  1.9808130000     -0.3512810000     -2.5796780000
H                  4.0792200000     -0.0744810000     -1.2448960000
H                  3.9099020000      0.3182080000      1.2363120000
H                  1.6529700000      0.4193740000      2.3050400000
$end

$rem
BASIS  =  6-311++G(d,p)
GUI  =  2
JOB_TYPE  =  SP
METHOD  =  B3LYP
SCF_CONVERGENCE  = 8
SOLVENT_METHOD = sm12
$end

$smx
solvent dimethylformamide
charges CM5
$end

--------------------------------------------------------------

             Standard Nuclear Orientation (Angstroms)
    I     Atom           X                Y                Z
 ----------------------------------------------------------------
    1      C      -3.2088750000     0.0610090000     1.0001430000
    2      C      -1.8494720000    -0.0023480000     0.3509870000
    3      C      -1.7402990000    -0.2202620000    -1.0426970000
    4      C      -0.5246690000    -0.2966680000    -1.7672740000
    5      O      -0.4475560000    -0.4995870000    -3.0469570000
    6      C       0.6568390000    -0.1277930000    -0.9272350000
    7      C       1.9456380000    -0.1812310000    -1.5067340000
    8      C       3.1030120000    -0.0272840000    -0.7625360000
    9      C       3.0068540000     0.1943470000     0.6384200000
   10      C       1.7607460000     0.2514360000     1.2367800000
   11      C       0.5577230000     0.0963190000     0.5046690000
   12      C      -0.7186430000     0.1668500000     1.1959740000
   13      O      -0.8158870000     0.3708830000     2.4780580000
   14      H      -4.0032350000    -0.1830790000     0.2824380000
   15      H      -3.2724750000    -0.6289460000     1.8538050000
   16      H      -3.4162180000     1.0589460000     1.4199890000
   17      H      -2.6563900000    -0.3444110000    -1.6246050000
   18      H       1.9808130000    -0.3512810000    -2.5796780000
   19      H       4.0792200000    -0.0744810000    -1.2448960000
   20      H       3.9099020000     0.3182080000     1.2363120000
   21      H       1.6529700000     0.4193740000     2.3050400000
 ----------------------------------------------------------------

   18    -574.5507347964      3.18e-09  Convergence criterion met
 Total energy in the final basis set =     -574.8491249183

                    Orbital Energies (a.u.)
 --------------------------------------------------------------

 Alpha MOs
 -- Occupied --
-19.0288 -19.0273 -10.1894 -10.1838 -10.1799 -10.1790 -10.1742 -10.1734
-10.1710 -10.1612 -10.1609 -10.1511 -10.1434  -0.9400  -0.9363  -0.8482
 -0.7937  -0.7474  -0.7468  -0.6923  -0.6515  -0.6081  -0.5882  -0.5473
 -0.5004  -0.4883  -0.4522  -0.4420  -0.4261  -0.4182  -0.4062  -0.3954
 -0.3847  -0.3770  -0.3645  -0.3600  -0.3353  -0.3328  -0.3238  -0.3212
 -0.2523  -0.2389  -0.2301  -0.2057  -0.2022  -0.1273

          Ground-State Mulliken Net Atomic Charges

     Atom                 Charge (a.u.)
  ----------------------------------------
      1 C                     1.352512
      2 C                     0.192210
      3 C                    -1.676827
      4 C                    -1.186653
      5 O                    -0.372678
      6 C                    -2.042716
      7 C                     0.126141
      8 C                     2.037631
      9 C                     1.927547
     10 C                     0.181769
     11 C                    -2.024378
     12 C                    -1.857191
     13 O                    -0.328717
     14 H                     0.295195
     15 H                     0.197916
     16 H                     0.172143
     17 H                    -0.070984
     18 H                     0.096422
     19 H                     0.435897
     20 H                     0.442701
     21 H                     0.102060
  ----------------------------------------
  Sum of atomic charges =    -2.000000

                    Cartesian Multipole Moments
 -----------------------------------------------------------------
    Charge (ESU x 10^10)
                -9.6064
    Dipole Moment (Debye)
         X       3.3181      Y       0.4920      Z       2.5876
       Tot       4.2364
    Quadrupole Moments (Debye-Ang)
        XX    -107.3637     XY      -0.0545     YY     -91.1699
        XZ       2.3187     YZ      -8.3898     ZZ    -142.6065

 Total job time:  404.60s(wall), 2517.81s(cpu)
        *  Thank you very much for using Q-Chem.  Have a nice day.  *
