 Gaussian 16, Revision A.03,
 Gaussian 16:  ES64L-G16RevA.03 25-Dec-2016

 --------------------------------------
 #P UB3LYP/6-311++G(d,p) nosym opt freq
 --------------------------------------

 -------
 Radical
 -------
 Symbolic Z-matrix:
 Charge = -1 Multiplicity = 2

 SCF Done:  E(UB3LYP) =  -689.213462257     A.U. after   23 cycles
 SCF Done:  E(UB3LYP) =  -689.234850902     A.U. after   18 cycles
 SCF Done:  E(UB3LYP) =  -689.238597500     A.U. after   18 cycles
 SCF Done:  E(UB3LYP) =  -689.240090902     A.U. after   16 cycles
 SCF Done:  E(UB3LYP) =  -689.240237505     A.U. after   15 cycles
 SCF Done:  E(UB3LYP) =  -689.240254405     A.U. after   14 cycles
 SCF Done:  E(UB3LYP) =  -689.240255457     A.U. after   13 cycles
 SCF Done:  E(UB3LYP) =  -689.240255928     A.U. after   11 cycles
 SCF Done:  E(UB3LYP) =  -689.240256077     A.U. after   11 cycles
 SCF Done:  E(UB3LYP) =  -689.240256150     A.U. after   10 cycles
 SCF Done:  E(UB3LYP) =  -689.244698369     A.U. after   18 cycles
 SCF Done:  E(UB3LYP) =  -689.245937557     A.U. after   16 cycles
 SCF Done:  E(UB3LYP) =  -689.246366681     A.U. after   15 cycles
 SCF Done:  E(UB3LYP) =  -689.246536510     A.U. after   15 cycles
 SCF Done:  E(UB3LYP) =  -689.246581325     A.U. after   15 cycles
 SCF Done:  E(UB3LYP) =  -689.246610268     A.U. after   14 cycles
 SCF Done:  E(UB3LYP) =  -689.246627113     A.U. after   13 cycles
 SCF Done:  E(UB3LYP) =  -689.246630648     A.U. after   12 cycles
 SCF Done:  E(UB3LYP) =  -689.246630896     A.U. after   11 cycles
 Optimization completed.
    -- Stationary point found.
 Normal termination of Gaussian 16 at Tue Dec 26 22:00:19 2023.

 ----------------------------------------------------------------------
 #P Geom=AllCheck Guess=TCheck SCRF=Check GenChk UB3LYP/6-311++G(d,p) F
 req
 ----------------------------------------------------------------------

 Structure from the checkpoint file:  "282-rad.chk"
 -------
 Radical
 -------
 Charge = -1 Multiplicity = 2

                          Input orientation:
 ---------------------------------------------------------------------
 Center     Atomic      Atomic             Coordinates (Angstroms)
 Number     Number       Type             X           Y           Z
 ---------------------------------------------------------------------
      1          6           0       -1.826390    3.148994    0.247181
      2          6           0       -2.956926    2.439992   -0.114161
      3          6           0       -2.850950    1.083920   -0.484403
      4          6           0       -0.556267    2.532491    0.251632
      5          6           0       -0.447042    1.162233   -0.122522
      6          6           0       -1.611793    0.463934   -0.485649
      7          6           0        0.626875    3.275279    0.630090
      8          6           0        1.880775    2.558146    0.602121
      9          6           0        2.022144    1.231741    0.252179
     10          6           0        0.857315    0.465282   -0.136627
     11          8           0        0.643360    4.500938    0.981794
     12          8           0        0.938930   -0.745183   -0.471454
     13          1           0       -1.882384    4.192580    0.535905
     14          1           0       -3.927791    2.927295   -0.113123
     15          1           0       -3.739428    0.527586   -0.768159
     16          1           0       -1.500557   -0.577362   -0.766351
     17          6           0        3.370530    0.557721    0.246225
     18          8           0        2.951158    3.322793    0.967035
     19          6           0        4.062519    0.604702   -1.129043
     20          1           0        3.228155   -0.489119    0.529337
     21          1           0        4.017040    1.030981    0.991325
     22          1           0        2.524918    4.187520    1.158683
     23          1           0        3.440792    0.114159   -1.882151
     24          1           0        5.032527    0.093127   -1.100919
     25          1           0        4.233331    1.638499   -1.443504
 ---------------------------------------------------------------------

 SCF Done:  E(UB3LYP) =  -689.246630896     A.U. after    1 cycles

 Alpha  occ. eigenvalues --  -19.01547 -18.95356 -18.94039 -10.09311 -10.09203
 Alpha  occ. eigenvalues --  -10.08957 -10.05620 -10.05440 -10.05007 -10.04879
 Alpha  occ. eigenvalues --  -10.04817 -10.04647 -10.04271 -10.04237 -10.03477
 Alpha  occ. eigenvalues --   -0.93478  -0.86565  -0.86315  -0.73493  -0.68538
 Alpha  occ. eigenvalues --   -0.64659  -0.62819  -0.60055  -0.54721  -0.51356
 Alpha  occ. eigenvalues --   -0.49134  -0.46224  -0.44401  -0.41248  -0.37989
 Alpha  occ. eigenvalues --   -0.35839  -0.34005  -0.33270  -0.31691  -0.30573
 Alpha  occ. eigenvalues --   -0.30364  -0.29557  -0.28351  -0.26795  -0.26011
 Alpha  occ. eigenvalues --   -0.25744  -0.25473  -0.24348  -0.23023  -0.22389
 Alpha  occ. eigenvalues --   -0.21677  -0.21113  -0.20805  -0.14029  -0.13376
 Alpha  occ. eigenvalues --   -0.12711  -0.10576  -0.10147  -0.02023
 Alpha virt. eigenvalues --    0.08376   0.08716   0.09289   0.10301   0.11069
 Alpha virt. eigenvalues --    0.11442   0.11569   0.12048   0.13281   0.14191
 Alpha virt. eigenvalues --    0.14604   0.15104   0.15774   0.16376   0.17838

  Beta  occ. eigenvalues --  -19.01507 -18.94687 -18.93477 -10.09220 -10.09109
  Beta  occ. eigenvalues --  -10.08692 -10.05616 -10.05339 -10.04966 -10.04861
  Beta  occ. eigenvalues --  -10.04845 -10.04514 -10.04265 -10.04242 -10.03393
  Beta  occ. eigenvalues --   -0.93284  -0.85601  -0.85188  -0.73266  -0.68222
  Beta  occ. eigenvalues --   -0.64412  -0.62623  -0.59906  -0.53907  -0.51173
  Beta  occ. eigenvalues --   -0.48949  -0.46005  -0.44155  -0.41093  -0.37770
  Beta  occ. eigenvalues --   -0.35585  -0.33858  -0.33149  -0.31506  -0.30463
  Beta  occ. eigenvalues --   -0.29970  -0.28898  -0.27808  -0.26393  -0.25513
  Beta  occ. eigenvalues --   -0.25338  -0.24997  -0.24170  -0.22455  -0.21539
  Beta  occ. eigenvalues --   -0.21008  -0.20604  -0.19787  -0.12705  -0.12113
  Beta  occ. eigenvalues --   -0.11944  -0.10028  -0.09097
  Beta virt. eigenvalues --    0.04531   0.08370   0.08869   0.09792   0.10295
  Beta virt. eigenvalues --    0.11098   0.11531   0.12043   0.12577   0.13280
  Beta virt. eigenvalues --    0.14192   0.14597   0.15119   0.15831   0.16408

 Mulliken charges and spin densities:
               1          2
     1  C    0.037001   0.069607
     2  C   -0.329785   0.001994
     3  C   -0.366896   0.079499
     4  C    0.289067  -0.001097
     5  C    0.574976   0.097480
     6  C    0.091438  -0.013307
     7  C   -0.948932   0.157286
     8  C   -0.693227   0.049436
     9  C    1.787867   0.042854
    10  C   -1.019281   0.047265
    11  O   -0.453957   0.245358
    12  O   -0.370610   0.208501
    13  H    0.160625  -0.003454
    14  H    0.118141  -0.000667
    15  H    0.119023  -0.006056
    16  H    0.160433   0.000405
    17  C   -0.289011   0.004846
    18  O   -0.264198   0.014536
    19  C   -0.617968   0.003392
    20  H    0.176476   0.001897
    21  H    0.170735   0.000042
    22  H    0.267454  -0.003760
    23  H    0.170523  -0.001437
    24  H    0.088854   0.004117
    25  H    0.141251   0.001266
 Sum of Mulliken charges =  -1.00000   1.00000

 Dipole moment (field-independent basis, Debye):
    X=             -3.7807    Y=             -8.5175    Z=             -0.8495  Tot=              9.3575
 Quadrupole moment (field-independent basis, Debye-Ang):
   XX=           -108.5063   YY=           -134.2460   ZZ=            -96.9975
   XY=             -5.1101   XZ=             -0.4894   YZ=             -8.7149

  Exact polarizability: 238.648  -8.744 191.707  10.909  29.192 105.279
 Approx polarizability: 340.028  -2.109 353.766  24.860  60.088 165.222

                      1                      2                      3
                      A                      A                      A
 Frequencies --     41.6930                67.8323               105.2584
 Red. masses --      2.6632                 4.7186                 6.2014
 Frc consts  --      0.0027                 0.0128                 0.0405
 IR Inten    --      0.4340                 4.1133                 1.2126

                      4                      5                      6
                      A                      A                      A
 Frequencies --    144.5862               168.3935               207.9318
 Red. masses --      4.7756                 7.1699                 1.2445
 Frc consts  --      0.0588                 0.1198                 0.0317
 IR Inten    --      0.4782                 1.3670                 0.9287

                      7                      8                      9
                      A                      A                      A
 Frequencies --    218.6753               257.8499               311.4242
 Red. masses --      4.4734                 3.9424                 2.1032
 Frc consts  --      0.1260                 0.1544                 0.1202
 IR Inten    --      0.1880                 1.6316                 2.9409

                     10                     11                     12
                      A                      A                      A
 Frequencies --    331.1255               362.9937               377.8842
 Red. masses --      5.3824                 5.3743                 9.7016
 Frc consts  --      0.3477                 0.4172                 0.8162
 IR Inten    --      4.0741                 8.4694                 9.4194

                     13                     14                     15
                      A                      A                      A
 Frequencies --    414.9436               430.6509               444.0066
 Red. masses --      6.3386                 9.0964                 4.3699
 Frc consts  --      0.6430                 0.9940                 0.5076
 IR Inten    --      4.6421                 1.7800                 2.4708

                     16                     17                     18
                      A                      A                      A
 Frequencies --    474.1764               519.5439               567.3115
 Red. masses --      4.3371                 8.4800                 5.2181
 Frc consts  --      0.5746                 1.3486                 0.9895
 IR Inten    --      2.9121                 0.4736                 1.2363

                     19                     20                     21
                      A                      A                      A
 Frequencies --    622.4337               670.8630               699.5745
 Red. masses --      5.7036                 6.1171                 3.2975
 Frc consts  --      1.3019                 1.6221                 0.9508
 IR Inten    --     10.3051                 3.8894                 3.7505

                     22                     23                     24
                      A                      A                      A
 Frequencies --    702.9562               707.8298               733.9350
 Red. masses --      3.1095                 5.6490                 1.1385
 Frc consts  --      0.9053                 1.6676                 0.3613
 IR Inten    --     13.3945                 0.1872               136.0591

                     25                     26                     27
                      A                      A                      A
 Frequencies --    758.9482               774.8829               780.7976
 Red. masses --      2.4816                 1.5975                 2.5251
 Frc consts  --      0.8422                 0.5651                 0.9070
 IR Inten    --      3.4872                 0.5912                 7.0089

                     28                     29                     30
                      A                      A                      A
 Frequencies --    860.6638               881.9098               897.9311
 Red. masses --      1.3816                 3.0896                 3.4133
 Frc consts  --      0.6030                 1.4158                 1.6215
 IR Inten    --      0.0465                24.9853                23.8312

                     31                     32                     33
                      A                      A                      A
 Frequencies --    969.4485               978.2499               984.5706
 Red. masses --      1.3181                 1.2902                 3.7059
 Frc consts  --      0.7299                 0.7274                 2.1166
 IR Inten    --      1.5981                 1.0872                19.7247

                     34                     35                     36
                      A                      A                      A
 Frequencies --   1037.6348              1039.6404              1078.3106
 Red. masses --      2.1012                 2.8118                 1.8971
 Frc consts  --      1.3329                 1.7906                 1.2997
 IR Inten    --     21.7036                12.6663                 6.1821

                     37                     38                     39
                      A                      A                      A
 Frequencies --   1107.6515              1119.3764              1150.2862
 Red. masses --      2.0035                 2.2120                 1.3131
 Frc consts  --      1.4483                 1.6330                 1.0237
 IR Inten    --      8.3584                63.6178                 1.0591

                     40                     41                     42
                      A                      A                      A
 Frequencies --   1195.3792              1205.0176              1248.1798
 Red. masses --      2.7062                 2.3712                 2.7259
 Frc consts  --      2.2784                 2.0286                 2.5022
 IR Inten    --     11.4651                24.5941                20.0570

                     43                     44                     45
                      A                      A                      A
 Frequencies --   1284.3496              1310.5426              1339.1498
 Red. masses --      2.1601                 1.3567                 1.7862
 Frc consts  --      2.0993                 1.3729                 1.8873
 IR Inten    --     25.2159                48.8554                46.5546

                     46                     47                     48
                      A                      A                      A
 Frequencies --   1352.3014              1361.4574              1388.3389
 Red. masses --      5.7429                 1.7781                 1.2240
 Frc consts  --      6.1877                 1.9419                 1.3901
 IR Inten    --     34.0133                20.4720                 8.3478

                     49                     50                     51
                      A                      A                      A
 Frequencies --   1436.4612              1462.6757              1466.2923
 Red. masses --      2.4101                 1.9278                 1.7551
 Frc consts  --      2.9301                 2.4300                 2.2232
 IR Inten    --    378.8705                38.0062                35.6296

                     52                     53                     54
                      A                      A                      A
 Frequencies --   1485.6653              1493.3104              1503.5572
 Red. masses --      2.2622                 1.0577                 1.0687
 Frc consts  --      2.9419                 1.3896                 1.4235
 IR Inten    --     79.9113                 6.2335                11.3169

                     55                     56                     57
                      A                      A                      A
 Frequencies --   1525.1617              1540.5491              1577.7905
 Red. masses --      5.4209                 5.7582                 5.3482
 Frc consts  --      7.4294                 8.0517                 7.8444
 IR Inten    --    392.6884                79.7376                19.5658

                     58                     59                     60
                      A                      A                      A
 Frequencies --   1621.1541              1639.3880              3000.4919
 Red. masses --      5.8165                 6.1952                 1.0415
 Frc consts  --      9.0066                 9.8100                 5.5246
 IR Inten    --     14.8127                 9.8987               115.7406

                     61                     62                     63
                      A                      A                      A
 Frequencies --   3027.2194              3060.1344              3067.4702
 Red. masses --      1.0582                 1.0980                 1.0969
 Frc consts  --      5.7137                 6.0583                 6.0812
 IR Inten    --     47.6799                40.1058                38.7771

                     64                     65                     66
                      A                      A                      A
 Frequencies --   3094.8764              3132.4337              3151.7646
 Red. masses --      1.1034                 1.0845                 1.0909
 Frc consts  --      6.2270                 6.2698                 6.3847
 IR Inten    --     31.6152                15.8541                48.1555

                     67                     68                     69
                      A                      A                      A
 Frequencies --   3178.8344              3181.8460              3481.5140
 Red. masses --      1.0915                 1.0929                 1.0635
 Frc consts  --      6.4986                 6.5188                 7.5951
 IR Inten    --     14.5510                24.8633                95.8041

 - Thermochemistry -
 -------------------
 Temperature   298.150 Kelvin.  Pressure   1.00000 Atm.
 Atom     1 has atomic number  6 and mass  12.00000

 Molecular mass:   202.06299 amu.
 Principal axes and moments of inertia in atomic units:
                           1         2         3
     Eigenvalues --  1842.785863473.464785138.61583
           X            0.99117   0.11838  -0.05976
           Y           -0.13152   0.93533  -0.32843
           Z            0.01702   0.33339   0.94264
 This molecule is an asymmetric top.
 Rotational symmetry number  1.
 Warning -- assumption of classical behavior for rotation
           may cause significant error
 Rotational temperatures (Kelvin)      0.04700     0.02494     0.01686
 Rotational constants (GHZ):           0.97935     0.51958     0.35121
 Zero-point vibrational energy     501339.9 (Joules/Mol)
                                  119.82311 (Kcal/Mol)
 Warning -- explicit consideration of  18 degrees of freedom as
           vibrations may cause significant error
 Vibrational temperatures:     59.99    97.60   151.44   208.03   242.28
          (Kelvin)            299.17   314.63   370.99   448.07   476.42
                              522.27   543.69   597.01   619.61   638.83
                              682.23   747.51   816.23   895.54   965.22
                             1006.53  1011.40  1018.41  1055.97  1091.96
                             1114.88  1123.39  1238.30  1268.87  1291.92
                             1394.82  1407.48  1416.58  1492.92  1495.81
                             1551.45  1593.66  1610.53  1655.01  1719.88
                             1733.75  1795.85  1847.89  1885.58  1926.74
                             1945.66  1958.83  1997.51  2066.75  2104.46
                             2109.67  2137.54  2148.54  2163.28  2194.37
                             2216.51  2270.09  2332.48  2358.71  4317.04
                             4355.49  4402.85  4413.41  4452.84  4506.87
                             4534.69  4573.63  4577.97  5009.12

 Zero-point correction=                           0.190950 (Hartree/Particle)
 Thermal correction to Energy=                    0.203501
 Thermal correction to Enthalpy=                  0.204445
 Thermal correction to Gibbs Free Energy=         0.151201
 Sum of electronic and zero-point Energies=           -689.055681
 Sum of electronic and thermal Energies=              -689.043130
 Sum of electronic and thermal Enthalpies=            -689.042186
 Sum of electronic and thermal Free Energies=         -689.095430

                     E (Thermal)             CV                S
                      KCal/Mol        Cal/Mol-Kelvin    Cal/Mol-Kelvin
 Total                  127.699             49.089            112.062
 Electronic               0.000              0.000              1.377
 Translational            0.889              2.981             41.815
 Rotational               0.889              2.981             31.864
 Vibrational            125.921             43.128             37.005
 Vibration     1          0.594              1.981              5.177
 Vibration     2          0.598              1.970              4.215
 Vibration     3          0.605              1.945              3.355
 Vibration     4          0.616              1.909              2.742
 Vibration     5          0.625              1.881              2.453
 Vibration     6          0.641              1.829              2.062
 Vibration     7          0.646              1.813              1.970
 Vibration     8          0.667              1.749              1.676
 Vibration     9          0.700              1.652              1.355
 Vibration    10          0.713              1.613              1.255
 Vibration    11          0.737              1.548              1.109
 Vibration    12          0.748              1.517              1.048
 Vibration    13          0.778              1.438              0.909
 Vibration    14          0.792              1.403              0.857
 Vibration    15          0.804              1.374              0.814
 Vibration    16          0.831              1.307              0.726
 Vibration    17          0.875              1.207              0.611
 Vibration    18          0.923              1.102              0.509

 Optimization completed.
    -- Stationary point found.
 Normal termination of Gaussian 16 at Tue Dec 26 22:32:58 2023.
