 Q-Chem 5.4, Q-Chem, Inc., Pleasanton, CA (2021)
 Q-Chem 5.4.0 for Intel X86 EM64T Linux

User input:
--------------------------------------------------------------
$molecule
-2 1
C                  0.9034550000      1.1662960000     -1.4538640000
C                 -0.4646690000      1.0718040000     -1.8964380000
C                 -1.3812710000      0.3431500000     -1.1169350000
C                 -1.0612310000     -0.3877420000      0.0858320000
C                  0.3021660000     -0.2767970000      0.5390250000
C                  1.2052100000      0.4994400000     -0.2098550000
O                  1.7978920000      1.8059110000     -2.1176820000
O                 -1.9389380000     -1.0862700000      0.7115570000
S                  2.9068480000      0.7444310000      0.3311910000
C                  3.1899200000      2.5513290000      0.3585160000
C                  3.6907910000      3.2169310000     -0.7596750000
C                  2.9375660000      3.2334550000      1.5459810000
C                  3.1862760000      4.6048130000      1.6212360000
C                  3.9492710000      4.5854840000     -0.6716210000
C                  3.6949620000      5.2818470000      0.5110670000
O                  3.9042300000      0.1636160000     -0.5920630000
O                  3.0420420000      0.3591780000      1.7598630000
H                  3.8448970000      2.6577730000     -1.6702630000
H                  2.5598870000      2.6823960000      2.3983870000
H                  4.3344920000      5.1130580000     -1.5391580000
H                  2.9846520000      5.1402100000      2.5442590000
H                  3.8850840000      6.3502890000      0.5654890000
S                 -3.1233330000      0.2398400000     -1.5671810000
C                 -4.0746160000      0.7597190000     -0.0939550000
C                 -4.4040100000      2.1071470000      0.0281660000
C                 -4.5007560000     -0.1724330000      0.8514020000
C                 -5.2780620000      0.2620900000      1.9258540000
C                 -5.1703580000      2.5353950000      1.1132920000
C                 -5.6100470000      1.6109440000      2.0628420000
H                 -4.0661190000      2.8016080000     -0.7310810000
H                 -4.1991310000     -1.2026750000      0.7364570000
H                 -5.6101290000     -0.4561300000      2.6696570000
H                 -5.4235040000      3.5865970000      1.2141000000
H                 -6.2029380000      1.9423450000      2.9109740000
O                 -3.5608560000     -1.1313610000     -1.9032810000
O                 -3.4484370000      1.2892980000     -2.5675740000
C                 -0.7584780000      1.7472940000     -3.2150490000
C                  0.6300600000     -1.0714850000      1.7809490000
H                  0.2027650000      2.0180340000     -3.6551530000
H                 -1.3566970000      2.6568090000     -3.0911870000
H                 -1.3196440000      1.1046140000     -3.8972610000
H                 -0.2217900000     -1.7256190000      1.9744330000
H                  0.7859080000     -0.4297020000      2.6551490000
H                  1.5427710000     -1.6614700000      1.6701100000
$end

$rem
BASIS  =  6-311++G(d,p)
GUI  =  2
JOB_TYPE  =  SP
METHOD  =  B3LYP
SCF_CONVERGENCE  = 8
SOLVENT_METHOD = sm12
$end

$smx
solvent dimethylformamide
charges CM5
$end

--------------------------------------------------------------

             Standard Nuclear Orientation (Angstroms)
    I     Atom           X                Y                Z
 ----------------------------------------------------------------
    1      C       0.9034550000     1.1662960000    -1.4538640000
    2      C      -0.4646690000     1.0718040000    -1.8964380000
    3      C      -1.3812710000     0.3431500000    -1.1169350000
    4      C      -1.0612310000    -0.3877420000     0.0858320000
    5      C       0.3021660000    -0.2767970000     0.5390250000
    6      C       1.2052100000     0.4994400000    -0.2098550000
    7      O       1.7978920000     1.8059110000    -2.1176820000
    8      O      -1.9389380000    -1.0862700000     0.7115570000
    9      S       2.9068480000     0.7444310000     0.3311910000
   10      C       3.1899200000     2.5513290000     0.3585160000
   11      C       3.6907910000     3.2169310000    -0.7596750000
   12      C       2.9375660000     3.2334550000     1.5459810000
   13      C       3.1862760000     4.6048130000     1.6212360000
   14      C       3.9492710000     4.5854840000    -0.6716210000
   15      C       3.6949620000     5.2818470000     0.5110670000
   16      O       3.9042300000     0.1636160000    -0.5920630000
   17      O       3.0420420000     0.3591780000     1.7598630000
   18      H       3.8448970000     2.6577730000    -1.6702630000
   19      H       2.5598870000     2.6823960000     2.3983870000
   20      H       4.3344920000     5.1130580000    -1.5391580000
   21      H       2.9846520000     5.1402100000     2.5442590000
   22      H       3.8850840000     6.3502890000     0.5654890000
   23      S      -3.1233330000     0.2398400000    -1.5671810000
   24      C      -4.0746160000     0.7597190000    -0.0939550000
   25      C      -4.4040100000     2.1071470000     0.0281660000
   26      C      -4.5007560000    -0.1724330000     0.8514020000
   27      C      -5.2780620000     0.2620900000     1.9258540000
   28      C      -5.1703580000     2.5353950000     1.1132920000
   29      C      -5.6100470000     1.6109440000     2.0628420000
   30      H      -4.0661190000     2.8016080000    -0.7310810000
   31      H      -4.1991310000    -1.2026750000     0.7364570000
   32      H      -5.6101290000    -0.4561300000     2.6696570000
   33      H      -5.4235040000     3.5865970000     1.2141000000
   34      H      -6.2029380000     1.9423450000     2.9109740000
   35      O      -3.5608560000    -1.1313610000    -1.9032810000
   36      O      -3.4484370000     1.2892980000    -2.5675740000
   37      C      -0.7584780000     1.7472940000    -3.2150490000
   38      C       0.6300600000    -1.0714850000     1.7809490000
   39      H       0.2027650000     2.0180340000    -3.6551530000
   40      H      -1.3566970000     2.6568090000    -3.0911870000
   41      H      -1.3196440000     1.1046140000    -3.8972610000
   42      H      -0.2217900000    -1.7256190000     1.9744330000
   43      H       0.7859080000    -0.4297020000     2.6551490000
   44      H       1.5427710000    -1.6614700000     1.6701100000
 ----------------------------------------------------------------

   16   -2019.7446872154      6.83e-09  Convergence criterion met
 Total energy in the final basis set =    -2020.0004420803

                    Orbital Energies (a.u.)
 --------------------------------------------------------------

 Alpha MOs
 -- Occupied --
-89.0313 -89.0312 -19.0955 -19.0954 -19.0930 -19.0928 -19.0262 -19.0262
-10.2038 -10.2037 -10.1969 -10.1968 -10.1901 -10.1901 -10.1893 -10.1892
-10.1872 -10.1872 -10.1851 -10.1850 -10.1844 -10.1843 -10.1766 -10.1766
-10.1629 -10.1629 -10.1513 -10.1513  -8.0946  -8.0945  -6.0575  -6.0574
 -6.0565  -6.0564  -6.0554  -6.0553  -1.0840  -1.0839  -0.9781  -0.9780
 -0.9537  -0.9503  -0.8702  -0.8701  -0.8156  -0.7819  -0.7716  -0.7657
 -0.7590  -0.7588  -0.7170  -0.7154  -0.6757  -0.6415  -0.6305  -0.6190
 -0.6184  -0.6136  -0.5840  -0.5582  -0.5366  -0.5334  -0.5239  -0.4913
 -0.4842  -0.4731  -0.4698  -0.4688  -0.4612  -0.4588  -0.4528  -0.4511
 -0.4349  -0.4341  -0.4327  -0.4322  -0.4142  -0.4035  -0.3996  -0.3882
 -0.3860  -0.3846  -0.3781  -0.3768  -0.3706  -0.3700  -0.3605  -0.3589
 -0.3561  -0.3533  -0.3385  -0.3320  -0.3171  -0.3149  -0.3035  -0.3028
 -0.2851  -0.2846  -0.2827  -0.2781  -0.2678  -0.2669  -0.2647  -0.2633
 -0.2383  -0.2370  -0.2102  -0.2030  -0.1349

          Ground-State Mulliken Net Atomic Charges

     Atom                 Charge (a.u.)
  ----------------------------------------
      1 C                    -1.488263
      2 C                    -0.124503
      3 C                    -0.580418
      4 C                    -1.479883
      5 C                    -0.132824
      6 C                    -0.571085
      7 O                    -0.273048
      8 O                    -0.273374
      9 S                    -0.135419
     10 C                    -2.109236
     11 C                    -1.261992
     12 C                    -0.028815
     13 C                     0.890397
     14 C                     0.671624
     15 C                     1.676645
     16 O                    -0.071938
     17 O                    -0.076827
     18 H                     0.118077
     19 H                     0.223971
     20 H                     0.349876
     21 H                     0.377133
     22 H                     0.452667
     23 S                    -0.142806
     24 C                    -2.113621
     25 C                    -0.022399
     26 C                    -1.262776
     27 C                     0.671028
     28 C                     0.891593
     29 C                     1.678632
     30 H                     0.223698
     31 H                     0.118507
     32 H                     0.349916
     33 H                     0.376977
     34 H                     0.452734
     35 O                    -0.069510
     36 O                    -0.077384
     37 C                    -0.042616
     38 C                    -0.040457
     39 H                     0.138220
     40 H                     0.160946
     41 H                     0.128837
     42 H                     0.138011
     43 H                     0.160698
     44 H                     0.129006
  ----------------------------------------
  Sum of atomic charges =    -2.000000

                    Cartesian Multipole Moments
 -----------------------------------------------------------------
    Charge (ESU x 10^10)
                -9.6064
    Dipole Moment (Debye)
         X      -0.1074      Y      -0.7280      Z       8.5178
       Tot       8.5495
    Quadrupole Moments (Debye-Ang)
        XX    -277.4247     XY     -11.8935     YY    -194.9423
        XZ     -23.4648     YZ      13.9706     ZZ    -221.6212

 Total job time:  2595.51s(wall), 17560.72s(cpu)
        *  Thank you very much for using Q-Chem.  Have a nice day.  *
