 Gaussian 16, Revision A.03,
 Gaussian 16:  ES64L-G16RevA.03 25-Dec-2016

 --------------------------------------
 #P UB3LYP/6-311++G(d,p) nosym opt freq
 --------------------------------------

 -------
 Reduced
 -------
 Symbolic Z-matrix:
 Charge = -2 Multiplicity = 1

 SCF Done:  E(UB3LYP) =  -2019.75714990     A.U. after   24 cycles
 SCF Done:  E(UB3LYP) =  -2019.75714985     A.U. after   12 cycles
 Optimization completed.
    -- Stationary point found.
 Normal termination of Gaussian 16 at Wed Jan 10 06:05:22 2024.

 ----------------------------------------------------------------------
 #P Geom=AllCheck Guess=TCheck SCRF=Check GenChk UB3LYP/6-311++G(d,p) F
 req
 ----------------------------------------------------------------------

 Structure from the checkpoint file:  "073-an.chk"
 -------
 Reduced
 -------
 Charge = -2 Multiplicity = 1

                          Input orientation:
 ---------------------------------------------------------------------
 Center     Atomic      Atomic             Coordinates (Angstroms)
 Number     Number       Type             X           Y           Z
 ---------------------------------------------------------------------
      1          6           0        0.903455    1.166296   -1.453864
      2          6           0       -0.464669    1.071804   -1.896438
      3          6           0       -1.381271    0.343150   -1.116935
      4          6           0       -1.061231   -0.387742    0.085832
      5          6           0        0.302166   -0.276797    0.539025
      6          6           0        1.205210    0.499440   -0.209855
      7          8           0        1.797892    1.805911   -2.117682
      8          8           0       -1.938938   -1.086270    0.711557
      9         16           0        2.906848    0.744431    0.331191
     10          6           0        3.189920    2.551329    0.358516
     11          6           0        3.690791    3.216931   -0.759675
     12          6           0        2.937566    3.233455    1.545981
     13          6           0        3.186276    4.604813    1.621236
     14          6           0        3.949271    4.585484   -0.671621
     15          6           0        3.694962    5.281847    0.511067
     16          8           0        3.904230    0.163616   -0.592063
     17          8           0        3.042042    0.359178    1.759863
     18          1           0        3.844897    2.657773   -1.670263
     19          1           0        2.559887    2.682396    2.398387
     20          1           0        4.334492    5.113058   -1.539158
     21          1           0        2.984652    5.140210    2.544259
     22          1           0        3.885084    6.350289    0.565489
     23         16           0       -3.123333    0.239840   -1.567181
     24          6           0       -4.074616    0.759719   -0.093955
     25          6           0       -4.404010    2.107147    0.028166
     26          6           0       -4.500756   -0.172433    0.851402
     27          6           0       -5.278062    0.262090    1.925854
     28          6           0       -5.170358    2.535395    1.113292
     29          6           0       -5.610047    1.610944    2.062842
     30          1           0       -4.066119    2.801608   -0.731081
     31          1           0       -4.199131   -1.202675    0.736457
     32          1           0       -5.610129   -0.456130    2.669657
     33          1           0       -5.423504    3.586597    1.214100
     34          1           0       -6.202938    1.942345    2.910974
     35          8           0       -3.560856   -1.131361   -1.903281
     36          8           0       -3.448437    1.289298   -2.567574
     37          6           0       -0.758478    1.747294   -3.215049
     38          6           0        0.630060   -1.071485    1.780949
     39          1           0        0.202765    2.018034   -3.655153
     40          1           0       -1.356697    2.656809   -3.091187
     41          1           0       -1.319644    1.104614   -3.897261
     42          1           0       -0.221790   -1.725619    1.974433
     43          1           0        0.785908   -0.429702    2.655149
     44          1           0        1.542771   -1.661470    1.670110
 ---------------------------------------------------------------------

 SCF Done:  E(UB3LYP) =  -2019.75714985     A.U. after    2 cycles

 Alpha  occ. eigenvalues --  -88.82208 -88.82206 -18.88550 -18.88547 -18.88401
 Alpha  occ. eigenvalues --  -18.88399 -18.80910 -18.80909 -10.00811 -10.00808
 Alpha  occ. eigenvalues --  -10.00704 -10.00700 -10.00393 -10.00391 -10.00084
 Alpha  occ. eigenvalues --  -10.00082  -9.99979  -9.99977  -9.99195  -9.99190
 Alpha  occ. eigenvalues --   -9.97805  -9.97804  -9.96028  -9.96027  -9.94300
 Alpha  occ. eigenvalues --   -9.94299  -9.92897  -9.92895  -7.88532  -7.88530
 Alpha  occ. eigenvalues --   -5.84818  -5.84816  -5.84738  -5.84736  -5.84599
 Alpha  occ. eigenvalues --   -5.84597  -0.87479  -0.87473  -0.76871  -0.76867
 Alpha  occ. eigenvalues --   -0.73573  -0.73174  -0.68216  -0.68212  -0.59758
 Alpha  occ. eigenvalues --   -0.58312  -0.58073  -0.57197  -0.57188  -0.55557
 Alpha  occ. eigenvalues --   -0.50274  -0.49941  -0.46565  -0.44334  -0.43151
 Alpha  occ. eigenvalues --   -0.43139  -0.41837  -0.40930  -0.38712  -0.36096
 Alpha  occ. eigenvalues --   -0.34157  -0.32828  -0.31643  -0.29211  -0.28127
 Alpha  occ. eigenvalues --   -0.28020  -0.27573  -0.27015  -0.26451  -0.26088
 Alpha  occ. eigenvalues --   -0.25299  -0.25057  -0.24782  -0.24165  -0.22429
 Alpha  occ. eigenvalues --   -0.22366  -0.19871  -0.19582  -0.19568  -0.19171
 Alpha  occ. eigenvalues --   -0.18690  -0.18088  -0.17861  -0.17380  -0.16898
 Alpha  occ. eigenvalues --   -0.16527  -0.15525  -0.14888  -0.13939  -0.13830
 Alpha  occ. eigenvalues --   -0.12235  -0.11811  -0.10630  -0.10577  -0.09476
 Alpha  occ. eigenvalues --   -0.09430  -0.08481  -0.08355  -0.07720  -0.07649
 Alpha  occ. eigenvalues --   -0.07511  -0.07261  -0.06623  -0.05844  -0.02000
 Alpha  occ. eigenvalues --   -0.01767   0.00713   0.01379   0.08505
 Alpha virt. eigenvalues --    0.12703   0.12798   0.14697   0.14740   0.14834
 Alpha virt. eigenvalues --    0.15333   0.16260   0.16340   0.16486   0.16601
 Alpha virt. eigenvalues --    0.18062   0.18250   0.19051   0.19640   0.19909

  Beta  occ. eigenvalues --  -88.82208 -88.82206 -18.88550 -18.88547 -18.88401
  Beta  occ. eigenvalues --  -18.88399 -18.80910 -18.80909 -10.00811 -10.00808
  Beta  occ. eigenvalues --  -10.00704 -10.00700 -10.00393 -10.00391 -10.00084
  Beta  occ. eigenvalues --  -10.00082  -9.99979  -9.99977  -9.99195  -9.99190
  Beta  occ. eigenvalues --   -9.97805  -9.97804  -9.96028  -9.96027  -9.94300
  Beta  occ. eigenvalues --   -9.94299  -9.92897  -9.92895  -7.88532  -7.88530
  Beta  occ. eigenvalues --   -5.84818  -5.84816  -5.84738  -5.84736  -5.84599
  Beta  occ. eigenvalues --   -5.84597  -0.87479  -0.87473  -0.76871  -0.76867
  Beta  occ. eigenvalues --   -0.73573  -0.73174  -0.68216  -0.68212  -0.59758
  Beta  occ. eigenvalues --   -0.58312  -0.58073  -0.57197  -0.57188  -0.55557
  Beta  occ. eigenvalues --   -0.50274  -0.49941  -0.46565  -0.44334  -0.43151
  Beta  occ. eigenvalues --   -0.43139  -0.41837  -0.40930  -0.38712  -0.36096
  Beta  occ. eigenvalues --   -0.34157  -0.32828  -0.31643  -0.29211  -0.28127
  Beta  occ. eigenvalues --   -0.28020  -0.27573  -0.27015  -0.26451  -0.26088
  Beta  occ. eigenvalues --   -0.25299  -0.25057  -0.24782  -0.24165  -0.22429
  Beta  occ. eigenvalues --   -0.22366  -0.19871  -0.19582  -0.19568  -0.19171
  Beta  occ. eigenvalues --   -0.18690  -0.18088  -0.17861  -0.17380  -0.16898
  Beta  occ. eigenvalues --   -0.16527  -0.15525  -0.14888  -0.13939  -0.13830
  Beta  occ. eigenvalues --   -0.12235  -0.11811  -0.10630  -0.10577  -0.09476
  Beta  occ. eigenvalues --   -0.09430  -0.08481  -0.08355  -0.07720  -0.07649
  Beta  occ. eigenvalues --   -0.07511  -0.07261  -0.06623  -0.05844  -0.02000
  Beta  occ. eigenvalues --   -0.01767   0.00713   0.01379   0.08505
  Beta virt. eigenvalues --    0.12703   0.12798   0.14697   0.14740   0.14834
  Beta virt. eigenvalues --    0.15333   0.16260   0.16340   0.16486   0.16601
  Beta virt. eigenvalues --    0.18062   0.18250   0.19051   0.19640   0.19909

 Mulliken charges and spin densities:
               1          2
     1  C   -1.008299  -0.000000
     2  C    0.616397   0.000000
     3  C    0.408114   0.000000
     4  C   -1.007826  -0.000000
     5  C    0.614614  -0.000000
     6  C    0.408131  -0.000000
     7  O   -0.384997   0.000000
     8  O   -0.385113   0.000000
     9  S   -0.034068  -0.000000
    10  C    0.213842   0.000000
    11  C   -0.200835  -0.000000
    12  C    0.171988   0.000000
    13  C   -0.521596  -0.000000
    14  C   -0.394865   0.000000
    15  C   -0.240599  -0.000000
    16  O   -0.108403   0.000000
    17  O   -0.175021   0.000000
    18  H    0.288679  -0.000000
    19  H    0.222220   0.000000
    20  H    0.138837   0.000000
    21  H    0.130919  -0.000000
    22  H    0.107683  -0.000000
    23  S   -0.033432  -0.000000
    24  C    0.214126   0.000000
    25  C    0.174275  -0.000000
    26  C   -0.203347   0.000000
    27  C   -0.394551   0.000000
    28  C   -0.521828  -0.000000
    29  C   -0.240896  -0.000000
    30  H    0.222273   0.000000
    31  H    0.288496   0.000000
    32  H    0.138842   0.000000
    33  H    0.130926  -0.000000
    34  H    0.107679  -0.000000
    35  O   -0.108027  -0.000000
    36  O   -0.175226   0.000000
    37  C   -0.676713  -0.000000
    38  C   -0.676610   0.000000
    39  H    0.165951   0.000000
    40  H    0.136783  -0.000000
    41  H    0.144460  -0.000000
    42  H    0.166022   0.000000
    43  H    0.136722   0.000000
    44  H    0.144272  -0.000000
 Sum of Mulliken charges =  -2.00000  -0.00000

 Dipole moment (field-independent basis, Debye):
    X=              0.8095    Y=             -3.9345    Z=              6.4472  Tot=              7.5962
 Quadrupole moment (field-independent basis, Debye-Ang):
   XX=           -294.9980   YY=           -211.7930   ZZ=           -223.4554
   XY=            -15.4992   XZ=            -17.5376   YZ=              9.1467

  Exact polarizability: 480.356  55.507 334.193 -10.768 -10.630 323.144
 Approx polarizability: 642.181  50.161 564.669 -22.591 -48.782 584.549

                      1                      2                      3
                      A                      A                      A
 Frequencies --     16.9502                17.3131                33.3622
 Red. masses --      5.9691                 6.3063                 3.8744
 Frc consts  --      0.0010                 0.0011                 0.0025
 IR Inten    --      0.2019                 0.2928                 0.5629

                      4                      5                      6
                      A                      A                      A
 Frequencies --     36.2975                60.0904                69.3035
 Red. masses --      6.8938                 4.6592                 3.6641
 Frc consts  --      0.0054                 0.0099                 0.0104
 IR Inten    --      4.1953                 0.0220                 3.5016

                      7                      8                      9
                      A                      A                      A
 Frequencies --     73.1082               102.3337               107.3562
 Red. masses --      3.7708                 6.3154                 4.7828
 Frc consts  --      0.0119                 0.0390                 0.0325
 IR Inten    --      0.3184                 0.4082                 5.8966

                     10                     11                     12
                      A                      A                      A
 Frequencies --    143.2353               150.7054               155.1420
 Red. masses --      7.0236                 1.1142                 1.1556
 Frc consts  --      0.0849                 0.0149                 0.0164
 IR Inten    --      1.3935                 0.2756                 0.2855

                     13                     14                     15
                      A                      A                      A
 Frequencies --    174.4714               178.8985               190.2239
 Red. masses --      7.4522                 5.7497                 7.5692
 Frc consts  --      0.1337                 0.1084                 0.1614
 IR Inten    --      0.0840                 0.8646                 0.6472

                     16                     17                     18
                      A                      A                      A
 Frequencies --    195.2983               210.9553               217.3061
 Red. masses --      6.5993                 6.1523                 6.4190
 Frc consts  --      0.1483                 0.1613                 0.1786
 IR Inten    --      6.8765                 2.1143                 7.6382

                     19                     20                     21
                      A                      A                      A
 Frequencies --    243.6891               247.2302               270.8834
 Red. masses --      8.3362                 6.8729                 9.3710
 Frc consts  --      0.2917                 0.2475                 0.4051
 IR Inten    --      3.3331                 3.6840                 0.3140

                     22                     23                     24
                      A                      A                      A
 Frequencies --    295.0274               305.2715               306.1283
 Red. masses --      7.1433                 8.1916                 8.4186
 Frc consts  --      0.3663                 0.4498                 0.4648
 IR Inten    --      0.1612                 0.1735                 1.9395

                     25                     26                     27
                      A                      A                      A
 Frequencies --    333.0871               362.7178               375.7899
 Red. masses --      5.4923                 5.8159                 4.1490
 Frc consts  --      0.3590                 0.4508                 0.3452
 IR Inten    --      9.3487                 0.3444                 1.2648

                     28                     29                     30
                      A                      A                      A
 Frequencies --    381.4360               402.2383               405.4900
 Red. masses --      5.4334                 6.8143                 6.6443
 Frc consts  --      0.4658                 0.6496                 0.6437
 IR Inten    --      4.6459                 5.4544                 0.0655

                     31                     32                     33
                      A                      A                      A
 Frequencies --    416.6338               416.9432               440.0009
 Red. masses --      3.0027                 2.9640                 8.3315
 Frc consts  --      0.3071                 0.3036                 0.9503
 IR Inten    --      0.4647                 1.1924                 9.5666

                     34                     35                     36
                      A                      A                      A
 Frequencies --    441.3734               459.6725               477.1389
 Red. masses --      6.1485                 4.8931                 4.7627
 Frc consts  --      0.7057                 0.6092                 0.6388
 IR Inten    --      0.0378                 0.8818                 5.7834

                     37                     38                     39
                      A                      A                      A
 Frequencies --    499.8449               518.9958               544.0900
 Red. masses --      9.1016                 7.6389                11.5623
 Frc consts  --      1.3398                 1.2123                 2.0167
 IR Inten    --     32.2303                 1.1486                49.4891

                     40                     41                     42
                      A                      A                      A
 Frequencies --    563.4297               587.8273               592.0468
 Red. masses --      6.9697                 7.6346                 8.6011
 Frc consts  --      1.3036                 1.5543                 1.7763
 IR Inten    --     24.6872                19.2677               425.0669

                     43                     44                     45
                      A                      A                      A
 Frequencies --    627.2485               627.3140               690.2274
 Red. masses --      6.3884                 6.3832                 1.7584
 Frc consts  --      1.4809                 1.4800                 0.4936
 IR Inten    --      4.4032                 1.3237                 7.0573

                     46                     47                     48
                      A                      A                      A
 Frequencies --    690.6892               698.0705               702.8052
 Red. masses --      1.6264                 5.0981                 6.7796
 Frc consts  --      0.4571                 1.4637                 1.9730
 IR Inten    --    103.8290                 4.9301                28.5997

                     49                     50                     51
                      A                      A                      A
 Frequencies --    715.4066               725.7780               731.8013
 Red. masses --      6.2671                 5.9166                 6.2342
 Frc consts  --      1.8898                 1.8362                 1.9671
 IR Inten    --      4.1386                21.7265                74.0496

                     52                     53                     54
                      A                      A                      A
 Frequencies --    748.4122               749.4733               755.8280
 Red. masses --      2.3631                 2.0709                 6.0022
 Frc consts  --      0.7798                 0.6854                 2.0203
 IR Inten    --      1.3754                 2.4034                 0.6253

                     55                     56                     57
                      A                      A                      A
 Frequencies --    823.8098               824.3053               856.8745
 Red. masses --      1.2477                 1.2526                 9.4073
 Frc consts  --      0.4989                 0.5015                 4.0696
 IR Inten    --      5.2316                 1.9215                13.5749

                     58                     59                     60
                      A                      A                      A
 Frequencies --    904.8539               906.1352               921.4108
 Red. masses --      1.4155                 1.4051                 2.4134
 Frc consts  --      0.6828                 0.6798                 1.2072
 IR Inten    --     15.8390                 4.1336                23.4423

                     61                     62                     63
                      A                      A                      A
 Frequencies --    958.6849               959.2412               964.1804
 Red. masses --      1.3737                 1.3648                 1.2784
 Frc consts  --      0.7439                 0.7399                 0.7002
 IR Inten    --      2.7809                 0.2271                 0.2980

                     64                     65                     66
                      A                      A                      A
 Frequencies --    964.3593              1007.6069              1011.4046
 Red. masses --      1.2788                 4.5611                 6.0634
 Frc consts  --      0.7007                 2.7284                 3.6544
 IR Inten    --      0.1861                96.2937                 3.8276

                     67                     68                     69
                      A                      A                      A
 Frequencies --   1013.4062              1033.1833              1035.4375
 Red. masses --      4.4492                 6.4720                 5.1280
 Frc consts  --      2.6922                 4.0705                 3.2393
 IR Inten    --     16.5940               195.0902                68.9131

                     70                     71                     72
                      A                      A                      A
 Frequencies --   1046.1416              1046.5789              1049.5659
 Red. masses --      1.4524                 3.2230                 1.4576
 Frc consts  --      0.9365                 2.0799                 0.9460
 IR Inten    --     16.3093               230.8601                 0.1503

                     73                     74                     75
                      A                      A                      A
 Frequencies --   1051.4705              1055.1686              1086.2535
 Red. masses --      2.8371                 1.8633                 1.6185
 Frc consts  --      1.8481                 1.2223                 1.1252
 IR Inten    --     15.9594                12.7119                 6.9403

                     76                     77                     78
                      A                      A                      A
 Frequencies --   1086.4311              1091.1848              1093.1473
 Red. masses --      1.5909                 3.1470                 3.4726
 Frc consts  --      1.1064                 2.2077                 2.4449
 IR Inten    --     17.8691               139.4106                41.0900

                     79                     80                     81
                      A                      A                      A
 Frequencies --   1107.2679              1155.9787              1168.1028
 Red. masses --      5.9929                 7.3182                 1.1074
 Frc consts  --      4.3290                 5.7617                 0.8902
 IR Inten    --     10.8278               107.9700                 0.0066

                     82                     83                     84
                      A                      A                      A
 Frequencies --   1168.2860              1187.6379              1187.8019
 Red. masses --      1.1224                 1.1726                 1.1732
 Frc consts  --      0.9026                 0.9745                 0.9752
 IR Inten    --      3.0332                10.3524                 5.9938

                     85                     86                     87
                      A                      A                      A
 Frequencies --   1195.1329              1197.0543              1231.2135
 Red. masses --     12.5267                13.6980                 3.8890
 Frc consts  --     10.5419                11.5647                 3.4734
 IR Inten    --    139.1183               159.6452               179.3793

                     88                     89                     90
                      A                      A                      A
 Frequencies --   1328.3684              1328.5946              1339.1219
 Red. masses --      1.4807                 1.4870                 4.8626
 Frc consts  --      1.5394                 1.5465                 5.1376
 IR Inten    --      2.4241                 1.5412                 1.7366

                     91                     92                     93
                      A                      A                      A
 Frequencies --   1340.2553              1364.3909              1377.6425
 Red. masses --      4.7024                 2.7946                 1.4241
 Frc consts  --      4.9767                 3.0651                 1.5924
 IR Inten    --     13.9089                 3.7853               158.1527

                     94                     95                     96
                      A                      A                      A
 Frequencies --   1401.1762              1405.3776              1436.8923
 Red. masses --      1.6586                 8.5552                 4.2687
 Frc consts  --      1.9185                 9.9556                 5.1927
 IR Inten    --      0.0281                74.1675                 4.3427

                     97                     98                     99
                      A                      A                      A
 Frequencies --   1457.9739              1463.0537              1463.1053
 Red. masses --      2.4018                 2.1020                 2.1378
 Frc consts  --      3.0080                 2.6509                 2.6963
 IR Inten    --    535.8658                22.9539                14.7282

                    100                    101                    102
                      A                      A                      A
 Frequencies --   1473.5920              1477.7161              1494.1390
 Red. masses --      1.4017                 1.2602                 1.1034
 Frc consts  --      1.7933                 1.6213                 1.4513
 IR Inten    --    144.0093                 8.9870                 7.0391

                    103                    104                    105
                      A                      A                      A
 Frequencies --   1497.0875              1499.6807              1499.6993
 Red. masses --      1.0716                 2.0060                 2.0474
 Frc consts  --      1.4151                 2.6582                 2.7130
 IR Inten    --     11.6315                 6.1808                 7.8622

                    106                    107                    108
                      A                      A                      A
 Frequencies --   1555.6314              1605.9112              1607.1042
 Red. masses --      7.2722                 5.2685                 5.3439
 Frc consts  --     10.3688                 8.0054                 8.1319
 IR Inten    --     20.5264                39.2004                 0.0560

                    109                    110                    111
                      A                      A                      A
 Frequencies --   1611.8101              1612.7043              3007.7726
 Red. masses --      5.8444                 5.8629                 1.0428
 Frc consts  --      8.9458                 8.9841                 5.5584
 IR Inten    --     47.0031                18.2321               208.9463

                    112                    113                    114
                      A                      A                      A
 Frequencies --   3009.0301              3056.3971              3056.7573
 Red. masses --      1.0431                 1.0896                 1.0893
 Frc consts  --      5.5643                 5.9969                 5.9968
 IR Inten    --      2.2892                30.3669                80.1095

                    115                    116                    117
                      A                      A                      A
 Frequencies --   3100.0797              3100.3235              3127.4366
 Red. masses --      1.1019                 1.1019                 1.0837
 Frc consts  --      6.2395                 6.2406                 6.2449
 IR Inten    --     17.3384                 1.0414                 3.2210

                    118                    119                    120
                      A                      A                      A
 Frequencies --   3127.4599              3145.6674              3145.7255
 Red. masses --      1.0837                 1.0894                 1.0893
 Frc consts  --      6.2450                 6.3510                 6.3512
 IR Inten    --      3.5825                53.5863                43.6388

                    121                    122                    123
                      A                      A                      A
 Frequencies --   3157.8799              3158.0693              3194.6934
 Red. masses --      1.0953                 1.0952                 1.0918
 Frc consts  --      6.4355                 6.4358                 6.5652
 IR Inten    --     88.5176                72.4439                 4.1580

                    124                    125                    126
                      A                      A                      A
 Frequencies --   3194.7670              3234.6560              3234.7072
 Red. masses --      1.0918                 1.0922                 1.0922
 Frc consts  --      6.5656                 6.7332                 6.7334
 IR Inten    --     11.9905                 3.8171                 3.7201

 - Thermochemistry -
 -------------------
 Temperature   298.150 Kelvin.  Pressure   1.00000 Atm.
 Atom     1 has atomic number  6 and mass  12.00000

 Molecular mass:   416.03883 amu.
 Principal axes and moments of inertia in atomic units:
                           1         2         3
     Eigenvalues --  6464.35557********************
           X            0.96665  -0.23383   0.10448
           Y            0.25346   0.81499  -0.52110
           Z            0.03670   0.53020   0.84708
 This molecule is an asymmetric top.
 Rotational symmetry number  1.
 Warning -- assumption of classical behavior for rotation
           may cause significant error
 Rotational temperatures (Kelvin)      0.01340     0.00448     0.00445
 Rotational constants (GHZ):           0.27918     0.09327     0.09263
 Zero-point vibrational energy     828797.7 (Joules/Mol)
                                  198.08740 (Kcal/Mol)
 Warning -- explicit consideration of  42 degrees of freedom as
           vibrations may cause significant error
 Vibrational temperatures:     24.39    24.91    48.00    52.22    86.46
          (Kelvin)             99.71   105.19   147.24   154.46   206.08
                              216.83   223.21   251.03   257.39   273.69
                              280.99   303.52   312.66   350.61   355.71
                              389.74   424.48   439.22   440.45   479.24
                              521.87   540.68   548.80   578.73   583.41
                              599.44   599.89   633.06   635.04   661.37
                              686.50   719.17   746.72   782.82   810.65
                              845.75   851.82   902.47   902.56   993.08
                              993.75  1004.37  1011.18  1029.31  1044.23
                             1052.90  1076.80  1078.32  1087.47  1185.28
                             1185.99  1232.85  1301.88  1303.73  1325.70
                             1379.33  1380.13  1387.24  1387.50  1449.72
                             1455.19  1458.07  1486.52  1489.76  1505.16
                             1505.79  1510.09  1512.83  1518.15  1562.88
                             1563.13  1569.97  1572.80  1593.11  1663.20
                             1680.64  1680.90  1708.75  1708.98  1719.53
                             1722.29  1771.44  1911.23  1911.55  1926.70
                             1928.33  1963.05  1982.12  2015.98  2022.02
                             2067.37  2097.70  2105.01  2105.08  2120.17
                             2126.10  2149.73  2153.98  2157.71  2157.73
                             2238.21  2310.55  2312.26  2319.04  2320.32
                             4327.51  4329.32  4397.47  4397.99  4460.32
                             4460.67  4499.68  4499.72  4525.91  4526.00
                             4543.48  4543.76  4596.45  4596.56  4653.95
                             4654.02

 Zero-point correction=                           0.315672 (Hartree/Particle)
 Thermal correction to Energy=                    0.341320
 Thermal correction to Enthalpy=                  0.342265
 Thermal correction to Gibbs Free Energy=         0.258447
 Sum of electronic and zero-point Energies=          -2019.441477
 Sum of electronic and thermal Energies=             -2019.415830
 Sum of electronic and thermal Enthalpies=           -2019.414885
 Sum of electronic and thermal Free Energies=        -2019.498702

                     E (Thermal)             CV                S
                      KCal/Mol        Cal/Mol-Kelvin    Cal/Mol-Kelvin
 Total                  214.182             98.365            176.408
 Electronic               0.000              0.000              0.000
 Translational            0.889              2.981             43.967
 Rotational               0.889              2.981             36.142
 Vibrational            212.404             92.404             96.298
 Vibration     1          0.593              1.986              6.963
 Vibration     2          0.593              1.986              6.921
 Vibration     3          0.594              1.983              5.619
 Vibration     4          0.594              1.982              5.452
 Vibration     5          0.597              1.973              4.454
 Vibration     6          0.598              1.969              4.173
 Vibration     7          0.599              1.967              4.068
 Vibration     8          0.604              1.947              3.409
 Vibration     9          0.606              1.943              3.316
 Vibration    10          0.616              1.910              2.760
 Vibration    11          0.618              1.902              2.663
 Vibration    12          0.620              1.897              2.608
 Vibration    13          0.627              1.874              2.387
 Vibration    14          0.629              1.868              2.340
 Vibration    15          0.634              1.853              2.226
 Vibration    16          0.636              1.846              2.177
 Vibration    17          0.643              1.824              2.035
 Vibration    18          0.646              1.815              1.981
 Vibration    19          0.659              1.773              1.776
 Vibration    20          0.661              1.767              1.750
 Vibration    21          0.675              1.727              1.591
 Vibration    22          0.689              1.683              1.445
 Vibration    23          0.696              1.664              1.388
 Vibration    24          0.697              1.662              1.383
 Vibration    25          0.715              1.609              1.245
 Vibration    26          0.737              1.549              1.110
 Vibration    27          0.747              1.522              1.056
 Vibration    28          0.751              1.510              1.033
 Vibration    29          0.768              1.465              0.954
 Vibration    30          0.770              1.458              0.943
 Vibration    31          0.780              1.434              0.903
 Vibration    32          0.780              1.433              0.902
 Vibration    33          0.800              1.383              0.827
 Vibration    34          0.801              1.380              0.822
 Vibration    35          0.818              1.339              0.767
 Vibration    36          0.834              1.301              0.718
 Vibration    37          0.855              1.250              0.659
 Vibration    38          0.874              1.208              0.612
 Vibration    39          0.899              1.153              0.557
 Vibration    40          0.919              1.110              0.517
 Vibration    41          0.945              1.058              0.471
 Vibration    42          0.950              1.049              0.464

                           ! Non-Optimized Parameters !
 Normal termination of Gaussian 16 at Wed Jan 10 14:16:58 2024.
