 Q-Chem 5.4, Q-Chem, Inc., Pleasanton, CA (2021)
 Q-Chem 5.4.0 for Intel X86 EM64T Linux

User input:
--------------------------------------------------------------
$molecule
-1 2
C                  1.8427370000      0.9031210000     -0.7440240000
C                  0.5685620000      1.3887350000     -0.2292010000
C                 -0.4366050000      0.5430040000      0.1769180000
C                 -0.3225650000     -0.9076570000      0.0951070000
C                  0.9517440000     -1.3953310000     -0.4283400000
C                  1.9608860000     -0.5515430000     -0.8191080000
O                  2.7817950000      1.6576130000     -1.0865330000
O                 -1.2399200000     -1.6924560000      0.4283840000
O                  3.1583130000     -1.0894780000     -1.2227240000
C                  3.5276640000     -0.8284740000     -2.5767430000
Br                 0.4139360000      3.2978020000     -0.1306190000
Br                -2.1090900000      1.1826810000      0.8639110000
H                  4.4981030000     -1.3068580000     -2.7234180000
H                  3.6101360000      0.2448570000     -2.7577140000
H                  2.7990470000     -1.2764700000     -3.2643660000
O                  1.1095380000     -2.7478480000     -0.6068040000
C                  1.1169140000     -3.5317290000      0.5863070000
H                  1.2330500000     -4.5691180000      0.2661790000
H                  0.1808390000     -3.4136800000      1.1353060000
H                  1.9686860000     -3.2540780000      1.2201400000
$end

$rem
BASIS  =  6-311++G(d,p)
GUI  =  2
JOB_TYPE  =  SP
METHOD  =  B3LYP
SCF_CONVERGENCE  = 8
SOLVENT_METHOD = sm12
$end

$smx
solvent dimethylformamide
charges CM5
$end

--------------------------------------------------------------

             Standard Nuclear Orientation (Angstroms)
    I     Atom           X                Y                Z
 ----------------------------------------------------------------
    1      C       1.8427370000     0.9031210000    -0.7440240000
    2      C       0.5685620000     1.3887350000    -0.2292010000
    3      C      -0.4366050000     0.5430040000     0.1769180000
    4      C      -0.3225650000    -0.9076570000     0.0951070000
    5      C       0.9517440000    -1.3953310000    -0.4283400000
    6      C       1.9608860000    -0.5515430000    -0.8191080000
    7      O       2.7817950000     1.6576130000    -1.0865330000
    8      O      -1.2399200000    -1.6924560000     0.4283840000
    9      O       3.1583130000    -1.0894780000    -1.2227240000
   10      C       3.5276640000    -0.8284740000    -2.5767430000
   11      Br      0.4139360000     3.2978020000    -0.1306190000
   12      Br     -2.1090900000     1.1826810000     0.8639110000
   13      H       4.4981030000    -1.3068580000    -2.7234180000
   14      H       3.6101360000     0.2448570000    -2.7577140000
   15      H       2.7990470000    -1.2764700000    -3.2643660000
   16      O       1.1095380000    -2.7478480000    -0.6068040000
   17      C       1.1169140000    -3.5317290000     0.5863070000
   18      H       1.2330500000    -4.5691180000     0.2661790000
   19      H       0.1808390000    -3.4136800000     1.1353060000
   20      H       1.9686860000    -3.2540780000     1.2201400000
 ----------------------------------------------------------------

   16   -5757.8312355706      5.69e-09  Convergence criterion met
 Total energy in the final basis set =    -5757.9043402377

                    Orbital Energies (a.u.)
 --------------------------------------------------------------

 Alpha MOs
 -- Occupied --
********-482.8226 -62.4752 -62.4751 -56.2957 -56.2957 -56.2920 -56.2920
-56.2915 -56.2915 -19.1388 -19.1388 -19.0829 -19.0829 -10.2359 -10.2359
-10.2262 -10.2256 -10.2248 -10.2242 -10.2118 -10.2118  -8.6838  -8.6838
 -6.5153  -6.5152  -6.5027  -6.5027  -6.5014  -6.5014  -2.6262  -2.6261
 -2.6228  -2.6227  -2.6218  -2.6218  -2.6119  -2.6118  -2.6118  -2.6118
 -1.0657  -1.0468  -1.0084  -1.0054  -0.8576  -0.7968  -0.7875  -0.7304
 -0.7133  -0.6690  -0.6676  -0.5828  -0.5773  -0.5253  -0.5022  -0.4933
 -0.4727  -0.4485  -0.4435  -0.4395  -0.4315  -0.4157  -0.4137  -0.3913
 -0.3853  -0.3806  -0.3567  -0.3522  -0.3320  -0.2996  -0.2955  -0.2921
 -0.2906  -0.2688  -0.2637  -0.2439  -0.2424  -0.2309  -0.1666

 Beta MOs
 -- Occupied --
********-482.8225 -62.4751 -62.4751 -56.2957 -56.2957 -56.2919 -56.2919
-56.2915 -56.2915 -19.1387 -19.1386 -19.0760 -19.0759 -10.2347 -10.2347
-10.2247 -10.2241 -10.2240 -10.2235 -10.2117 -10.2117  -8.6838  -8.6837
 -6.5153  -6.5153  -6.5026  -6.5026  -6.5014  -6.5014  -2.6262  -2.6261
 -2.6227  -2.6227  -2.6218  -2.6218  -2.6118  -2.6117  -2.6117  -2.6117
 -1.0647  -1.0455  -0.9969  -0.9940  -0.8528  -0.7947  -0.7858  -0.7288
 -0.7109  -0.6664  -0.6610  -0.5796  -0.5739  -0.5237  -0.5001  -0.4917
 -0.4693  -0.4472  -0.4421  -0.4359  -0.4303  -0.4069  -0.4017  -0.3852
 -0.3835  -0.3584  -0.3548  -0.3503  -0.3195  -0.2984  -0.2928  -0.2872
 -0.2866  -0.2671  -0.2430  -0.2383  -0.2369  -0.2253

          Ground-State Mulliken Net Atomic Charges

     Atom                 Charge (a.u.)    Spin (a.u.)
  --------------------------------------------------------
      1 C                    -1.013227       0.050380
      2 C                     0.553617       0.099911
      3 C                     0.550471       0.099937
      4 C                    -1.015101       0.050473
      5 C                    -0.128239       0.080016
      6 C                    -0.120928       0.079760
      7 O                    -0.278763       0.258009
      8 O                    -0.279310       0.258094
      9 O                    -0.103803       0.000188
     10 C                    -0.058224       0.002191
     11 Br                    0.033870       0.009105
     12 Br                    0.033444       0.009085
     13 H                     0.226614       0.000129
     14 H                     0.133818      -0.000242
     15 H                     0.133384       0.000355
     16 O                    -0.103649       0.000171
     17 C                    -0.058211       0.002208
     18 H                     0.226769       0.000127
     19 H                     0.133890      -0.000244
     20 H                     0.133577       0.000349
  --------------------------------------------------------
  Sum of atomic charges =    -1.000000

                    Cartesian Multipole Moments
 -----------------------------------------------------------------
    Charge (ESU x 10^10)
                -4.8032
    Dipole Moment (Debye)
         X      -2.2420      Y      -1.9493      Z       0.9543
       Tot       3.1205
    Quadrupole Moments (Debye-Ang)
        XX    -133.5918     XY     -11.1677     YY    -128.8064
        XZ       5.8305     YZ       0.7416     ZZ    -109.3732

 Total job time:  338.85s(wall), 2603.29s(cpu)
        *  Thank you very much for using Q-Chem.  Have a nice day.  *
