 Gaussian 16, Revision A.03,
 Gaussian 16:  ES64L-G16RevA.03 25-Dec-2016

 ----------------------------------------------------------------
 #P UB3LYP/6-311++G(d,p) SCRF=(PCM,Solvent=n,n-DiMethylFormamide)
 ----------------------------------------------------------------

 ------------------
 Radical PCM in DMF
 ------------------
 Symbolic Z-matrix:
 Charge = -1 Multiplicity = 2

                         Standard orientation:
 ---------------------------------------------------------------------
 Center     Atomic      Atomic             Coordinates (Angstroms)
 Number     Number       Type             X           Y           Z
 ---------------------------------------------------------------------
      1          6           0       -2.479854   -1.187532   -0.000034
      2          6           0       -3.688743   -0.518372    0.000004
      3          6           0       -3.674191    0.900163    0.000079
      4          6           0       -1.241046   -0.505450    0.000003
      5          6           0       -1.240539    0.918265    0.000009
      6          6           0       -2.481542    1.592029    0.000089
      7          6           0       -0.000006   -1.280935    0.000010
      8          6           0        1.241057   -0.505481   -0.000007
      9          6           0        1.240527    0.918233   -0.000031
     10          6           0        0.000003    1.695608   -0.000035
     11          6           0        2.479867   -1.187546   -0.000034
     12          6           0        3.688756   -0.518370   -0.000003
     13          6           0        3.674181    0.900165   -0.000011
     14          6           0        2.481522    1.592010   -0.000032
     15          8           0       -0.000039   -2.539486    0.000026
     16          8           0        0.000040    2.951973   -0.000054
     17          6           0       -5.003855   -1.261798   -0.000048
     18          1           0       -4.615944    1.444008    0.000160
     19          1           0       -2.458876    2.675977    0.000177
     20          1           0        2.458814    2.675956   -0.000036
     21          6           0        5.003864   -1.261798    0.000059
     22          1           0        4.615923    1.444032    0.000011
     23          1           0       -2.442594   -2.271886   -0.000106
     24          1           0        2.442640   -2.271901   -0.000080
     25          1           0       -4.845028   -2.342887    0.000013
     26          1           0       -5.607069   -1.011409   -0.881272
     27          1           0       -5.607240   -1.011313    0.881033
     28          1           0        4.845027   -2.342888   -0.000324
     29          1           0        5.606973   -1.011654    0.881427
     30          1           0        5.607354   -1.011086   -0.880883
 ---------------------------------------------------------------------

 SCF Done:  E(UB3LYP) =  -767.750004768     A.U. after   18 cycles

 The electronic state is 2-A.
 Alpha  occ. eigenvalues --  -19.07390 -19.07270 -10.22223 -10.21962 -10.17988
 Alpha  occ. eigenvalues --  -10.17988 -10.16962 -10.16961 -10.16849 -10.16849
 Alpha  occ. eigenvalues --  -10.16801 -10.16801 -10.16769 -10.16769 -10.16357
 Alpha  occ. eigenvalues --  -10.16356 -10.16323 -10.16323  -1.00075  -0.99763
 Alpha  occ. eigenvalues --   -0.86082  -0.85203  -0.79473  -0.76622  -0.75344
 Alpha  occ. eigenvalues --   -0.74260  -0.70528  -0.68085  -0.65704  -0.61751
 Alpha  occ. eigenvalues --   -0.60184  -0.58207  -0.55346  -0.51925  -0.51397
 Alpha  occ. eigenvalues --   -0.47293  -0.45623  -0.45445  -0.44303  -0.42565
 Alpha  occ. eigenvalues --   -0.42304  -0.42033  -0.41783  -0.40998  -0.40884
 Alpha  occ. eigenvalues --   -0.40858  -0.40289  -0.37796  -0.37645  -0.37643
 Alpha  occ. eigenvalues --   -0.36551  -0.35245  -0.34072  -0.33891  -0.32814
 Alpha  occ. eigenvalues --   -0.32812  -0.26109  -0.25509  -0.25056  -0.24439
 Alpha  occ. eigenvalues --   -0.23781  -0.23465  -0.13884
 Alpha virt. eigenvalues --   -0.04928  -0.01991  -0.00418  -0.00010   0.00187
 Alpha virt. eigenvalues --    0.01120   0.01837   0.02046   0.02878   0.03852
 Alpha virt. eigenvalues --    0.03902   0.04059   0.04162   0.04974   0.05445

  Beta  occ. eigenvalues --  -19.06870 -19.06703 -10.22053 -10.21766 -10.17944
  Beta  occ. eigenvalues --  -10.17943 -10.16885 -10.16884 -10.16838 -10.16838
  Beta  occ. eigenvalues --  -10.16751 -10.16751 -10.16714 -10.16713 -10.16342
  Beta  occ. eigenvalues --  -10.16341 -10.16327 -10.16327  -0.99150  -0.98761
  Beta  occ. eigenvalues --   -0.85834  -0.85091  -0.79130  -0.76514  -0.75085
  Beta  occ. eigenvalues --   -0.74118  -0.70272  -0.67985  -0.65069  -0.61593
  Beta  occ. eigenvalues --   -0.59952  -0.58144  -0.55083  -0.51675  -0.51261
  Beta  occ. eigenvalues --   -0.47071  -0.45528  -0.45269  -0.44182  -0.42239
  Beta  occ. eigenvalues --   -0.42033  -0.41968  -0.41686  -0.40781  -0.40433
  Beta  occ. eigenvalues --   -0.40063  -0.39921  -0.37607  -0.37554  -0.36451
  Beta  occ. eigenvalues --   -0.35443  -0.34968  -0.33971  -0.33825  -0.32671
  Beta  occ. eigenvalues --   -0.31608  -0.25118  -0.24353  -0.23941  -0.23903
  Beta  occ. eigenvalues --   -0.23297  -0.22963
  Beta virt. eigenvalues --   -0.08024  -0.04001  -0.01039  -0.00408   0.00183
  Beta virt. eigenvalues --    0.00223   0.01125   0.01854   0.02038   0.03037
  Beta virt. eigenvalues --    0.03857   0.03897   0.04125   0.04182   0.05432

 Mulliken charges and spin densities:
               1          2
     1  C   -0.228248   0.028367
     2  C    0.349129   0.029012
     3  C   -0.538632   0.042024
     4  C    0.190855   0.048556
     5  C    0.133478   0.029622
     6  C    0.191490   0.024445
     7  C   -0.471311   0.117734
     8  C    0.190746   0.048543
     9  C    0.133489   0.029625
    10  C   -1.003865   0.082522
    11  C   -0.228298   0.028371
    12  C    0.349132   0.029008
    13  C   -0.538656   0.042027
    14  C    0.191540   0.024442
    15  O   -0.463542   0.211365
    16  O   -0.459338   0.192744
    17  C   -0.356418  -0.002156
    18  H    0.176946  -0.003305
    19  H    0.165574  -0.000968
    20  H    0.165573  -0.000968
    21  C   -0.356414  -0.002156
    22  H    0.176946  -0.003305
    23  H    0.126085  -0.002354
    24  H    0.126082  -0.002354
    25  H    0.165567   0.000072
    26  H    0.161639   0.002254
    27  H    0.161623   0.002254
    28  H    0.165568   0.000072
    29  H    0.161655   0.002254
    30  H    0.161607   0.002253
 Sum of Mulliken charges =  -1.00000   1.00000

 Dipole moment (field-independent basis, Debye):
    X=              0.0000    Y=             -1.2474    Z=              0.0001  Tot=              1.2474
 Quadrupole moment (field-independent basis, Debye-Ang):
   XX=            -97.2163   YY=           -143.1517   ZZ=           -112.4374
   XY=             -0.0006   XZ=              0.0003   YZ=              0.0013

 Normal termination of Gaussian 16 at Sun Jan 14 01:13:26 2024.
