 Gaussian 16, Revision A.03,
 Gaussian 16:  ES64L-G16RevA.03 25-Dec-2016

 ----------------------------------------------------------------
 #P UB3LYP/6-311++G(d,p) SCRF=(PCM,Solvent=n,n-DiMethylFormamide)
 ----------------------------------------------------------------

 ------------------
 Quinone PCM in DMF
 ------------------
 Symbolic Z-matrix:
 Charge =  0 Multiplicity = 1

                         Standard orientation:
 ---------------------------------------------------------------------
 Center     Atomic      Atomic             Coordinates (Angstroms)
 Number     Number       Type             X           Y           Z
 ---------------------------------------------------------------------
      1          6           0        2.483891   -0.891824   -0.312044
      2          6           0        3.678638   -0.189847   -0.262987
      3          6           0        3.695797    1.204338   -0.181391
      4          6           0        1.274143   -0.196723   -0.274281
      5          6           0        1.272906    1.206111   -0.186361
      6          6           0        2.490989    1.891671   -0.141327
      7          6           0        0.000186   -0.972271   -0.329789
      8          6           0       -1.273847   -0.196887   -0.273890
      9          6           0       -1.272767    1.205949   -0.186021
     10          6           0        0.000027    1.980078   -0.143451
     11          6           0       -2.483524   -0.892130   -0.311381
     12          6           0       -3.678363   -0.190303   -0.262136
     13          6           0       -3.695667    1.203894   -0.180602
     14          6           0       -2.490922    1.891355   -0.140807
     15          8           0        0.000259   -2.188722   -0.416430
     16          8           0       -0.000045    3.198890   -0.076388
     17          1           0        2.473392    2.972404   -0.076517
     18          1           0       -2.473434    2.972097   -0.076115
     19          1           0        2.480842   -1.971869   -0.382902
     20          1           0       -2.480375   -1.972172   -0.382272
     21          1           0       -4.635459    1.736789   -0.142317
     22          8           0       -4.843484   -0.939006   -0.383017
     23          6           0       -5.890327   -0.764164    0.496870
     24          6           0       -7.013965   -1.695624    0.137471
     25          8           0       -5.869381    0.015462    1.406878
     26          8           0        4.843931   -0.938302   -0.383894
     27          1           0       -6.674917   -2.730971    0.219123
     28          1           0       -7.319347   -1.532419   -0.898261
     29          1           0       -7.852589   -1.525821    0.808970
     30          6           0        5.889951   -0.764235    0.497135
     31          6           0        7.013615   -1.695968    0.138525
     32          8           0        5.868249    0.014826    1.407612
     33          1           0        4.635571    1.737291   -0.143177
     34          1           0        6.675197   -2.731226    0.224214
     35          1           0        7.853205   -1.523781    0.808210
     36          1           0        7.317127   -1.536049   -0.898236
 ---------------------------------------------------------------------

 SCF Done:  E(UB3LYP) =  -1144.85910012     A.U. after   15 cycles

 The electronic state is 1-A.
 Alpha  occ. eigenvalues --  -19.19783 -19.19783 -19.14030 -19.14030 -19.13864
 Alpha  occ. eigenvalues --  -19.13463 -10.33124 -10.33124 -10.29078 -10.28742
 Alpha  occ. eigenvalues --  -10.27018 -10.27017 -10.21827 -10.21827 -10.21367
 Alpha  occ. eigenvalues --  -10.21366 -10.20777 -10.20776 -10.20651 -10.20650
 Alpha  occ. eigenvalues --  -10.20644 -10.20644 -10.18825 -10.18825  -1.13760
 Alpha  occ. eigenvalues --   -1.13760  -1.07357  -1.06921  -1.05881  -1.05879
 Alpha  occ. eigenvalues --   -0.90385  -0.89291  -0.82683  -0.80018  -0.79469
 Alpha  occ. eigenvalues --   -0.78762  -0.76702  -0.75438  -0.70483  -0.68350
 Alpha  occ. eigenvalues --   -0.67653  -0.63601  -0.63355  -0.60806  -0.59423
 Alpha  occ. eigenvalues --   -0.55610  -0.54559  -0.52622  -0.51781  -0.51511
 Alpha  occ. eigenvalues --   -0.50695  -0.50605  -0.50319  -0.48836  -0.48574
 Alpha  occ. eigenvalues --   -0.46963  -0.46415  -0.46309  -0.46187  -0.45882
 Alpha  occ. eigenvalues --   -0.45631  -0.44010  -0.43662  -0.42825  -0.42643
 Alpha  occ. eigenvalues --   -0.42497  -0.41163  -0.41131  -0.40216  -0.39752
 Alpha  occ. eigenvalues --   -0.39422  -0.38504  -0.38500  -0.37101  -0.35133
 Alpha  occ. eigenvalues --   -0.34808  -0.31106  -0.31053  -0.29444  -0.29150
 Alpha  occ. eigenvalues --   -0.28746  -0.28150  -0.27931  -0.27225
 Alpha virt. eigenvalues --   -0.12391  -0.08042  -0.04657  -0.03567  -0.02315
 Alpha virt. eigenvalues --   -0.01393  -0.00921  -0.00497   0.00389   0.01161
 Alpha virt. eigenvalues --    0.01466   0.02326   0.02748   0.02874   0.03219

  Beta  occ. eigenvalues --  -19.19783 -19.19783 -19.14030 -19.14030 -19.13864
  Beta  occ. eigenvalues --  -19.13463 -10.33124 -10.33124 -10.29078 -10.28742
  Beta  occ. eigenvalues --  -10.27018 -10.27017 -10.21827 -10.21827 -10.21367
  Beta  occ. eigenvalues --  -10.21366 -10.20777 -10.20776 -10.20651 -10.20650
  Beta  occ. eigenvalues --  -10.20644 -10.20644 -10.18825 -10.18825  -1.13760
  Beta  occ. eigenvalues --   -1.13760  -1.07357  -1.06921  -1.05881  -1.05879
  Beta  occ. eigenvalues --   -0.90385  -0.89291  -0.82683  -0.80018  -0.79469
  Beta  occ. eigenvalues --   -0.78762  -0.76702  -0.75438  -0.70483  -0.68350
  Beta  occ. eigenvalues --   -0.67653  -0.63601  -0.63355  -0.60806  -0.59423
  Beta  occ. eigenvalues --   -0.55610  -0.54559  -0.52622  -0.51781  -0.51511
  Beta  occ. eigenvalues --   -0.50695  -0.50605  -0.50319  -0.48836  -0.48574
  Beta  occ. eigenvalues --   -0.46963  -0.46415  -0.46309  -0.46187  -0.45882
  Beta  occ. eigenvalues --   -0.45631  -0.44010  -0.43662  -0.42825  -0.42643
  Beta  occ. eigenvalues --   -0.42497  -0.41163  -0.41131  -0.40216  -0.39752
  Beta  occ. eigenvalues --   -0.39422  -0.38504  -0.38500  -0.37101  -0.35133
  Beta  occ. eigenvalues --   -0.34808  -0.31106  -0.31053  -0.29444  -0.29150
  Beta  occ. eigenvalues --   -0.28746  -0.28150  -0.27931  -0.27225
  Beta virt. eigenvalues --   -0.12391  -0.08042  -0.04657  -0.03567  -0.02315
  Beta virt. eigenvalues --   -0.01393  -0.00921  -0.00497   0.00389   0.01161
  Beta virt. eigenvalues --    0.01466   0.02326   0.02748   0.02874   0.03219

 Mulliken charges and spin densities:
               1          2
     1  C    0.047990  -0.000000
     2  C   -0.610676   0.000000
     3  C    0.013215  -0.000000
     4  C    0.464547   0.000000
     5  C    0.359789   0.000000
     6  C    0.230690   0.000000
     7  C   -0.882312  -0.000000
     8  C    0.464508   0.000000
     9  C    0.359773  -0.000000
    10  C   -0.679572   0.000000
    11  C    0.047875   0.000000
    12  C   -0.609812  -0.000000
    13  C    0.012497  -0.000000
    14  C    0.229773  -0.000000
    15  O   -0.251574  -0.000000
    16  O   -0.264590  -0.000000
    17  H    0.198236   0.000000
    18  H    0.198211  -0.000000
    19  H    0.211547   0.000000
    20  H    0.211532   0.000000
    21  H    0.243940   0.000000
    22  O   -0.028631   0.000000
    23  C    0.169043  -0.000000
    24  C   -0.552263   0.000000
    25  O   -0.282041   0.000000
    26  O   -0.028545  -0.000000
    27  H    0.196389   0.000000
    28  H    0.196542   0.000000
    29  H    0.181280  -0.000000
    30  C    0.168887   0.000000
    31  C   -0.552522  -0.000000
    32  O   -0.281948  -0.000000
    33  H    0.243938  -0.000000
    34  H    0.196597   0.000000
    35  H    0.181270   0.000000
    36  H    0.196418   0.000000
 Sum of Mulliken charges =  -0.00000   0.00000

 Dipole moment (field-independent basis, Debye):
    X=             -0.0002    Y=             -2.9211    Z=             -3.3311  Tot=              4.4305
 Quadrupole moment (field-independent basis, Debye-Ang):
   XX=            -89.1394   YY=           -142.1647   ZZ=           -146.3647
   XY=              0.0029   XZ=              0.0098   YZ=             -4.8678

 Normal termination of Gaussian 16 at Sun Jan 14 01:09:26 2024.
