 Gaussian 16, Revision A.03,
 Gaussian 16:  ES64L-G16RevA.03 25-Dec-2016

 ----------------------------------------------------------------
 #P UB3LYP/6-311++G(d,p) SCRF=(PCM,Solvent=n,n-DiMethylFormamide)
 ----------------------------------------------------------------

 ------------------
 Radical PCM in DMF
 ------------------
 Symbolic Z-matrix:
 Charge = -1 Multiplicity = 2

                         Standard orientation:
 ---------------------------------------------------------------------
 Center     Atomic      Atomic             Coordinates (Angstroms)
 Number     Number       Type             X           Y           Z
 ---------------------------------------------------------------------
      1          8           0        4.129459   -1.478709    0.000055
      2          6           0        3.085391   -0.830934    0.000014
      3          7           0        3.040911    0.542137    0.000086
      4          6           0        1.893333    1.397755    0.000059
      5          8           0        2.089498    2.610411    0.000114
      6          6           0        0.629523    0.693272   -0.000029
      7          7           0       -0.543105    1.390719   -0.000093
      8          6           0       -1.677823    0.649804   -0.000101
      9          6           0       -2.941093    1.296037   -0.000132
     10          6           0       -4.123010    0.569069    0.000026
     11          6           0       -4.093854   -0.832740    0.000176
     12          6           0       -2.867722   -1.498501    0.000140
     13          6           0       -1.658401   -0.790384   -0.000041
     14          7           0       -0.458490   -1.478014   -0.000121
     15          6           0        0.622521   -0.726207   -0.000110
     16          7           0        1.840924   -1.412255   -0.000122
     17          1           0        3.932269    1.016844    0.000153
     18          1           0       -2.943678    2.380735   -0.000230
     19          1           0       -5.075744    1.090582    0.000034
     20          1           0       -5.019720   -1.399001    0.000332
     21          1           0       -2.818188   -2.582765    0.000243
     22          1           0        1.798534   -2.421153   -0.000142
 ---------------------------------------------------------------------

 SCF Done:  E(UB3LYP) =  -754.536057304     A.U. after   19 cycles

 The electronic state is 2-A.
 Alpha  occ. eigenvalues --  -19.10284 -19.09376 -14.36103 -14.35508 -14.29960
 Alpha  occ. eigenvalues --  -14.29535 -10.31846 -10.27624 -10.25588 -10.20315
 Alpha  occ. eigenvalues --  -10.20076 -10.19924 -10.16860 -10.16793 -10.16437
 Alpha  occ. eigenvalues --  -10.16425  -1.07340  -1.03986  -0.98798  -0.94478
 Alpha  occ. eigenvalues --   -0.91702  -0.88552  -0.83870  -0.76343  -0.74205
 Alpha  occ. eigenvalues --   -0.69549  -0.66846  -0.64516  -0.60251  -0.59280
 Alpha  occ. eigenvalues --   -0.55679  -0.55262  -0.51486  -0.49205  -0.47956
 Alpha  occ. eigenvalues --   -0.47017  -0.46407  -0.44199  -0.43701  -0.42728
 Alpha  occ. eigenvalues --   -0.42505  -0.41977  -0.40683  -0.36446  -0.36088
 Alpha  occ. eigenvalues --   -0.35742  -0.33519  -0.30469  -0.30200  -0.30149
 Alpha  occ. eigenvalues --   -0.28897  -0.27020  -0.25003  -0.24724  -0.23310
 Alpha  occ. eigenvalues --   -0.13717
 Alpha virt. eigenvalues --   -0.02785  -0.00344  -0.00190   0.00498   0.00732
 Alpha virt. eigenvalues --    0.01351   0.02385   0.02758   0.03441   0.04061
 Alpha virt. eigenvalues --    0.04435   0.04992   0.05059   0.06189   0.06470

  Beta  occ. eigenvalues --  -19.10247 -19.09149 -14.36126 -14.35489 -14.29608
  Beta  occ. eigenvalues --  -14.28744 -10.31828 -10.27484 -10.25656 -10.20222
  Beta  occ. eigenvalues --  -10.20181 -10.19778 -10.16893 -10.16622 -10.16439
  Beta  occ. eigenvalues --  -10.16234  -1.07256  -1.03624  -0.98556  -0.94064
  Beta  occ. eigenvalues --   -0.91357  -0.87717  -0.83573  -0.75929  -0.73958
  Beta  occ. eigenvalues --   -0.68854  -0.66785  -0.64350  -0.60028  -0.59031
  Beta  occ. eigenvalues --   -0.55496  -0.55093  -0.51248  -0.49107  -0.47546
  Beta  occ. eigenvalues --   -0.46841  -0.46248  -0.44095  -0.43494  -0.42543
  Beta  occ. eigenvalues --   -0.41833  -0.41477  -0.39741  -0.35928  -0.35877
  Beta  occ. eigenvalues --   -0.35631  -0.31195  -0.30155  -0.29826  -0.29390
  Beta  occ. eigenvalues --   -0.28292  -0.26709  -0.24415  -0.23563  -0.22254
  Beta virt. eigenvalues --   -0.07179  -0.02406  -0.00174   0.00502   0.00556
  Beta virt. eigenvalues --    0.01362   0.01960   0.02403   0.02766   0.04087
  Beta virt. eigenvalues --    0.04343   0.04653   0.05004   0.05071   0.06277

 Mulliken charges and spin densities:
               1          2
     1  O   -0.442609   0.012661
     2  C    0.401918   0.012060
     3  N   -0.465212  -0.001009
     4  C    0.275603   0.067814
     5  O   -0.466236   0.085428
     6  C   -0.106554   0.097741
     7  N   -0.200455   0.379991
     8  C   -0.023316  -0.073610
     9  C   -0.201864   0.111065
    10  C   -0.348799  -0.029935
    11  C   -0.263399   0.146938
    12  C   -0.223284  -0.042073
    13  C    0.066411   0.121975
    14  N   -0.217336   0.161836
    15  C    0.222079  -0.021658
    16  N   -0.466081  -0.007838
    17  H    0.403058  -0.000770
    18  H    0.178449  -0.010660
    19  H    0.176497   0.001802
    20  H    0.179106  -0.009996
    21  H    0.169496  -0.001216
    22  H    0.352526  -0.000545
 Sum of Mulliken charges =  -1.00000   1.00000

 Dipole moment (field-independent basis, Debye):
    X=             -3.8504    Y=             -4.0701    Z=              0.0001  Tot=              5.6028
 Quadrupole moment (field-independent basis, Debye-Ang):
   XX=           -122.4776   YY=           -119.1190   ZZ=            -96.7437
   XY=              1.4707   XZ=             -0.0015   YZ=             -0.0009

 Normal termination of Gaussian 16 at Sat Jan 13 19:18:46 2024.
