 Gaussian 16, Revision A.03,
 Gaussian 16:  ES64L-G16RevA.03 25-Dec-2016

 --------------------------------------
 #P UB3LYP/6-311++G(d,p) nosym opt freq
 --------------------------------------

 -------
 Radical
 -------
 Symbolic Z-matrix:
 Charge = -1 Multiplicity = 2

 SCF Done:  E(UB3LYP) =  -3112.48226437     A.U. after   20 cycles
 SCF Done:  E(UB3LYP) =  -3112.48226469     A.U. after   11 cycles
 SCF Done:  E(UB3LYP) =  -3112.48226494     A.U. after   11 cycles
 SCF Done:  E(UB3LYP) =  -3112.48226525     A.U. after   11 cycles
 SCF Done:  E(UB3LYP) =  -3112.45183138     A.U. after   19 cycles
 SCF Done:  E(UB3LYP) =  -3112.48251873     A.U. after   19 cycles
 SCF Done:  E(UB3LYP) =  -3112.35878518     A.U. after   23 cycles
 SCF Done:  E(UB3LYP) =  -3112.48193226     A.U. after   17 cycles
 SCF Done:  E(UB3LYP) =  -3112.48324106     A.U. after   14 cycles
 SCF Done:  E(UB3LYP) =  -3112.48612648     A.U. after   20 cycles
 SCF Done:  E(UB3LYP) =  -3112.48902898     A.U. after   17 cycles
 SCF Done:  E(UB3LYP) =  -3112.48944618     A.U. after   14 cycles
 SCF Done:  E(UB3LYP) =  -3112.48952015     A.U. after   14 cycles
 SCF Done:  E(UB3LYP) =  -3112.48956359     A.U. after   13 cycles
 SCF Done:  E(UB3LYP) =  -3112.48957645     A.U. after   13 cycles
 SCF Done:  E(UB3LYP) =  -3112.48958493     A.U. after   12 cycles
 SCF Done:  E(UB3LYP) =  -3112.48958827     A.U. after   12 cycles
 SCF Done:  E(UB3LYP) =  -3112.48959025     A.U. after   12 cycles
 SCF Done:  E(UB3LYP) =  -3112.48959093     A.U. after   11 cycles
 Optimization completed.
    -- Stationary point found.
 Normal termination of Gaussian 16 at Fri Feb  2 17:59:03 2024.

 ----------------------------------------------------------------------
 #P Geom=AllCheck Guess=TCheck SCRF=Check GenChk UB3LYP/6-311++G(d,p) F
 req
 ----------------------------------------------------------------------

 Structure from the checkpoint file:  "004-rad.chk"
 -------
 Radical
 -------
 Charge = -1 Multiplicity = 2

                          Input orientation:
 ---------------------------------------------------------------------
 Center     Atomic      Atomic             Coordinates (Angstroms)
 Number     Number       Type             X           Y           Z
 ---------------------------------------------------------------------
      1          6           0       -1.086534    1.614312    1.001285
      2          6           0       -2.365969    0.930004    0.901512
      3          6           0       -2.688569   -0.048992   -0.004372
      4          6           0       -1.674033   -0.470945   -0.978706
      5          6           0       -0.389370    0.195158   -0.901072
      6          6           0       -0.119768    1.163872    0.020470
      7         35           0        1.630565    1.996040    0.044051
      8          6           0       -4.075889   -0.714871   -0.030217
      9          6           0       -4.744966   -0.473477   -1.405324
     10          6           0       -5.016515   -0.157319    1.054877
     11          6           0       -3.928450   -2.237395    0.208877
     12          8           0       -0.872609    2.502321    1.862580
     13          8           0       -1.871555   -1.363063   -1.853373
     14          1           0       -3.084128    1.271388    1.637402
     15          1           0        0.353979   -0.121213   -1.622619
     16          1           0       -4.886388    0.598450   -1.578502
     17          1           0       -5.730416   -0.954995   -1.436735
     18          1           0       -4.126261   -0.877365   -2.206166
     19          1           0       -5.192573    0.915091    0.930106
     20          1           0       -4.620536   -0.320978    2.061377
     21          1           0       -5.985009   -0.664957    0.989942
     22          1           0       -3.290887   -2.682824   -0.554260
     23          1           0       -4.912454   -2.722032    0.180895
     24          1           0       -3.484706   -2.428658    1.191480
 ---------------------------------------------------------------------

 SCF Done:  E(UB3LYP) =  -3112.48959093     A.U. after    1 cycles

 Alpha  occ. eigenvalues -- -482.69622 -62.34901 -56.16914 -56.16569 -56.16543
 Alpha  occ. eigenvalues --  -18.94690 -18.94683 -10.09720 -10.09587 -10.08925
 Alpha  occ. eigenvalues --  -10.07697 -10.05413 -10.05144 -10.04365 -10.04290
 Alpha  occ. eigenvalues --  -10.04290 -10.03939  -8.55859  -6.38929  -6.37770
 Alpha  occ. eigenvalues --   -6.37696  -2.50036  -2.49715  -2.49660  -2.48735
 Alpha  occ. eigenvalues --   -2.48735  -0.87226  -0.86922  -0.72179  -0.70222
 Alpha  occ. eigenvalues --   -0.65503  -0.59977  -0.57948  -0.57217  -0.55359
 Alpha  occ. eigenvalues --   -0.48074  -0.45595  -0.40905  -0.36164  -0.35436
 Alpha  occ. eigenvalues --   -0.33001  -0.32071  -0.31715  -0.31058  -0.29523
 Alpha  occ. eigenvalues --   -0.27714  -0.27321  -0.26986  -0.25817  -0.25406
 Alpha  occ. eigenvalues --   -0.24165  -0.23925  -0.22256  -0.22081  -0.21424
 Alpha  occ. eigenvalues --   -0.19180  -0.15938  -0.14779  -0.12185  -0.11203
 Alpha  occ. eigenvalues --   -0.10744  -0.03401
 Alpha virt. eigenvalues --    0.07803   0.10004   0.10154   0.10195   0.10829
 Alpha virt. eigenvalues --    0.10978   0.11689   0.12985   0.12997   0.13423
 Alpha virt. eigenvalues --    0.14239   0.14806   0.15221   0.15557   0.15574

  Beta  occ. eigenvalues -- -482.69621 -62.34900 -56.16916 -56.16565 -56.16543
  Beta  occ. eigenvalues --  -18.93968 -18.93939 -10.09631 -10.09466 -10.08783
  Beta  occ. eigenvalues --  -10.07703 -10.05414 -10.05047 -10.04285 -10.04284
  Beta  occ. eigenvalues --  -10.04239 -10.03836  -8.55858  -6.38934  -6.37764
  Beta  occ. eigenvalues --   -6.37696  -2.50038  -2.49713  -2.49662  -2.48732
  Beta  occ. eigenvalues --   -2.48732  -0.85976  -0.85644  -0.71857  -0.69961
  Beta  occ. eigenvalues --   -0.65278  -0.59722  -0.57909  -0.57198  -0.54423
  Beta  occ. eigenvalues --   -0.47724  -0.45279  -0.40641  -0.35995  -0.35239
  Beta  occ. eigenvalues --   -0.32952  -0.31890  -0.31459  -0.30887  -0.28817
  Beta  occ. eigenvalues --   -0.27371  -0.26547  -0.26193  -0.25505  -0.25141
  Beta  occ. eigenvalues --   -0.23886  -0.22460  -0.21941  -0.21343  -0.21093
  Beta  occ. eigenvalues --   -0.18318  -0.15912  -0.11841  -0.11292  -0.10509
  Beta  occ. eigenvalues --   -0.10103
  Beta virt. eigenvalues --    0.03875   0.07805   0.10052   0.10179   0.10235
  Beta virt. eigenvalues --    0.10846   0.11702   0.11944   0.12990   0.13242
  Beta virt. eigenvalues --    0.13447   0.14405   0.14820   0.15605   0.15658

 Mulliken charges and spin densities:
               1          2
     1  C   -0.934568   0.069600
     2  C   -0.341293   0.050054
     3  C    1.130382   0.113218
     4  C   -0.764703   0.066756
     5  C   -0.417763   0.086412
     6  C    0.866485   0.111777
     7  Br  -0.238373   0.004429
     8  C    0.686736  -0.036361
     9  C   -0.684470   0.012336
    10  C   -0.524973  -0.000145
    11  C   -0.684383   0.012342
    12  O   -0.344827   0.269973
    13  O   -0.365907   0.260167
    14  H    0.179038  -0.008291
    15  H    0.205595  -0.010049
    16  H    0.115425   0.001009
    17  H    0.113867   0.000232
    18  H    0.194009  -0.001951
    19  H    0.122209  -0.000430
    20  H    0.122245  -0.000429
    21  H    0.141972   0.000060
    22  H    0.193971  -0.001952
    23  H    0.113883   0.000232
    24  H    0.115441   0.001012
 Sum of Mulliken charges =  -1.00000   1.00000

 Dipole moment (field-independent basis, Debye):
    X=              4.9339    Y=             -3.6912    Z=             -0.2283  Tot=              6.1661
 Quadrupole moment (field-independent basis, Debye-Ang):
   XX=           -114.4273   YY=           -118.3740   ZZ=           -111.5857
   XY=             -5.9491   XZ=             -4.0752   YZ=            -15.6554

  Exact polarizability: 199.874  44.032 161.155   1.424  36.185 146.420
 Approx polarizability: 257.537  52.097 263.983   7.977  86.289 251.037

                      1                      2                      3
                      A                      A                      A
 Frequencies --     51.2164                69.4734               149.7668
 Red. masses --      6.5570                 3.5418                 6.9030
 Frc consts  --      0.0101                 0.0101                 0.0912
 IR Inten    --      4.2874                 0.0460                 3.2378

                      4                      5                      6
                      A                      A                      A
 Frequencies --    159.4373               176.8662               209.6488
 Red. masses --      6.1226                 4.5745                 7.4932
 Frc consts  --      0.0917                 0.0843                 0.1940
 IR Inten    --      6.9719                 0.1603                 1.2731

                      7                      8                      9
                      A                      A                      A
 Frequencies --    227.4184               233.8744               269.9912
 Red. masses --      5.5002                 1.1106                 1.1135
 Frc consts  --      0.1676                 0.0358                 0.0478
 IR Inten    --      0.0077                 0.1467                 0.6324

                     10                     11                     12
                      A                      A                      A
 Frequencies --    289.3655               298.5697               325.8709
 Red. masses --      3.3779                 3.2635                 1.0429
 Frc consts  --      0.1666                 0.1714                 0.0652
 IR Inten    --      0.2417                 0.2900                 0.0320

                     13                     14                     15
                      A                      A                      A
 Frequencies --    333.5662               371.9104               403.9368
 Red. masses --      4.1410                 2.9841                 3.2385
 Frc consts  --      0.2715                 0.2432                 0.3113
 IR Inten    --      7.1678                 0.0086                 1.0010

                     16                     17                     18
                      A                      A                      A
 Frequencies --    413.0274               464.5241               478.4024
 Red. masses --      2.6796                 3.7373                12.0227
 Frc consts  --      0.2693                 0.4751                 1.6212
 IR Inten    --      0.9456                10.8085                 4.9274

                     19                     20                     21
                      A                      A                      A
 Frequencies --    499.8407               570.8082               625.4529
 Red. masses --      3.6011                 4.5797                 4.5075
 Frc consts  --      0.5301                 0.8792                 1.0389
 IR Inten    --      1.2470                10.2968                 0.4290

                     22                     23                     24
                      A                      A                      A
 Frequencies --    686.7772               692.9226               745.3517
 Red. masses --      6.5597                 5.9981                 3.0664
 Frc consts  --      1.8229                 1.6968                 1.0037
 IR Inten    --      7.0789                 1.7252                 0.3111

                     25                     26                     27
                      A                      A                      A
 Frequencies --    813.0984               830.2240               855.5947
 Red. masses --      3.3308                 5.0818                 1.6550
 Frc consts  --      1.2974                 2.0638                 0.7138
 IR Inten    --      5.7956                89.8328                 3.2134

                     28                     29                     30
                      A                      A                      A
 Frequencies --    892.2938               925.3762               933.0719
 Red. masses --      1.5371                 1.7682                 1.7613
 Frc consts  --      0.7211                 0.8921                 0.9035
 IR Inten    --     29.0753                 0.7023                 3.6582

                     31                     32                     33
                      A                      A                      A
 Frequencies --    941.3678               958.5973              1034.6785
 Red. masses --      4.0663                 1.2034                 1.7404
 Frc consts  --      2.1231                 0.6515                 1.0977
 IR Inten    --     25.2224                 0.2553                56.3917

                     34                     35                     36
                      A                      A                      A
 Frequencies --   1048.8927              1062.5539              1156.2248
 Red. masses --      1.3807                 1.9436                 8.6695
 Frc consts  --      0.8950                 1.2929                 6.8285
 IR Inten    --      0.0920                65.3106                 3.5226

                     37                     38                     39
                      A                      A                      A
 Frequencies --   1215.5035              1223.4952              1233.9216
 Red. masses --      2.6742                 2.5419                 1.4365
 Frc consts  --      2.3279                 2.2419                 1.2887
 IR Inten    --      4.5329                10.5838                 2.0996

                     40                     41                     42
                      A                      A                      A
 Frequencies --   1269.5558              1311.5058              1375.4685
 Red. masses --      2.3009                 2.0399                 1.2108
 Frc consts  --      2.1850                 2.0673                 1.3497
 IR Inten    --     17.4116                28.5605                11.8231

                     43                     44                     45
                      A                      A                      A
 Frequencies --   1379.9804              1393.1813              1411.2333
 Red. masses --      1.4174                 3.4852                 1.2549
 Frc consts  --      1.5903                 3.9856                 1.4725
 IR Inten    --     29.4701                 8.8526                25.1688

                     46                     47                     48
                      A                      A                      A
 Frequencies --   1471.8028              1484.2044              1494.6665
 Red. masses --      1.0466                 1.8399                 1.4260
 Frc consts  --      1.3358                 2.3880                 1.8769
 IR Inten    --      0.2050               120.1864                 1.4664

                     49                     50                     51
                      A                      A                      A
 Frequencies --   1495.4990              1498.4616              1510.9901
 Red. masses --      1.0466                 1.6175                 1.0515
 Frc consts  --      1.3791                 2.1398                 1.4144
 IR Inten    --      0.9121                 6.7505                 3.8686

                     52                     53                     54
                      A                      A                      A
 Frequencies --   1512.1389              1525.7112              1534.0477
 Red. masses --      3.8157                 1.9336                 1.7420
 Frc consts  --      5.1405                 2.6519                 2.4153
 IR Inten    --      1.4814               221.2369               155.5158

                     55                     56                     57
                      A                      A                      A
 Frequencies --   1623.9982              2994.5616              2999.2383
 Red. masses --      7.4589                 1.0423                 1.0412
 Frc consts  --     11.5903                 5.5071                 5.5182
 IR Inten    --     12.4025                47.4756                88.6287

                     58                     59                     60
                      A                      A                      A
 Frequencies --   3012.6357              3054.0369              3056.2425
 Red. masses --      1.0363                 1.0970                 1.0970
 Frc consts  --      5.5415                 6.0282                 6.0374
 IR Inten    --     97.1836                31.5201                24.1706

                     61                     62                     63
                      A                      A                      A
 Frequencies --   3068.4412              3081.5278              3120.8885
 Red. masses --      1.0994                 1.1016                 1.0974
 Frc consts  --      6.0988                 6.1631                 6.2975
 IR Inten    --     94.8821                42.8795                 0.0008

                     64                     65                     66
                      A                      A                      A
 Frequencies --   3123.4501              3180.3456              3186.1151
 Red. masses --      1.0967                 1.0875                 1.0907
 Frc consts  --      6.3038                 6.4806                 6.5236
 IR Inten    --     11.3180                13.5668                 2.1896

 - Thermochemistry -
 -------------------
 Temperature   298.150 Kelvin.  Pressure   1.00000 Atm.
 Atom     1 has atomic number  6 and mass  12.00000

 Molecular mass:   241.99424 amu.
 Principal axes and moments of inertia in atomic units:
                           1         2         3
     Eigenvalues --  1317.432416191.407797109.20439
           X            0.88097  -0.34555  -0.32324
           Y            0.46853   0.54165   0.69792
           Z            0.06608   0.76630  -0.63908
 This molecule is an asymmetric top.
 Rotational symmetry number  1.
 Warning -- assumption of classical behavior for rotation
           may cause significant error
 Rotational temperatures (Kelvin)      0.06574     0.01399     0.01218
 Rotational constants (GHZ):           1.36989     0.29149     0.25386
 Zero-point vibrational energy     484743.9 (Joules/Mol)
                                  115.85656 (Kcal/Mol)
 Warning -- explicit consideration of  20 degrees of freedom as
           vibrations may cause significant error
 Vibrational temperatures:     73.69    99.96   215.48   229.39   254.47
          (Kelvin)            301.64   327.20   336.49   388.46   416.33
                              429.58   468.86   479.93   535.10   581.17
                              594.25   668.35   688.31   719.16   821.27
                              899.89   988.12   996.96  1072.39  1169.87
                             1194.51  1231.01  1283.81  1331.41  1342.48
                             1354.42  1379.21  1488.67  1509.12  1528.78
                             1663.55  1748.84  1760.34  1775.34  1826.61
                             1886.96  1978.99  1985.48  2004.48  2030.45
                             2117.60  2135.44  2150.49  2151.69  2155.95
                             2173.98  2175.63  2195.16  2207.15  2336.57
                             4308.51  4315.24  4334.51  4394.08  4397.25
                             4414.80  4433.63  4490.26  4493.95  4575.81
                             4584.11

 Zero-point correction=                           0.184629 (Hartree/Particle)
 Thermal correction to Energy=                    0.197633
 Thermal correction to Enthalpy=                  0.198577
 Thermal correction to Gibbs Free Energy=         0.144328
 Sum of electronic and zero-point Energies=          -3112.304962
 Sum of electronic and thermal Energies=             -3112.291958
 Sum of electronic and thermal Enthalpies=           -3112.291014
 Sum of electronic and thermal Free Energies=        -3112.345263

                     E (Thermal)             CV                S
                      KCal/Mol        Cal/Mol-Kelvin    Cal/Mol-Kelvin
 Total                  124.016             49.491            114.177
 Electronic               0.000              0.000              1.377
 Translational            0.889              2.981             42.352
 Rotational               0.889              2.981             32.428
 Vibrational            122.239             43.529             38.020
 Vibration     1          0.595              1.977              4.770
 Vibration     2          0.598              1.969              4.168
 Vibration     3          0.618              1.903              2.675
 Vibration     4          0.621              1.892              2.556
 Vibration     5          0.628              1.871              2.361
 Vibration     6          0.642              1.826              2.047
 Vibration     7          0.651              1.799              1.899
 Vibration     8          0.654              1.789              1.849
 Vibration     9          0.674              1.728              1.596
 Vibration    10          0.686              1.694              1.478
 Vibration    11          0.692              1.676              1.425
 Vibration    12          0.710              1.624              1.280
 Vibration    13          0.715              1.608              1.243
 Vibration    14          0.744              1.530              1.072
 Vibration    15          0.769              1.462              0.948
 Vibration    16          0.777              1.442              0.916
 Vibration    17          0.822              1.329              0.753
 Vibration    18          0.835              1.298              0.714
 Vibration    19          0.855              1.250              0.659
 Vibration    20          0.927              1.094              0.503

 Optimization completed.
    -- Stationary point found.
 Normal termination of Gaussian 16 at Fri Feb  2 18:17:24 2024.
