 Q-Chem 5.4, Q-Chem, Inc., Pleasanton, CA (2021)
 Q-Chem 5.4.0 for Intel X86 EM64T Linux

User input:
--------------------------------------------------------------
$molecule
-1 2
C                  5.9117960000     -5.2136080000      1.1147220000
C                  6.8012240000     -5.0846130000      0.0684980000
C                  6.5894540000     -4.0983930000     -0.9180500000
C                  4.7895350000     -4.3741200000      1.2171450000
C                  4.5764180000     -3.3815320000      0.2242530000
C                  5.4934400000     -3.2653140000     -0.8341680000
C                  3.8606920000     -4.5425450000      2.3512110000
C                  2.7443290000     -3.6362940000      2.3633710000
C                  2.5375940000     -2.6734130000      1.4002220000
C                  3.4160840000     -2.4717160000      0.2798250000
O                  4.0449130000     -5.4223190000      3.2324820000
O                  3.2224710000     -1.5916660000     -0.5991630000
H                  6.0578720000     -5.9645650000      1.8812070000
H                  5.3143720000     -2.5025600000     -1.5817630000
Cl                 7.7096270000     -3.9076950000     -2.2696900000
Cl                 8.1946390000     -6.1664370000     -0.0102170000
H                  2.0490150000     -3.7468870000      3.1906950000
H                  1.6767740000     -2.0131220000      1.4564700000
$end
$rem
MAX_SCF_CYCLES=200
BASIS  =  6-311++G(d,p)
GUI  =  2
JOB_TYPE  =  SP
METHOD  =  B3LYP
SOLVENT_METHOD = COSMO
$end
$solvent
dielectric 37.219
opticaldielectric 1.43
$end

--------------------------------------------------------------

             Standard Nuclear Orientation (Angstroms)
    I     Atom           X                Y                Z
 ----------------------------------------------------------------
    1      C      -0.2761613627    -1.3936424581    -0.0002558009
    2      C      -1.4714449303    -0.7054537751    -0.0000008567
    3      C      -1.4714617587     0.7054868247     0.0000311509
    4      C       0.9515824623    -0.7100158531    -0.0005563055
    5      C       0.9515609287     0.7100138356    -0.0005490369
    6      C      -0.2761693436     1.3936579355    -0.0002199940
    7      C       2.2095134129    -1.4812690009    -0.0011013671
    8      C       3.4093529431    -0.6887489081     0.0003452356
    9      C       3.4093417304     0.6887615915     0.0003358949
   10      C       2.2094913497     1.4812719659    -0.0011364375
   11      O       2.2139949894    -2.7400599959     0.0007398031
   12      O       2.2139714078     2.7400692588     0.0006537825
   13      H      -0.2563217946    -2.4764075543    -0.0003385273
   14      H      -0.2562036858     2.4764130635    -0.0002686553
   15      Cl     -2.9845914557     1.6157189179     0.0001843980
   16      Cl     -2.9845580402    -1.6157467396     0.0001247962
   17      H       4.3453589743    -1.2401551855     0.0014398149
   18      H       4.3453441672     1.2401755962     0.0014074849
 ----------------------------------------------------------------

   10   -1454.5845010993      9.03e-06  Convergence criterion met
 Total energy in the final basis set =    -1454.5845010993
    4   -1454.6612912778      8.54e-06  Convergence criterion met
 Total energy in the final basis set =    -1454.6612912778

                    Orbital Energies (a.u.)
 --------------------------------------------------------------

 Alpha MOs
 -- Occupied --
********-101.5639 -19.0883 -19.0883 -10.2522 -10.2517 -10.2327 -10.2327
-10.1915 -10.1915 -10.1889 -10.1884 -10.1708 -10.1702  -9.4783  -9.4783
 -7.2429  -7.2429  -7.2334  -7.2334  -7.2327  -7.2327  -1.0133  -1.0110
 -0.9178  -0.8630  -0.8526  -0.8030  -0.7620  -0.7373  -0.6845  -0.6349
 -0.6173  -0.5754  -0.5161  -0.5094  -0.4934  -0.4643  -0.4462  -0.4391
 -0.4350  -0.4335  -0.4138  -0.4054  -0.4048  -0.3895  -0.3710  -0.3658
 -0.3548  -0.3372  -0.3316  -0.3176  -0.2859  -0.2675  -0.2571  -0.2548
 -0.2500  -0.1649

 Beta MOs
 -- Occupied --
********-101.5638 -19.0819 -19.0819 -10.2518 -10.2513 -10.2312 -10.2312
-10.1915 -10.1915 -10.1883 -10.1879 -10.1693 -10.1687  -9.4783  -9.4783
 -7.2429  -7.2429  -7.2333  -7.2333  -7.2327  -7.2327  -1.0023  -0.9997
 -0.9170  -0.8626  -0.8501  -0.7983  -0.7604  -0.7354  -0.6747  -0.6339
 -0.6139  -0.5723  -0.5149  -0.5069  -0.4901  -0.4629  -0.4457  -0.4362
 -0.4300  -0.4277  -0.4093  -0.4032  -0.3928  -0.3688  -0.3646  -0.3636
 -0.3520  -0.3370  -0.3247  -0.3174  -0.2616  -0.2579  -0.2512  -0.2496
 -0.2442

          Ground-State Mulliken Net Atomic Charges

     Atom                 Charge (a.u.)    Spin (a.u.)
  --------------------------------------------------------
      1 C                    -0.713042       0.033441
      2 C                     0.679495       0.017877
      3 C                     0.678879       0.017899
      4 C                    -0.349965       0.019612
      5 C                    -0.349331       0.019629
      6 C                    -0.712616       0.033420
      7 C                    -0.635081       0.091408
      8 C                     0.040651       0.120738
      9 C                     0.040922       0.120823
     10 C                    -0.635629       0.091341
     11 O                    -0.511562       0.226476
     12 O                    -0.511379       0.226519
     13 H                     0.231761      -0.002186
     14 H                     0.231763      -0.002185
     15 Cl                    0.548977       0.002388
     16 Cl                    0.548858       0.002386
     17 H                     0.208646      -0.009792
     18 H                     0.208653      -0.009795
  --------------------------------------------------------
  Sum of atomic charges =    -1.000000

                    Cartesian Multipole Moments
 -----------------------------------------------------------------
    Charge (ESU x 10^10)
                -4.8032
    Dipole Moment (Debye)
         X      -6.2054      Y       0.0019      Z      -0.0041
       Tot       6.2054
    Quadrupole Moments (Debye-Ang)
        XX    -121.6108     XY       0.0023     YY    -135.3174
        XZ      -0.0053     YZ       0.0010     ZZ     -98.1995

 Total job time:  54.33s(wall), 330.32s(cpu)
        *  Thank you very much for using Q-Chem.  Have a nice day.  *
