 Q-Chem 5.4, Q-Chem, Inc., Pleasanton, CA (2021)
 Q-Chem 5.4.0 for Intel X86 EM64T Linux

User input:
--------------------------------------------------------------
$molecule
0 1
C                  5.8582800000     -5.2294190000      1.1624730000
C                  6.7774480000     -5.1320140000      0.1218010000
C                  6.5988900000     -4.1640260000     -0.8788280000
C                  4.7625820000     -4.3706110000      1.2145560000
C                  4.5845240000     -3.4057400000      0.2171320000
C                  5.5036350000     -3.3068200000     -0.8251360000
C                  3.7870750000     -4.4878610000      2.3357600000
C                  2.6232710000     -3.5509800000      2.3596720000
C                  2.4502830000     -2.6154830000      1.3917030000
C                  3.4164530000     -2.4802640000      0.2601250000
O                  3.9375960000     -5.3272940000      3.2090250000
O                  3.2564900000     -1.6362350000     -0.6070890000
H                  5.9825790000     -5.9704590000      1.9409810000
H                  5.3526240000     -2.5557180000     -1.5891420000
Br                 8.2500700000     -6.3392050000      0.1158460000
Br                 7.8130780000     -3.9704660000     -2.3328340000
C                  1.6627100000     -3.7020780000      3.5055590000
C                  1.2860600000     -1.6650870000      1.3988220000
H                  1.9881160000     -4.4955770000      4.1752660000
H                  0.6573920000     -3.9390340000      3.1426800000
H                  1.5839000000     -2.7703020000      4.0743910000
H                  0.3371110000     -2.2103560000      1.3896960000
H                  1.3224530000     -1.0091720000      0.5313480000
H                  1.2907890000     -1.0500290000      2.3044450000
$end
$rem
MAX_SCF_CYCLES=200
BASIS  =  6-311++G(d,p)
GUI  =  2
JOB_TYPE  =  SP
METHOD  =  B3LYP
SOLVENT_METHOD = COSMO
$end
$solvent
dielectric 37.219
opticaldielectric 1.43
$end

--------------------------------------------------------------

             Standard Nuclear Orientation (Angstroms)
    I     Atom           X                Y                Z
 ----------------------------------------------------------------
    1      C      -0.0639762109    -1.3939984473    -0.0003603117
    2      C      -1.2715563617    -0.7018236908    -0.0001517417
    3      C      -1.2715067287     0.7017938188    -0.0002377476
    4      C       1.1437133068    -0.6995173931    -0.0005058580
    5      C       1.1438175694     0.6996020877    -0.0005421996
    6      C      -0.0639616280     1.3939666747    -0.0004371317
    7      C       2.4285331609    -1.4556243988    -0.0006387312
    8      C       3.7048258900    -0.6785567627    -0.0000902536
    9      C       3.7048072474     0.6786621070     0.0005497770
   10      C       2.4287273817     1.4557441746    -0.0004765682
   11      O       2.4346000230    -2.6762221906    -0.0012017753
   12      O       2.4347235573     2.6763984719    -0.0010836148
   13      H      -0.0480203548    -2.4758536309    -0.0003223126
   14      H      -0.0479005711     2.4758195973    -0.0004667221
   15      Br     -2.8823329598    -1.7173824866     0.0003073722
   16      Br     -2.8822020250     1.7174275753     0.0001575944
   17      C       4.9777155725    -1.4775038197     0.0006262962
   18      C       4.9780919758     1.4770752447     0.0014946477
   19      H       4.7601236477    -2.5435493178    -0.0147991348
   20      H       5.5774100945    -1.2543013530     0.8889059452
   21      H       5.5941953264    -1.2304814499    -0.8693852188
   22      H       5.5940666409     1.2282927712     0.8713154704
   23      H       4.7610144444     2.5432143066     0.0183743578
   24      H       5.5778595448     1.2549531525    -0.8869941615
 ----------------------------------------------------------------

    9   -5760.9913419304      3.18e-06  Convergence criterion met
 Total energy in the final basis set =    -5760.9913419304
    4   -5761.0033726233      7.47e-06  Convergence criterion met
 Total energy in the final basis set =    -5761.0033726233

                    Orbital Energies (a.u.)
 --------------------------------------------------------------

 Alpha MOs
 -- Occupied --
********-482.8503 -62.5031 -62.5031 -56.3237 -56.3237 -56.3198 -56.3198
-56.3195 -56.3195 -19.1399 -19.1398 -10.2886 -10.2886 -10.2670 -10.2665
-10.2187 -10.2182 -10.2163 -10.2155 -10.2153 -10.2153 -10.1718 -10.1717
 -8.7120  -8.7120  -6.5437  -6.5437  -6.5306  -6.5306  -6.5298  -6.5298
 -2.6545  -2.6545  -2.6511  -2.6511  -2.6504  -2.6503  -2.6399  -2.6399
 -2.6398  -2.6398  -1.0747  -1.0729  -0.9195  -0.8662  -0.8359  -0.8322
 -0.7754  -0.7653  -0.7501  -0.6997  -0.6799  -0.6452  -0.6132  -0.5929
 -0.5538  -0.5167  -0.5152  -0.4825  -0.4696  -0.4687  -0.4650  -0.4625
 -0.4342  -0.4300  -0.4218  -0.4154  -0.4086  -0.4043  -0.4001  -0.3956
 -0.3818  -0.3768  -0.3386  -0.3384  -0.3262  -0.2983  -0.2973  -0.2866
 -0.2794  -0.2793  -0.2660

          Ground-State Mulliken Net Atomic Charges

     Atom                 Charge (a.u.)
  ----------------------------------------
      1 C                    -0.149500
      2 C                     0.086516
      3 C                     0.086038
      4 C                     0.657437
      5 C                     0.657928
      6 C                    -0.149750
      7 C                    -1.421476
      8 C                     1.026035
      9 C                     1.025202
     10 C                    -1.421390
     11 O                    -0.278224
     12 O                    -0.278248
     13 H                     0.235784
     14 H                     0.235777
     15 Br                   -0.195163
     16 Br                   -0.195210
     17 C                    -0.536369
     18 C                    -0.536588
     19 H                     0.201401
     20 H                     0.188781
     21 H                     0.185562
     22 H                     0.185283
     23 H                     0.201309
     24 H                     0.188865
  ----------------------------------------
  Sum of atomic charges =     0.000000

                    Cartesian Multipole Moments
 -----------------------------------------------------------------
    Charge (ESU x 10^10)
                -0.0000
    Dipole Moment (Debye)
         X       2.8396      Y      -0.0030      Z       0.0040
       Tot       2.8396
    Quadrupole Moments (Debye-Ang)
        XX     -98.0096     XY      -0.0081     YY    -133.8942
        XZ       0.0131     YZ      -0.0103     ZZ    -117.4710

 Total job time:  109.67s(wall), 381.63s(cpu)
        *  Thank you very much for using Q-Chem.  Have a nice day.  *
