 Gaussian 16, Revision A.03,
 Gaussian 16:  ES64L-G16RevA.03 25-Dec-2016

 ----------------------------------------------------------------
 #P UB3LYP/6-311++G(d,p) SCRF=(PCM,Solvent=n,n-DiMethylFormamide)
 ----------------------------------------------------------------

 -------
 Reduced
 -------
 Symbolic Z-matrix:
 Charge = -2 Multiplicity = 1

                         Standard orientation:
 ---------------------------------------------------------------------
 Center     Atomic      Atomic             Coordinates (Angstroms)
 Number     Number       Type             X           Y           Z
 ---------------------------------------------------------------------
      1         35           0        1.695371    2.116050    0.153780
      2          6           0        0.690989    0.368260   -0.109580
      3          6           0        1.383911   -0.817189    0.120973
      4         35           0        3.285504   -0.975120   -0.411996
      5          6           0        0.776378   -2.046987    0.530828
      6          8           0        1.373967   -3.119551    0.723804
      7          6           0       -0.776276   -2.046960    0.530767
      8          8           0       -1.373950   -3.119505    0.723605
      9          6           0       -1.383957   -0.817113    0.121102
     10          6           0       -0.691023    0.368375   -0.109427
     11         35           0       -1.695368    2.115923    0.153040
     12         35           0       -3.285514   -0.975077   -0.411602
 ---------------------------------------------------------------------

 SCF Done:  E(UB3LYP) =  -10676.0068256     A.U. after   17 cycles

 The electronic state is 1-A.
 Alpha  occ. eigenvalues -- -482.81133-482.81130-482.80731-482.80730 -62.46404
 Alpha  occ. eigenvalues --  -62.46400 -62.46002 -62.46001 -56.28428 -56.28425
 Alpha  occ. eigenvalues --  -56.28066 -56.28063 -56.28043 -56.28039 -56.28015
 Alpha  occ. eigenvalues --  -56.28014 -56.27669 -56.27668 -56.27649 -56.27648
 Alpha  occ. eigenvalues --  -19.05878 -19.05876 -10.21650 -10.21631 -10.21549
 Alpha  occ. eigenvalues --  -10.21492 -10.19334 -10.19332  -8.67335  -8.67332
 Alpha  occ. eigenvalues --   -8.66946  -8.66945  -6.50414  -6.50411  -6.49998
 Alpha  occ. eigenvalues --   -6.49997  -6.49233  -6.49229  -6.49171  -6.49167
 Alpha  occ. eigenvalues --   -6.48859  -6.48858  -6.48800  -6.48799  -2.61506
 Alpha  occ. eigenvalues --   -2.61502  -2.61189  -2.61185  -2.61143  -2.61139
 Alpha  occ. eigenvalues --   -2.61101  -2.61100  -2.60789  -2.60788  -2.60745
 Alpha  occ. eigenvalues --   -2.60743  -2.60204  -2.60204  -2.60201  -2.60201
 Alpha  occ. eigenvalues --   -2.59839  -2.59839  -2.59838  -2.59838  -1.00191
 Alpha  occ. eigenvalues --   -0.97366  -0.85300  -0.79385  -0.77109  -0.75306
 Alpha  occ. eigenvalues --   -0.74473  -0.67491  -0.66535  -0.55034  -0.54822
 Alpha  occ. eigenvalues --   -0.48262  -0.43851  -0.40952  -0.40777  -0.39088
 Alpha  occ. eigenvalues --   -0.38003  -0.35837  -0.35546  -0.34011  -0.33832
 Alpha  occ. eigenvalues --   -0.30534  -0.29787  -0.28768  -0.28670  -0.27901
 Alpha  occ. eigenvalues --   -0.27004  -0.26066  -0.25637  -0.23916  -0.21213
 Alpha  occ. eigenvalues --   -0.19927  -0.15849
 Alpha virt. eigenvalues --   -0.06646  -0.02109   0.00013   0.00474   0.01312
 Alpha virt. eigenvalues --    0.02478   0.02604   0.02875   0.03267   0.04028
 Alpha virt. eigenvalues --    0.05290   0.05440   0.05659   0.05893   0.06133

  Beta  occ. eigenvalues -- -482.81133-482.81130-482.80731-482.80730 -62.46404
  Beta  occ. eigenvalues --  -62.46400 -62.46002 -62.46001 -56.28428 -56.28425
  Beta  occ. eigenvalues --  -56.28066 -56.28063 -56.28043 -56.28039 -56.28015
  Beta  occ. eigenvalues --  -56.28014 -56.27669 -56.27668 -56.27649 -56.27648
  Beta  occ. eigenvalues --  -19.05878 -19.05876 -10.21650 -10.21631 -10.21549
  Beta  occ. eigenvalues --  -10.21492 -10.19334 -10.19332  -8.67335  -8.67332
  Beta  occ. eigenvalues --   -8.66946  -8.66945  -6.50414  -6.50411  -6.49998
  Beta  occ. eigenvalues --   -6.49997  -6.49233  -6.49229  -6.49171  -6.49167
  Beta  occ. eigenvalues --   -6.48859  -6.48858  -6.48800  -6.48799  -2.61506
  Beta  occ. eigenvalues --   -2.61502  -2.61189  -2.61185  -2.61143  -2.61139
  Beta  occ. eigenvalues --   -2.61101  -2.61100  -2.60789  -2.60788  -2.60745
  Beta  occ. eigenvalues --   -2.60743  -2.60204  -2.60204  -2.60201  -2.60201
  Beta  occ. eigenvalues --   -2.59839  -2.59839  -2.59838  -2.59838  -1.00191
  Beta  occ. eigenvalues --   -0.97366  -0.85300  -0.79385  -0.77109  -0.75306
  Beta  occ. eigenvalues --   -0.74473  -0.67491  -0.66535  -0.55034  -0.54822
  Beta  occ. eigenvalues --   -0.48262  -0.43851  -0.40952  -0.40777  -0.39088
  Beta  occ. eigenvalues --   -0.38003  -0.35837  -0.35546  -0.34011  -0.33832
  Beta  occ. eigenvalues --   -0.30534  -0.29787  -0.28768  -0.28670  -0.27901
  Beta  occ. eigenvalues --   -0.27004  -0.26066  -0.25637  -0.23916  -0.21213
  Beta  occ. eigenvalues --   -0.19927  -0.15849
  Beta virt. eigenvalues --   -0.06646  -0.02109   0.00013   0.00474   0.01312
  Beta virt. eigenvalues --    0.02478   0.02604   0.02875   0.03267   0.04028
  Beta virt. eigenvalues --    0.05290   0.05440   0.05659   0.05893   0.06133

 Mulliken charges and spin densities:
               1          2
     1  Br  -0.231212  -0.000000
     2  C   -0.130436   0.000000
     3  C    0.512939  -0.000000
     4  Br  -0.225982   0.000000
     5  C   -0.416885  -0.000000
     6  O   -0.508180   0.000000
     7  C   -0.416604   0.000000
     8  O   -0.508109  -0.000000
     9  C    0.512613  -0.000000
    10  C   -0.131245   0.000000
    11  Br  -0.230990  -0.000000
    12  Br  -0.225908   0.000000
 Sum of Mulliken charges =  -2.00000   0.00000

 Dipole moment (field-independent basis, Debye):
    X=             -0.0038    Y=             13.1811    Z=             -2.7367  Tot=             13.4622
 Quadrupole moment (field-independent basis, Debye-Ang):
   XX=           -167.6031   YY=           -189.9481   ZZ=           -130.4616
   XY=             -0.0028   XZ=             -0.0001   YZ=             11.2892

 Normal termination of Gaussian 16 at Sat Jan 13 19:17:05 2024.
