 Q-Chem 5.4, Q-Chem, Inc., Pleasanton, CA (2021)
 Q-Chem 5.4.0 for Intel X86 EM64T Linux

User input:
--------------------------------------------------------------
$molecule
-1 2
C                  4.6230620000      1.2924760000     -0.5372470000
C                  3.3133230000      0.6065660000     -0.2306780000
C                  3.3100140000     -0.6629140000      0.3823300000
C                  2.1239060000     -1.3245650000      0.6794950000
O                  2.1936680000     -2.5574380000      1.2764110000
C                  0.8589880000     -0.7468150000      0.3764260000
C                 -0.4126590000     -1.4376760000      0.6856810000
O                 -0.4386260000     -2.5548990000      1.2238230000
C                 -1.6525920000     -0.7193270000      0.3160100000
C                 -2.9437180000     -1.2681620000      0.5569930000
O                 -3.0704280000     -2.4967490000      1.1478500000
C                 -4.1037920000     -0.5847080000      0.2054470000
C                 -4.0196600000      0.6750850000     -0.4011650000
O                 -5.2148870000      1.2940560000     -0.7222900000
C                 -2.7965780000      1.2469220000     -0.6544460000
C                 -1.6092480000      0.5664550000     -0.3038700000
C                 -0.3499130000      1.2376540000     -0.6044070000
O                 -0.3317740000      2.3765090000     -1.1538700000
C                  0.8768670000      0.5402890000     -0.2447050000
C                  2.1012930000      1.1870240000     -0.5338890000
H                  5.2120940000      1.4584230000      0.3729890000
H                  4.4542780000      2.2630400000     -1.0091820000
H                  5.2420660000      0.6916570000     -1.2146510000
H                  4.2546670000     -1.1448330000      0.6328070000
H                  3.1285190000     -2.7597160000      1.3930710000
H                 -4.0133340000     -2.6814210000      1.2192980000
H                 -5.0803630000     -1.0197730000      0.3973310000
H                 -5.0033190000      2.1412920000     -1.1277940000
H                 -2.6940920000      2.2206820000     -1.1225620000
H                  2.0422380000      2.1608660000     -1.0052070000
$end
$rem
MAX_SCF_CYCLES=200
BASIS  =  6-311++G(d,p)
GUI  =  2
JOB_TYPE  =  SP
METHOD  =  B3LYP
SOLVENT_METHOD = COSMO
$end
$solvent
dielectric 37.219
opticaldielectric 1.43
$end

--------------------------------------------------------------

             Standard Nuclear Orientation (Angstroms)
    I     Atom           X                Y                Z
 ----------------------------------------------------------------
    1      C       4.9745219436    -1.6404517207    -0.0000655428
    2      C       3.6724170288    -0.8759936652    -0.0000713081
    3      C       3.6836613204     0.5337023164    -0.0002535490
    4      C       2.5049305969     1.2709506818    -0.0002483705
    5      O       2.5888431472     2.6399319921    -0.0006194785
    6      C       1.2331629974     0.6319902280     0.0001249498
    7      C      -0.0307948104     1.4016811991     0.0004963856
    8      O      -0.0439759486     2.6419570356     0.0011566274
    9      C      -1.2791686325     0.6068991822     0.0001437180
   10      C      -2.5642236322     1.2192165914    -0.0000786449
   11      O      -2.6768723032     2.5837325137    -0.0001765277
   12      C      -3.7323289718     0.4629127255    -0.0002335123
   13      C      -3.6626212041    -0.9361139154    -0.0002339837
   14      O      -4.8651475736    -1.6207629237    -0.0003438980
   15      C      -2.4458840107    -1.5737885807    -0.0000867155
   16      C      -1.2505529483    -0.8208775543     0.0001035997
   17      C       0.0013053713    -1.5689457078     0.0002212954
   18      O       0.0063948214    -2.8335418568     0.0002191053
   19      C       1.2362914483    -0.7972579278     0.0002063679
   20      C       2.4535189852    -1.5180003889     0.0001462345
   21      H       5.5810472897    -1.4004100339    -0.8818442410
   22      H       4.7945806126    -2.7178681877     0.0001220047
   23      H       5.5812309617    -1.4001417535     0.8815130919
   24      H       4.6340036802     1.0668095591    -0.0003401078
   25      H       3.5262037361     2.8631487527    -0.0019390561
   26      H      -3.6178257581     2.7908240025    -0.0001634858
   27      H      -4.7040797963     0.9481881659    -0.0003872851
   28      H      -4.6632621735    -2.5621690375     0.0000639649
   29      H      -2.3545395016    -2.6552231301    -0.0001441703
   30      H       2.3832909116    -2.5992332061     0.0002071130
 ----------------------------------------------------------------

   11    -954.0653637022      4.52e-06  Convergence criterion met
 Total energy in the final basis set =     -954.0653637022
    5    -954.1719227396      5.83e-06  Convergence criterion met
 Total energy in the final basis set =     -954.1719227396

                    Orbital Energies (a.u.)
 --------------------------------------------------------------

 Alpha MOs
 -- Occupied --
-19.1568 -19.1531 -19.1502 -19.0729 -19.0720 -10.2454 -10.2390 -10.2385
-10.2355 -10.2177 -10.1817 -10.1778 -10.1744 -10.1743 -10.1730 -10.1686
-10.1644 -10.1608 -10.1606 -10.1564  -1.0671  -1.0632  -1.0629  -1.0083
 -0.9975  -0.8597  -0.8495  -0.7917  -0.7570  -0.7456  -0.7406  -0.6968
 -0.6668  -0.6438  -0.6209  -0.6036  -0.5787  -0.5639  -0.5427  -0.5042
 -0.5025  -0.4987  -0.4796  -0.4649  -0.4501  -0.4390  -0.4368  -0.4234
 -0.4182  -0.4139  -0.4119  -0.4079  -0.4003  -0.3970  -0.3924  -0.3805
 -0.3754  -0.3709  -0.3705  -0.3600  -0.3487  -0.3456  -0.3252  -0.3111
 -0.2583  -0.2441  -0.2426  -0.2341  -0.2294  -0.2283  -0.1385

 Beta MOs
 -- Occupied --
-19.1568 -19.1532 -19.1502 -19.0685 -19.0661 -10.2458 -10.2394 -10.2385
-10.2346 -10.2151 -10.1816 -10.1772 -10.1737 -10.1734 -10.1725 -10.1678
-10.1633 -10.1609 -10.1598 -10.1558  -1.0671  -1.0631  -1.0628  -1.0009
 -0.9869  -0.8572  -0.8482  -0.7885  -0.7553  -0.7434  -0.7383  -0.6951
 -0.6607  -0.6420  -0.6188  -0.6027  -0.5776  -0.5619  -0.5415  -0.5028
 -0.5013  -0.4979  -0.4765  -0.4643  -0.4489  -0.4350  -0.4337  -0.4220
 -0.4168  -0.4126  -0.4072  -0.4059  -0.3993  -0.3959  -0.3798  -0.3785
 -0.3749  -0.3702  -0.3584  -0.3539  -0.3474  -0.3445  -0.3216  -0.2994
 -0.2425  -0.2388  -0.2364  -0.2253  -0.2243  -0.2237

          Ground-State Mulliken Net Atomic Charges

     Atom                 Charge (a.u.)    Spin (a.u.)
  --------------------------------------------------------
      1 C                    -0.335666       0.002446
      2 C                     0.304838       0.005914
      3 C                    -0.225320       0.097958
      4 C                     0.031985      -0.010121
      5 O                    -0.248195      -0.001031
      6 C                    -0.009119       0.040240
      7 C                    -0.271912       0.034083
      8 O                    -0.469488       0.162212
      9 C                    -0.250868       0.024304
     10 C                     0.054188      -0.006389
     11 O                    -0.242332      -0.001568
     12 C                    -0.045077       0.071124
     13 C                    -0.821185       0.001532
     14 O                    -0.317589       0.002720
     15 C                     0.113239       0.098698
     16 C                     0.760090       0.029871
     17 C                    -0.627409       0.157982
     18 O                    -0.503007       0.219768
     19 C                     0.300766       0.017989
     20 C                    -0.358375       0.075189
     21 H                     0.173661       0.001432
     22 H                     0.175427       0.000074
     23 H                     0.173674       0.001431
     24 H                     0.173552      -0.007494
     25 H                     0.311925      -0.000325
     26 H                     0.317791      -0.000368
     27 H                     0.208406      -0.005899
     28 H                     0.326096      -0.000219
     29 H                     0.166952      -0.006287
     30 H                     0.132953      -0.005267
  --------------------------------------------------------
  Sum of atomic charges =    -1.000000

                    Cartesian Multipole Moments
 -----------------------------------------------------------------
    Charge (ESU x 10^10)
                -4.8032
    Dipole Moment (Debye)
         X       1.7857      Y      -0.4668      Z      -0.0032
       Tot       1.8457
    Quadrupole Moments (Debye-Ang)
        XX     -96.4123     XY       3.4031     YY    -149.3965
        XZ      -0.0176     YZ      -0.0178     ZZ    -122.1914

 Total job time:  119.92s(wall), 902.92s(cpu)
        *  Thank you very much for using Q-Chem.  Have a nice day.  *
