 Gaussian 16, Revision A.03,
 Gaussian 16:  ES64L-G16RevA.03 25-Dec-2016

 ----------------------------------------------------------------
 #P UB3LYP/6-311++G(d,p) SCRF=(PCM,Solvent=n,n-DiMethylFormamide)
 ----------------------------------------------------------------

 -------
 Reduced
 -------
 Symbolic Z-matrix:
 Charge = -2 Multiplicity = 1

                         Standard orientation:
 ---------------------------------------------------------------------
 Center     Atomic      Atomic             Coordinates (Angstroms)
 Number     Number       Type             X           Y           Z
 ---------------------------------------------------------------------
      1          6           0        1.304993   -2.110954   -0.003218
      2          6           0        2.656161   -1.844089   -0.001283
      3          6           0        3.092052   -0.494706    0.001927
      4          6           0        0.336294   -1.077469   -0.004882
      5          6           0        0.773911    0.312318   -0.000563
      6          6           0        2.189379    0.561513    0.003370
      7          6           0       -1.064241   -1.466451   -0.003669
      8          6           0       -1.985312   -0.382326   -0.001274
      9          6           0       -1.573919    0.974368    0.009848
     10          6           0       -0.208088    1.391284   -0.008001
     11          8           0       -1.428310   -2.716878    0.001279
     12          8           0        0.126088    2.650981   -0.035561
     13          6           0       -3.454270   -0.738850   -0.002989
     14          6           0       -2.608124    2.077024    0.020033
     15          6           0        2.767808    1.964609    0.016795
     16          1           0        0.917142   -3.125046   -0.003806
     17          1           0        3.385588   -2.653831   -0.001744
     18          1           0        4.159333   -0.273094    0.007005
     19          1           0       -3.539978   -1.817098   -0.161811
     20          1           0       -4.016998   -0.207164   -0.784482
     21          1           0       -3.953371   -0.498249    0.953645
     22          1           0       -3.396932    1.906226    0.766556
     23          1           0       -3.122800    2.189762   -0.952885
     24          1           0       -2.098645    3.020804    0.230625
     25          1           0        2.426115    2.531725    0.885460
     26          1           0        2.430854    2.547337   -0.842747
     27          1           0        3.867600    1.908189    0.021862
 ---------------------------------------------------------------------

 SCF Done:  E(UB3LYP) =  -653.471598740     A.U. after   19 cycles

 The electronic state is 1-A.
 Alpha  occ. eigenvalues --  -19.00588 -19.00096 -10.15998 -10.15671 -10.15357
 Alpha  occ. eigenvalues --  -10.14157 -10.13714 -10.13638 -10.13433 -10.13346
 Alpha  occ. eigenvalues --  -10.13095 -10.12951 -10.12781 -10.11853 -10.11677
 Alpha  occ. eigenvalues --   -0.91923  -0.91478  -0.81798  -0.77108  -0.73876
 Alpha  occ. eigenvalues --   -0.71702  -0.69069  -0.65737  -0.63311  -0.61291
 Alpha  occ. eigenvalues --   -0.55276  -0.54738  -0.49879  -0.46878  -0.45115
 Alpha  occ. eigenvalues --   -0.42936  -0.41529  -0.40077  -0.38913  -0.38782
 Alpha  occ. eigenvalues --   -0.37295  -0.36730  -0.36233  -0.35499  -0.34484
 Alpha  occ. eigenvalues --   -0.34360  -0.34312  -0.34042  -0.31698  -0.30142
 Alpha  occ. eigenvalues --   -0.29758  -0.29646  -0.29073  -0.21633  -0.21144
 Alpha  occ. eigenvalues --   -0.19348  -0.18839  -0.17743  -0.10158
 Alpha virt. eigenvalues --   -0.00128   0.00479   0.00768   0.01338   0.01736
 Alpha virt. eigenvalues --    0.02681   0.02826   0.03240   0.04463   0.04607
 Alpha virt. eigenvalues --    0.04979   0.05176   0.05966   0.06661   0.07640

  Beta  occ. eigenvalues --  -19.00588 -19.00096 -10.15998 -10.15671 -10.15357
  Beta  occ. eigenvalues --  -10.14157 -10.13714 -10.13638 -10.13433 -10.13346
  Beta  occ. eigenvalues --  -10.13095 -10.12951 -10.12781 -10.11853 -10.11677
  Beta  occ. eigenvalues --   -0.91923  -0.91478  -0.81798  -0.77108  -0.73876
  Beta  occ. eigenvalues --   -0.71702  -0.69069  -0.65737  -0.63311  -0.61291
  Beta  occ. eigenvalues --   -0.55276  -0.54738  -0.49879  -0.46878  -0.45115
  Beta  occ. eigenvalues --   -0.42936  -0.41529  -0.40077  -0.38913  -0.38782
  Beta  occ. eigenvalues --   -0.37295  -0.36730  -0.36233  -0.35499  -0.34484
  Beta  occ. eigenvalues --   -0.34360  -0.34312  -0.34042  -0.31698  -0.30142
  Beta  occ. eigenvalues --   -0.29758  -0.29646  -0.29073  -0.21633  -0.21144
  Beta  occ. eigenvalues --   -0.19348  -0.18839  -0.17743  -0.10158
  Beta virt. eigenvalues --   -0.00128   0.00479   0.00768   0.01338   0.01736
  Beta virt. eigenvalues --    0.02681   0.02826   0.03240   0.04463   0.04607
  Beta virt. eigenvalues --    0.04979   0.05176   0.05966   0.06661   0.07640

 Mulliken charges and spin densities:
               1          2
     1  C   -0.203989   0.000000
     2  C   -0.418279   0.000000
     3  C   -0.558094  -0.000000
     4  C    0.496418   0.000000
     5  C    0.835938  -0.000000
     6  C    0.588192  -0.000000
     7  C   -1.155143  -0.000000
     8  C    0.507386   0.000000
     9  C    0.815282  -0.000000
    10  C   -1.762416   0.000000
    11  O   -0.700459   0.000000
    12  O   -0.645901   0.000000
    13  C   -0.539085  -0.000000
    14  C   -0.462377   0.000000
    15  C   -0.466547  -0.000000
    16  H    0.141347   0.000000
    17  H    0.160128  -0.000000
    18  H    0.096175   0.000000
    19  H    0.175079   0.000000
    20  H    0.125773  -0.000000
    21  H    0.130517  -0.000000
    22  H    0.123350  -0.000000
    23  H    0.132062   0.000000
    24  H    0.172155   0.000000
    25  H    0.142984   0.000000
    26  H    0.144757   0.000000
    27  H    0.124746   0.000000
 Sum of Mulliken charges =  -2.00000  -0.00000

 Dipole moment (field-independent basis, Debye):
    X=              3.6092    Y=              1.9315    Z=              0.1194  Tot=              4.0953
 Quadrupole moment (field-independent basis, Debye-Ang):
   XX=           -118.3670   YY=           -155.4805   ZZ=           -100.9852
   XY=            -12.2080   XZ=              0.0529   YZ=              0.4081

 Normal termination of Gaussian 16 at Sun Jan 21 08:53:55 2024.
