 Q-Chem 5.4, Q-Chem, Inc., Pleasanton, CA (2021)
 Q-Chem 5.4.0 for Intel X86 EM64T Linux

User input:
--------------------------------------------------------------
$molecule
0 1
C                 -1.6143390000     -5.3592600000      1.4568160000
C                 -0.3914840000     -5.5867090000      0.7289190000
C                  0.3337550000     -4.5465320000      0.2110390000
C                 -0.2172260000     -3.1126920000      0.3250160000
C                 -2.1297120000     -3.9146170000      1.6366600000
C                 -1.4504300000     -2.8859020000      1.0397640000
O                 -2.2843790000     -6.2554050000      1.9527450000
O                  0.4305250000     -2.2231230000     -0.2099340000
N                 -3.2685640000     -3.9255220000      2.3595850000
N                  1.5007050000     -4.5443600000     -0.4590690000
C                 -3.9629110000     -2.8872580000      3.1416560000
C                 -3.0708410000     -2.1764330000      4.1625800000
C                 -4.8259260000     -1.9087790000      2.3076760000
C                  2.5414200000     -5.5694230000     -0.5903230000
C                  3.9161320000     -4.8900400000     -0.5591720000
C                  2.4294660000     -6.4479270000     -1.8577530000
N                 -5.2552360000     -2.3803450000      1.1097730000
N                  1.5034550000     -6.0797350000     -2.7760470000
C                  1.2654840000     -6.8458860000     -3.9906380000
C                 -6.0644370000     -1.5707430000      0.2109710000
O                 -5.1719590000     -0.8382320000      2.7776600000
O                  3.1883380000     -7.3942480000     -1.9925180000
Cl                 0.0571370000     -7.2706960000      0.5437170000
Cl                -1.9985510000     -1.2251660000      1.0456550000
H                 -3.4879710000     -4.8853810000      2.6227290000
H                  1.7626600000     -3.5943390000     -0.7207690000
H                 -4.7087230000     -3.4573710000      3.7064820000
H                 -3.6809770000     -1.4781200000      4.7351180000
H                 -2.2731210000     -1.6115920000      3.6831220000
H                 -2.6313400000     -2.9092110000      4.8430580000
H                  2.4687090000     -6.2588110000      0.2478280000
H                  4.0700040000     -4.3811970000      0.3946740000
H                  4.0120700000     -4.1578330000     -1.3670520000
H                  4.6908750000     -5.6450200000     -0.6891270000
H                 -4.8348070000     -3.2261590000      0.7585700000
H                  0.8729310000     -5.3308510000     -2.5369720000
H                  2.1846060000     -7.3640480000     -4.2598340000
H                  0.9794910000     -6.1712740000     -4.7991700000
H                  0.4763780000     -7.5909570000     -3.8485780000
H                 -6.6399550000     -2.2257910000     -0.4443830000
H                 -5.4467830000     -0.9038080000     -0.3994090000
H                 -6.7473790000     -0.9614150000      0.8013960000
$end
$rem
MAX_SCF_CYCLES=200
BASIS  =  6-311++G(d,p)
GUI  =  2
JOB_TYPE  =  SP
METHOD  =  B3LYP
SOLVENT_METHOD = PCM
$end
$pcm
theory = CPCM
$end
$solvent
dielectric 37.219
opticaldielectric 1.43
$end

--------------------------------------------------------------

             Standard Nuclear Orientation (Angstroms)
    I     Atom           X                Y                Z
 ----------------------------------------------------------------
    1      C      -1.6143390000    -5.3592600000     1.4568160000
    2      C      -0.3914840000    -5.5867090000     0.7289190000
    3      C       0.3337550000    -4.5465320000     0.2110390000
    4      C      -0.2172260000    -3.1126920000     0.3250160000
    5      C      -2.1297120000    -3.9146170000     1.6366600000
    6      C      -1.4504300000    -2.8859020000     1.0397640000
    7      O      -2.2843790000    -6.2554050000     1.9527450000
    8      O       0.4305250000    -2.2231230000    -0.2099340000
    9      N      -3.2685640000    -3.9255220000     2.3595850000
   10      N       1.5007050000    -4.5443600000    -0.4590690000
   11      C      -3.9629110000    -2.8872580000     3.1416560000
   12      C      -3.0708410000    -2.1764330000     4.1625800000
   13      C      -4.8259260000    -1.9087790000     2.3076760000
   14      C       2.5414200000    -5.5694230000    -0.5903230000
   15      C       3.9161320000    -4.8900400000    -0.5591720000
   16      C       2.4294660000    -6.4479270000    -1.8577530000
   17      N      -5.2552360000    -2.3803450000     1.1097730000
   18      N       1.5034550000    -6.0797350000    -2.7760470000
   19      C       1.2654840000    -6.8458860000    -3.9906380000
   20      C      -6.0644370000    -1.5707430000     0.2109710000
   21      O      -5.1719590000    -0.8382320000     2.7776600000
   22      O       3.1883380000    -7.3942480000    -1.9925180000
   23      Cl      0.0571370000    -7.2706960000     0.5437170000
   24      Cl     -1.9985510000    -1.2251660000     1.0456550000
   25      H      -3.4879710000    -4.8853810000     2.6227290000
   26      H       1.7626600000    -3.5943390000    -0.7207690000
   27      H      -4.7087230000    -3.4573710000     3.7064820000
   28      H      -3.6809770000    -1.4781200000     4.7351180000
   29      H      -2.2731210000    -1.6115920000     3.6831220000
   30      H      -2.6313400000    -2.9092110000     4.8430580000
   31      H       2.4687090000    -6.2588110000     0.2478280000
   32      H       4.0700040000    -4.3811970000     0.3946740000
   33      H       4.0120700000    -4.1578330000    -1.3670520000
   34      H       4.6908750000    -5.6450200000    -0.6891270000
   35      H      -4.8348070000    -3.2261590000     0.7585700000
   36      H       0.8729310000    -5.3308510000    -2.5369720000
   37      H       2.1846060000    -7.3640480000    -4.2598340000
   38      H       0.9794910000    -6.1712740000    -4.7991700000
   39      H       0.4763780000    -7.5909570000    -3.8485780000
   40      H      -6.6399550000    -2.2257910000    -0.4443830000
   41      H      -5.4467830000    -0.9038080000    -0.3994090000
   42      H      -6.7473790000    -0.9614150000     0.8013960000
 ----------------------------------------------------------------

    9   -1985.0416254122      3.68e-06  Convergence criterion met
 Total energy in the final basis set =    -1985.0416254122

                    Orbital Energies (a.u.)
 --------------------------------------------------------------

 Alpha MOs
 -- Occupied --
********-101.5672 -19.1394 -19.1388 -19.1040 -19.1038 -14.3731 -14.3710
-14.3475 -14.3439 -10.2964 -10.2956 -10.2848 -10.2847 -10.2742 -10.2734
-10.2467 -10.2462 -10.2394 -10.2382 -10.2000 -10.1992 -10.1737 -10.1672
 -9.4823  -9.4822  -7.2469  -7.2468  -7.2371  -7.2369  -7.2368  -7.2366
 -1.0821  -1.0791  -1.0580  -1.0579  -0.9820  -0.9784  -0.9312  -0.9292
 -0.8959  -0.8841  -0.8311  -0.8051  -0.7798  -0.7375  -0.7174  -0.7174
 -0.7020  -0.6659  -0.6531  -0.6281  -0.6100  -0.5945  -0.5849  -0.5790
 -0.5568  -0.5494  -0.5354  -0.5119  -0.4997  -0.4891  -0.4777  -0.4735
 -0.4727  -0.4682  -0.4660  -0.4607  -0.4544  -0.4493  -0.4421  -0.4397
 -0.4334  -0.4266  -0.4193  -0.4114  -0.4034  -0.3982  -0.3971  -0.3966
 -0.3895  -0.3822  -0.3781  -0.3691  -0.3688  -0.3613  -0.3499  -0.3392
 -0.3317  -0.3281  -0.3087  -0.2958  -0.2853  -0.2802  -0.2707  -0.2684
 -0.2539  -0.2301

          Ground-State Mulliken Net Atomic Charges

     Atom                 Charge (a.u.)
  ----------------------------------------
      1 C                    -0.411747
      2 C                     0.025234
      3 C                    -0.326300
      4 C                    -0.271190
      5 C                    -0.278458
      6 C                     0.011668
      7 O                    -0.292850
      8 O                    -0.280713
      9 N                    -0.064058
     10 N                     0.093682
     11 C                     0.159827
     12 C                    -0.574027
     13 C                    -0.322745
     14 C                     0.020640
     15 C                    -0.634776
     16 C                    -0.089940
     17 N                    -0.128997
     18 N                    -0.165827
     19 C                    -0.309022
     20 C                    -0.318143
     21 O                    -0.409529
     22 O                    -0.426508
     23 Cl                    0.460521
     24 Cl                    0.479729
     25 H                     0.373838
     26 H                     0.348417
     27 H                     0.247951
     28 H                     0.191125
     29 H                     0.138308
     30 H                     0.187760
     31 H                     0.227328
     32 H                     0.190872
     33 H                     0.183637
     34 H                     0.194860
     35 H                     0.354927
     36 H                     0.365487
     37 H                     0.178546
     38 H                     0.168993
     39 H                     0.180225
     40 H                     0.171828
     41 H                     0.174560
     42 H                     0.174863
  ----------------------------------------
  Sum of atomic charges =    -0.000004

                    Cartesian Multipole Moments
 -----------------------------------------------------------------
    Charge (ESU x 10^10)
                -0.0000
    Dipole Moment (Debye)
         X      -1.9429      Y      -0.2888      Z      -2.5439
       Tot       3.2140
    Quadrupole Moments (Debye-Ang)
        XX    -155.9744     XY      35.2830     YY    -206.1628
        XZ      15.7807     YZ      -0.9292     ZZ    -145.6141

 Total job time:  131.29s(wall), 866.79s(cpu)
        *  Thank you very much for using Q-Chem.  Have a nice day.  *
