 Q-Chem 5.4, Q-Chem, Inc., Pleasanton, CA (2021)
 Q-Chem 5.4.0 for Intel X86 EM64T Linux

User input:
--------------------------------------------------------------
$molecule
-2 1
C                 -1.6319640000      2.9002590000     -0.6754170000
C                 -2.8408130000      2.2971510000     -0.3867010000
C                 -2.8723070000      0.9255080000     -0.0142160000
C                 -0.3987730000      2.2055550000     -0.6167830000
C                 -0.4421340000      0.8008170000     -0.2514390000
C                 -1.6924460000      0.2068140000      0.0472520000
C                  0.8337060000      2.9191870000     -0.9264800000
C                  2.0985320000      2.1283740000     -0.8499090000
C                  1.9798480000      0.7339170000     -0.4876380000
C                  0.7850950000      0.0949430000     -0.2060320000
O                  0.8337450000      4.1449610000     -1.2425490000
O                  3.2296930000      2.6385750000     -1.0970560000
O                  0.6909050000     -1.2561670000      0.1619740000
C                  1.8808190000     -1.9698590000      0.3685580000
C                  1.6138870000     -3.3396100000      0.9166980000
C                  0.4235750000     -3.8425940000      1.2347180000
H                 -1.5792690000      3.9468400000     -0.9592000000
H                 -3.7658410000      2.8676150000     -0.4437680000
H                 -3.8175980000      0.4408020000      0.2188760000
H                 -1.7099040000     -0.8406780000      0.3285780000
H                  2.9223070000      0.1972420000     -0.4662940000
H                  2.5455760000     -1.4278340000      1.0590320000
H                  2.4475040000     -2.0737010000     -0.5751330000
H                  2.5086890000     -3.9507320000      1.0458660000
H                 -0.4785130000     -3.2559190000      1.1098610000
H                  0.3295680000     -4.8534950000      1.6207100000
$end
$rem
MAX_SCF_CYCLES=200
BASIS  =  6-311++G(d,p)
GUI  =  2
JOB_TYPE  =  SP
METHOD  =  B3LYP
SOLVENT_METHOD = COSMO
$end
$solvent
dielectric 37.219
opticaldielectric 1.43
$end

--------------------------------------------------------------

             Standard Nuclear Orientation (Angstroms)
    I     Atom           X                Y                Z
 ----------------------------------------------------------------
    1      C       2.6643602316     1.4218096397     0.0336360505
    2      C       2.2817008581     2.7491565725     0.0220594757
    3      C       0.9004809087     3.0835610121    -0.0172672158
    4      C       1.7298180361     0.3574787667     0.0082921454
    5      C       0.3218610667     0.7083153283    -0.0484188990
    6      C      -0.0459016631     2.0758221795    -0.0518191067
    7      C       2.2168821666    -1.0159522086     0.0336542772
    8      C       1.1804015466    -2.0909748262     0.0009828027
    9      C      -0.2008679402    -1.6692480941    -0.0628737744
   10      C      -0.6184682057    -0.3501986387    -0.0901317141
   11      O       3.4528890233    -1.2849431749     0.0821560675
   12      O       1.4815123547    -3.3197726526     0.0183059320
   13      O      -1.9657027066     0.0407604083    -0.1338195539
   14      C      -2.9473183093    -0.9557715157    -0.0275958254
   15      C      -4.3218149938    -0.3663908914     0.0787869663
   16      C      -4.6218527988     0.9292817418     0.1254991155
   17      H       3.7119681030     1.1388589008     0.0667716941
   18      H       3.0325751693     3.5366367881     0.0426822132
   19      H       0.5870234027     4.1249819393    -0.0230728968
   20      H      -1.1013109430     2.3243185850    -0.0842132154
   21      H      -0.9143908602    -2.4851567302    -0.1062641973
   22      H      -2.7599634453    -1.5956205592     0.8487252749
   23      H      -2.9213497134    -1.6301010929    -0.9034228671
   24      H      -5.1232224541    -1.1062814401     0.1124492420
   25      H      -3.8430097690     1.6813174308     0.0882775748
   26      H      -5.6535942828     1.2613551368     0.1961018248
 ----------------------------------------------------------------

   51    -727.2009960814      8.55e-06  Convergence criterion met
 Total energy in the final basis set =     -727.2009960814
    6    -727.4912698330      4.91e-06  Convergence criterion met
 Total energy in the final basis set =     -727.4912698330

                    Orbital Energies (a.u.)
 --------------------------------------------------------------

 Alpha MOs
 -- Occupied --
-19.1306 -19.0275 -19.0226 -10.2166 -10.1922 -10.1739 -10.1736 -10.1670
-10.1576 -10.1501 -10.1465 -10.1455 -10.1438 -10.1429 -10.1351 -10.1284
 -1.0433  -0.9611  -0.9340  -0.8309  -0.7907  -0.7623  -0.7264  -0.6965
 -0.6868  -0.6365  -0.5907  -0.5651  -0.5619  -0.5280  -0.5035  -0.4787
 -0.4702  -0.4622  -0.4534  -0.4233  -0.4143  -0.4043  -0.3970  -0.3893
 -0.3794  -0.3730  -0.3536  -0.3532  -0.3397  -0.3363  -0.3283  -0.3147
 -0.3080  -0.2924  -0.2628  -0.2471  -0.2308  -0.2197  -0.1927  -0.1885
 -0.1113

          Ground-State Mulliken Net Atomic Charges

     Atom                 Charge (a.u.)
  ----------------------------------------
      1 C                     0.041371
      2 C                    -0.544632
      3 C                    -0.429086
      4 C                     0.434125
      5 C                     0.127480
      6 C                    -0.206505
      7 C                    -0.206258
      8 C                    -0.229660
      9 C                     0.361829
     10 C                    -0.489743
     11 O                    -0.735539
     12 O                    -0.718678
     13 O                    -0.195400
     14 C                     0.036168
     15 C                    -0.283167
     16 C                    -0.664411
     17 H                     0.156531
     18 H                     0.173928
     19 H                     0.185491
     20 H                     0.120262
     21 H                     0.187135
     22 H                     0.168525
     23 H                     0.164396
     24 H                     0.231436
     25 H                     0.137720
     26 H                     0.176683
  ----------------------------------------
  Sum of atomic charges =    -2.000000

                    Cartesian Multipole Moments
 -----------------------------------------------------------------
    Charge (ESU x 10^10)
                -9.6064
    Dipole Moment (Debye)
         X     -19.5043      Y      12.3477      Z      -0.1384
       Tot      23.0847
    Quadrupole Moments (Debye-Ang)
        XX    -153.6377     XY      36.6158     YY    -151.7023
        XZ      -1.5591     YZ       0.8357     ZZ    -106.4199

 Total job time:  167.39s(wall), 1305.24s(cpu)
        *  Thank you very much for using Q-Chem.  Have a nice day.  *
