 Q-Chem 5.4, Q-Chem, Inc., Pleasanton, CA (2021)
 Q-Chem 5.4.0 for Intel X86 EM64T Linux

User input:
--------------------------------------------------------------
$molecule
0 1
C                  4.8975170000     -2.9383040000     -0.3196230000
C                  5.6598390000     -2.0708940000     -1.0877620000
C                  5.1258520000     -0.8668580000     -1.5321180000
C                  3.5853520000     -2.5960030000      0.0072350000
C                  3.0091740000     -1.3801170000     -0.4270480000
C                  3.8090350000     -0.5042640000     -1.2143820000
C                  2.8165550000     -3.5663070000      0.8334940000
C                  1.4450440000     -3.2452880000      1.1949150000
C                  0.8570880000     -2.0218840000      0.7611630000
C                  1.6091880000     -1.0560860000     -0.0558370000
C                  0.7034960000     -4.1511180000      1.9755250000
C                 -0.6273790000     -3.8341860000      2.3232740000
C                 -0.4704430000     -1.7308460000      1.1215860000
C                 -1.1960690000     -2.6565860000      1.9067660000
O                  3.3509420000     -4.6271520000      1.1997670000
O                  1.0625510000     -0.0014710000     -0.4138620000
O                  1.2008610000     -5.3145670000      2.4121630000
H                  5.2922780000     -3.8799060000      0.0367430000
H                  6.6806870000     -2.3272610000     -1.3475000000
H                  5.7383470000     -0.2066120000     -2.1293980000
O                  3.2632110000      0.6536440000     -1.6290280000
H                  2.1314270000     -5.3702010000      2.0790810000
O                 -1.1023720000     -0.6079380000      0.7594050000
H                 -2.2167330000     -2.4043050000      2.1684260000
H                 -1.1814300000     -4.5446310000      2.9247600000
H                 -0.4510870000     -0.0859820000      0.2220490000
C                  4.0329620000      1.5556340000     -2.4181840000
H                  3.3720590000      2.3969640000     -2.6160080000
H                  4.3353750000      1.0995970000     -3.3662440000
H                  4.9169300000      1.9067590000     -1.8763760000
$end
$rem
MAX_SCF_CYCLES=200
BASIS  =  6-311++G(d,p)
GUI  =  2
JOB_TYPE  =  SP
METHOD  =  B3LYP
SOLVENT_METHOD = COSMO
$end
$solvent
dielectric 37.219
opticaldielectric 1.43
$end

--------------------------------------------------------------

             Standard Nuclear Orientation (Angstroms)
    I     Atom           X                Y                Z
 ----------------------------------------------------------------
    1      C      -1.5971683928    -2.4795605767    -0.0000247261
    2      C      -2.9694968126    -2.2788440195     0.0001623819
    3      C      -3.4943664149    -0.9916731091     0.0002519297
    4      C      -0.7406435213    -1.3785845305    -0.0000893721
    5      C      -1.2386535236    -0.0553507607    -0.0000191323
    6      C      -2.6504209477     0.1282347535     0.0001347951
    7      C       0.7215930735    -1.6562655610    -0.0001178270
    8      C       1.6469303147    -0.5344492893    -0.0000600347
    9      C       1.1529659181     0.8021694198     0.0000036472
   10      C      -0.2909426917     1.0868395197    -0.0002144760
   11      C       3.0326347502    -0.7785734675    -0.0000422992
   12      C       3.9260937713     0.3142826517     0.0000327807
   13      C       2.0647348355     1.8725076086     0.0001272508
   14      C       3.4529671845     1.6026072262     0.0001507665
   15      O       1.1285012552    -2.8308051291     0.0000402539
   16      O      -0.6820762861     2.2642184590    -0.0004451475
   17      O       3.5559454331    -2.0105573087    -0.0001202740
   18      H      -1.1669367920    -3.4717037461    -0.0000495079
   19      H      -3.6440465134    -3.1275496208     0.0002611632
   20      H      -4.5668866550    -0.8593151989     0.0004009634
   21      O      -3.1271510025     1.3865409702     0.0001574748
   22      H       2.7951144953    -2.6439040673    -0.0002116319
   23      O       1.6912705099     3.1577920497     0.0002586194
   24      H       4.1305891540     2.4480036531     0.0002360137
   25      H       4.9890345191     0.1053640469     0.0000403800
   26      H       0.6986173910     3.1565800894     0.0003260607
   27      C      -4.5339411194     1.6097252160    -0.0001799459
   28      H      -4.6511159002     2.6914059974    -0.0003729395
   29      H      -5.0052092284     1.1927425645     0.8955169723
   30      H      -5.0047982915     1.1924734649    -0.8959693180
 ----------------------------------------------------------------

    9    -954.0183071974      6.60e-06  Convergence criterion met
 Total energy in the final basis set =     -954.0183071974
    5    -954.0371869048      2.57e-06  Convergence criterion met
 Total energy in the final basis set =     -954.0371869048

                    Orbital Energies (a.u.)
 --------------------------------------------------------------

 Alpha MOs
 -- Occupied --
-19.1725 -19.1651 -19.1613 -19.1373 -19.1327 -10.2879 -10.2873 -10.2681
-10.2666 -10.2645 -10.2245 -10.2125 -10.2120 -10.2087 -10.2079 -10.2017
-10.2006 -10.1995 -10.1952 -10.1904  -1.0952  -1.0932  -1.0891  -1.0606
 -1.0564  -0.8935  -0.8772  -0.8181  -0.7859  -0.7774  -0.7652  -0.7181
 -0.7004  -0.6660  -0.6647  -0.6306  -0.5966  -0.5760  -0.5628  -0.5537
 -0.5412  -0.5231  -0.5087  -0.4962  -0.4851  -0.4827  -0.4674  -0.4667
 -0.4657  -0.4560  -0.4377  -0.4355  -0.4327  -0.4270  -0.4265  -0.4040
 -0.3975  -0.3948  -0.3866  -0.3849  -0.3808  -0.3522  -0.3433  -0.3340
 -0.2949  -0.2944  -0.2804  -0.2749  -0.2514  -0.2322

          Ground-State Mulliken Net Atomic Charges

     Atom                 Charge (a.u.)
  ----------------------------------------
      1 C                    -0.183147
      2 C                    -0.378507
      3 C                     0.036135
      4 C                     0.174480
      5 C                     0.136901
      6 C                     0.087763
      7 C                    -0.363344
      8 C                     0.356249
      9 C                     0.727468
     10 C                    -0.445649
     11 C                    -0.267239
     12 C                    -0.034621
     13 C                    -0.316212
     14 C                    -0.129143
     15 O                    -0.358080
     16 O                    -0.368011
     17 O                    -0.347710
     18 H                     0.197679
     19 H                     0.241620
     20 H                     0.229412
     21 O                    -0.157922
     22 H                     0.365272
     23 O                    -0.365796
     24 H                     0.248590
     25 H                     0.249437
     26 H                     0.393732
     27 C                    -0.304905
     28 H                     0.216062
     29 H                     0.179756
     30 H                     0.179729
  ----------------------------------------
  Sum of atomic charges =     0.000000

                    Cartesian Multipole Moments
 -----------------------------------------------------------------
    Charge (ESU x 10^10)
                 0.0000
    Dipole Moment (Debye)
         X      -5.5984      Y      -1.0132      Z       0.0011
       Tot       5.6893
    Quadrupole Moments (Debye-Ang)
        XX     -80.6966     XY       9.6264     YY    -126.8561
        XZ      -0.0011     YZ       0.0030     ZZ    -116.4645

 Total job time:  82.03s(wall), 613.64s(cpu)
        *  Thank you very much for using Q-Chem.  Have a nice day.  *
