 Gaussian 16, Revision A.03,
 Gaussian 16:  ES64L-G16RevA.03 25-Dec-2016

 ----------------------------------------------------------------
 #P UB3LYP/6-311++G(d,p) SCRF=(PCM,Solvent=n,n-DiMethylFormamide)
 ----------------------------------------------------------------

 ------------------
 Radical PCM in DMF
 ------------------
 Symbolic Z-matrix:
 Charge = -1 Multiplicity = 2

                         Standard orientation:
 ---------------------------------------------------------------------
 Center     Atomic      Atomic             Coordinates (Angstroms)
 Number     Number       Type             X           Y           Z
 ---------------------------------------------------------------------
      1          6           0        3.348389    0.731636   -0.028737
      2          6           0        4.311430   -0.257174   -0.010575
      3          6           0        3.924677   -1.615274    0.022350
      4          6           0        1.972668    0.410470   -0.014234
      5          6           0        1.584572   -0.951929    0.016433
      6          6           0        2.585253   -1.949178    0.035539
      7          6           0        0.984841    1.484854   -0.023954
      8          6           0        0.179397   -1.345262    0.016736
      9          6           0       -0.423858    1.105567    0.012037
     10          6           0       -0.818467   -0.286956   -0.010471
     11          6           0       -1.433850    2.120957    0.040771
     12          6           0       -2.773314    1.745419    0.010464
     13          6           0       -3.164373    0.406438   -0.043855
     14          6           0       -2.218652   -0.623324   -0.054760
     15          8           0        1.381818    2.691110   -0.068643
     16          8           0       -0.114062   -2.585439    0.040806
     17          7           0       -1.108393    3.476323    0.156128
     18          7           0       -2.613419   -1.942678   -0.126955
     19          6           0       -3.973525   -2.366938    0.047736
     20          1           0        3.614072    1.781752   -0.052440
     21          1           0        5.364874    0.007213   -0.020506
     22          1           0        4.680946   -2.394784    0.036729
     23          1           0        2.258677   -2.981943    0.058320
     24          1           0       -3.533626    2.521826    0.045725
     25          1           0       -4.220638    0.168594   -0.075398
     26          1           0       -0.119709    3.649682   -0.032276
     27          1           0       -1.762910    4.101831   -0.290438
     28          1           0       -1.834247   -2.596932   -0.020086
     29          1           0       -4.629657   -2.016096   -0.763215
     30          1           0       -4.417018   -2.018926    0.996499
     31          1           0       -4.001247   -3.458942    0.042692
 ---------------------------------------------------------------------

 SCF Done:  E(UB3LYP) =  -839.165229520     A.U. after   18 cycles

 The electronic state is 2-A.
 Alpha  occ. eigenvalues --  -19.07186 -19.07159 -14.30365 -14.29570 -10.22181
 Alpha  occ. eigenvalues --  -10.22139 -10.20519 -10.20223 -10.19056 -10.17072
 Alpha  occ. eigenvalues --  -10.17025 -10.16970 -10.16906 -10.16836 -10.16782
 Alpha  occ. eigenvalues --  -10.16705 -10.16700 -10.16130 -10.15996  -0.99993
 Alpha  occ. eigenvalues --   -0.99724  -0.92258  -0.90135  -0.85521  -0.82257
 Alpha  occ. eigenvalues --   -0.77834  -0.74783  -0.73739  -0.72733  -0.67509
 Alpha  occ. eigenvalues --   -0.66024  -0.62958  -0.61791  -0.57686  -0.56041
 Alpha  occ. eigenvalues --   -0.53881  -0.52036  -0.50659  -0.48705  -0.47276
 Alpha  occ. eigenvalues --   -0.46200  -0.45802  -0.44722  -0.43683  -0.43007
 Alpha  occ. eigenvalues --   -0.42112  -0.41633  -0.41060  -0.40790  -0.39101
 Alpha  occ. eigenvalues --   -0.38214  -0.37906  -0.37318  -0.37006  -0.36455
 Alpha  occ. eigenvalues --   -0.34509  -0.34091  -0.33411  -0.32075  -0.26790
 Alpha  occ. eigenvalues --   -0.25452  -0.25386  -0.24382  -0.24259  -0.23265
 Alpha  occ. eigenvalues --   -0.18541  -0.13144
 Alpha virt. eigenvalues --   -0.04290  -0.01910  -0.00401   0.00285   0.00693
 Alpha virt. eigenvalues --    0.01395   0.01901   0.02042   0.03110   0.03578
 Alpha virt. eigenvalues --    0.03880   0.04291   0.05145   0.05409   0.05501

  Beta  occ. eigenvalues --  -19.06746 -19.06694 -14.30291 -14.29500 -10.21999
  Beta  occ. eigenvalues --  -10.21966 -10.20480 -10.20166 -10.19060 -10.17028
  Beta  occ. eigenvalues --  -10.16980 -10.16973 -10.16919 -10.16765 -10.16730
  Beta  occ. eigenvalues --  -10.16698 -10.16680 -10.16008 -10.15864  -0.99218
  Beta  occ. eigenvalues --   -0.98927  -0.92080  -0.89954  -0.85322  -0.82083
  Beta  occ. eigenvalues --   -0.77446  -0.74586  -0.73571  -0.72548  -0.67276
  Beta  occ. eigenvalues --   -0.65433  -0.62769  -0.61595  -0.57574  -0.55866
  Beta  occ. eigenvalues --   -0.53667  -0.51913  -0.50569  -0.48569  -0.46994
  Beta  occ. eigenvalues --   -0.46106  -0.45689  -0.44587  -0.43441  -0.42888
  Beta  occ. eigenvalues --   -0.42072  -0.40800  -0.40668  -0.40551  -0.38932
  Beta  occ. eigenvalues --   -0.38008  -0.37376  -0.36704  -0.36348  -0.35910
  Beta  occ. eigenvalues --   -0.34365  -0.33311  -0.32965  -0.31340  -0.25555
  Beta  occ. eigenvalues --   -0.24775  -0.24268  -0.23986  -0.23866  -0.22864
  Beta  occ. eigenvalues --   -0.17346
  Beta virt. eigenvalues --   -0.07967  -0.03357  -0.00915  -0.00385   0.00290
  Beta virt. eigenvalues --    0.00709   0.01890   0.01958   0.02047   0.03141
  Beta virt. eigenvalues --    0.03642   0.03892   0.04304   0.05200   0.05500

 Mulliken charges and spin densities:
               1          2
     1  C    0.070554   0.024363
     2  C   -0.598934   0.030626
     3  C   -0.574177   0.037887
     4  C    0.110809   0.031355
     5  C    0.160932   0.033053
     6  C   -0.006158   0.018369
     7  C   -0.419384   0.096888
     8  C   -0.212700   0.095448
     9  C    0.656144  -0.002324
    10  C    0.246475  -0.008707
    11  C   -0.009819   0.051098
    12  C   -0.432037   0.092024
    13  C   -0.172279   0.101323
    14  C   -0.223699   0.030914
    15  O   -0.465354   0.168306
    16  O   -0.477783   0.160514
    17  N   -0.440922   0.030291
    18  N   -0.281554   0.033868
    19  C   -0.375821  -0.002645
    20  H    0.170343  -0.000829
    21  H    0.176224  -0.002698
    22  H    0.177976  -0.003092
    23  H    0.164082  -0.000591
    24  H    0.174686  -0.007151
    25  H    0.177425  -0.007452
    26  H    0.307489  -0.002883
    27  H    0.253925  -0.001122
    28  H    0.391138  -0.003411
    29  H    0.146056   0.002433
    30  H    0.152017   0.004094
    31  H    0.154345   0.000051
 Sum of Mulliken charges =  -1.00000   1.00000

 Dipole moment (field-independent basis, Debye):
    X=             -3.7321    Y=             -1.0226    Z=             -0.7475  Tot=              3.9412
 Quadrupole moment (field-independent basis, Debye-Ang):
   XX=           -111.7722   YY=           -136.2232   ZZ=           -121.1945
   XY=             -6.2078   XZ=              1.0685   YZ=             -4.8711

 Normal termination of Gaussian 16 at Sun Jan 14 01:17:59 2024.
