 Gaussian 16, Revision A.03,
 Gaussian 16:  ES64L-G16RevA.03 25-Dec-2016

 ----------------------------------------------------------------
 #P UB3LYP/6-311++G(d,p) SCRF=(PCM,Solvent=n,n-DiMethylFormamide)
 ----------------------------------------------------------------

 ------------------
 Quinone PCM in DMF
 ------------------
 Symbolic Z-matrix:
 Charge =  0 Multiplicity = 1

                         Standard orientation:
 ---------------------------------------------------------------------
 Center     Atomic      Atomic             Coordinates (Angstroms)
 Number     Number       Type             X           Y           Z
 ---------------------------------------------------------------------
      1          6           0        3.526036   -1.181592    0.932071
      2          6           0        2.880599   -0.835598   -0.423661
      3          6           0        1.499727   -0.243857   -0.276554
      4          6           0        1.247759    1.084026   -0.157234
      5          6           0        2.300027    2.157026   -0.159701
      6          6           0       -0.150907    1.597486   -0.019291
      7          8           0       -0.356958    2.799292    0.059809
      8          6           0       -1.274751    0.621717    0.019495
      9          6           0       -2.588676    1.076187    0.156037
     10          6           0       -3.637243    0.163005    0.195843
     11          6           0       -3.379148   -1.206975    0.099528
     12          6           0       -2.072588   -1.664417   -0.037368
     13          6           0       -1.015715   -0.751575   -0.077782
     14          6           0        0.383142   -1.241705   -0.229134
     15          8           0        0.619514   -2.437679   -0.313629
     16          1           0        4.514207   -1.623611    0.780181
     17          1           0        2.915886   -1.903446    1.479054
     18          1           0        3.644524   -0.292007    1.556549
     19          1           0        3.524650   -0.148813   -0.975648
     20          1           0        2.797423   -1.749792   -1.013657
     21          1           0        2.185617    2.795156    0.720026
     22          1           0        3.309286    1.752517   -0.172413
     23          1           0        2.169920    2.814171   -1.024867
     24          1           0       -2.765510    2.142134    0.229234
     25          1           0       -4.656884    0.515619    0.302057
     26          1           0       -4.198877   -1.915732    0.131141
     27          1           0       -1.850260   -2.721473   -0.114595
 ---------------------------------------------------------------------

 SCF Done:  E(UB3LYP) =  -653.249496793     A.U. after   15 cycles

 The electronic state is 1-A.
 Alpha  occ. eigenvalues --  -19.13371 -19.13360 -10.28191 -10.28135 -10.21453
 Alpha  occ. eigenvalues --  -10.21152 -10.20707 -10.20654 -10.19862 -10.19824
 Alpha  occ. eigenvalues --  -10.19783 -10.19768 -10.17967 -10.17498 -10.16631
 Alpha  occ. eigenvalues --   -1.06800  -1.06615  -0.89065  -0.85285  -0.79251
 Alpha  occ. eigenvalues --   -0.77830  -0.76970  -0.72001  -0.68205  -0.65644
 Alpha  occ. eigenvalues --   -0.62767  -0.60296  -0.58369  -0.55153  -0.52012
 Alpha  occ. eigenvalues --   -0.50085  -0.47864  -0.46466  -0.46091  -0.45845
 Alpha  occ. eigenvalues --   -0.45214  -0.43895  -0.43408  -0.42697  -0.41106
 Alpha  occ. eigenvalues --   -0.40926  -0.39906  -0.38935  -0.38168  -0.37602
 Alpha  occ. eigenvalues --   -0.37055  -0.36119  -0.34942  -0.29200  -0.28928
 Alpha  occ. eigenvalues --   -0.27907  -0.27310  -0.27241
 Alpha virt. eigenvalues --   -0.12330  -0.05680  -0.03023  -0.00874   0.00145
 Alpha virt. eigenvalues --    0.00878   0.01638   0.02049   0.02191   0.02500
 Alpha virt. eigenvalues --    0.03871   0.04228   0.04424   0.04498   0.05069

  Beta  occ. eigenvalues --  -19.13371 -19.13360 -10.28191 -10.28135 -10.21453
  Beta  occ. eigenvalues --  -10.21152 -10.20707 -10.20654 -10.19862 -10.19824
  Beta  occ. eigenvalues --  -10.19783 -10.19768 -10.17967 -10.17498 -10.16631
  Beta  occ. eigenvalues --   -1.06800  -1.06615  -0.89065  -0.85285  -0.79251
  Beta  occ. eigenvalues --   -0.77830  -0.76970  -0.72001  -0.68205  -0.65644
  Beta  occ. eigenvalues --   -0.62767  -0.60296  -0.58369  -0.55153  -0.52012
  Beta  occ. eigenvalues --   -0.50085  -0.47864  -0.46466  -0.46091  -0.45845
  Beta  occ. eigenvalues --   -0.45214  -0.43895  -0.43408  -0.42697  -0.41106
  Beta  occ. eigenvalues --   -0.40926  -0.39906  -0.38935  -0.38168  -0.37602
  Beta  occ. eigenvalues --   -0.37055  -0.36119  -0.34942  -0.29200  -0.28928
  Beta  occ. eigenvalues --   -0.27907  -0.27310  -0.27241
  Beta virt. eigenvalues --   -0.12330  -0.05680  -0.03023  -0.00874   0.00145
  Beta virt. eigenvalues --    0.00878   0.01638   0.02049   0.02191   0.02500
  Beta virt. eigenvalues --    0.03871   0.04228   0.04424   0.04498   0.05069

 Mulliken charges and spin densities:
               1          2
     1  C   -0.661367  -0.000000
     2  C   -0.311042   0.000000
     3  C    0.751157   0.000000
     4  C    0.812435   0.000000
     5  C   -0.393438   0.000000
     6  C   -0.858262   0.000000
     7  O   -0.267675   0.000000
     8  C    0.704534  -0.000000
     9  C    0.066238   0.000000
    10  C   -0.462868  -0.000000
    11  C   -0.420526   0.000000
    12  C    0.010913   0.000000
    13  C    0.637674  -0.000000
    14  C   -1.499689  -0.000000
    15  O   -0.262513  -0.000000
    16  H    0.149042   0.000000
    17  H    0.167521  -0.000000
    18  H    0.148394   0.000000
    19  H    0.176830  -0.000000
    20  H    0.193342   0.000000
    21  H    0.188699  -0.000000
    22  H    0.146308   0.000000
    23  H    0.197844  -0.000000
    24  H    0.185855   0.000000
    25  H    0.207330  -0.000000
    26  H    0.209115   0.000000
    27  H    0.184147   0.000000
 Sum of Mulliken charges =  -0.00000  -0.00000

 Dipole moment (field-independent basis, Debye):
    X=             -0.4927    Y=             -0.1448    Z=              0.1454  Tot=              0.5337
 Quadrupole moment (field-independent basis, Debye-Ang):
   XX=            -67.4997   YY=           -102.8813   ZZ=            -89.6242
   XY=              6.7341   XZ=             -1.2425   YZ=             -1.2980

 Normal termination of Gaussian 16 at Sun Jan 21 08:00:51 2024.
