 Gaussian 16, Revision A.03,
 Gaussian 16:  ES64L-G16RevA.03 25-Dec-2016

 ----------------------------------------------------------------------
 #P UB3LYP/6-311++G(d,p) nosym opt freq SCRF=(PCM,Solvent=n,n-DiMethylF
 ormamide)
 ----------------------------------------------------------------------

 -------
 Reduced
 -------
 Symbolic Z-matrix:
 Charge = -2 Multiplicity = 1

 SCF Done:  E(UB3LYP) =  -804.953694427     A.U. after   19 cycles
 SCF Done:  E(UB3LYP) =  -804.954429149     A.U. after   15 cycles
 SCF Done:  E(UB3LYP) =  -804.954806136     A.U. after   15 cycles
 SCF Done:  E(UB3LYP) =  -804.955404871     A.U. after   14 cycles
 SCF Done:  E(UB3LYP) =  -804.955635081     A.U. after   14 cycles
 SCF Done:  E(UB3LYP) =  -804.955568661     A.U. after   17 cycles
 SCF Done:  E(UB3LYP) =  -804.955879392     A.U. after   16 cycles
 SCF Done:  E(UB3LYP) =  -804.956161880     A.U. after   14 cycles
 SCF Done:  E(UB3LYP) =  -804.956235725     A.U. after   14 cycles
 SCF Done:  E(UB3LYP) =  -804.956263822     A.U. after   14 cycles
 SCF Done:  E(UB3LYP) =  -804.956348800     A.U. after   12 cycles
 SCF Done:  E(UB3LYP) =  -804.956351710     A.U. after   12 cycles
 SCF Done:  E(UB3LYP) =  -804.956354993     A.U. after   12 cycles
 SCF Done:  E(UB3LYP) =  -804.956356427     A.U. after   11 cycles
 SCF Done:  E(UB3LYP) =  -804.956358014     A.U. after   11 cycles
 SCF Done:  E(UB3LYP) =  -804.956358236     A.U. after   10 cycles
 SCF Done:  E(UB3LYP) =  -804.956358457     A.U. after   10 cycles
 SCF Done:  E(UB3LYP) =  -804.956358511     A.U. after   10 cycles
 SCF Done:  E(UB3LYP) =  -804.956358511     A.U. after    8 cycles
 Optimization completed.
    -- Stationary point found.
 Normal termination of Gaussian 16 at Sat Feb 10 13:43:36 2024.

 ----------------------------------------------------------------------
 #P Geom=AllCheck Guess=TCheck SCRF=Check GenChk UB3LYP/6-311++G(d,p) F
 req
 ----------------------------------------------------------------------

 Structure from the checkpoint file:  "081-an.chk"
 -------
 Reduced
 -------
 Charge = -2 Multiplicity = 1

                          Input orientation:
 ---------------------------------------------------------------------
 Center     Atomic      Atomic             Coordinates (Angstroms)
 Number     Number       Type             X           Y           Z
 ---------------------------------------------------------------------
      1          6           0        1.384761    1.159070   -3.093647
      2          6           0        0.094133    1.517218   -3.593353
      3          6           0       -1.048529    0.809764   -3.270162
      4          6           0       -1.054058   -0.342643   -2.421631
      5          6           0        0.218173   -0.759427   -1.944360
      6          8           0        2.420446    1.909666   -3.309177
      7          8           0       -2.175590   -0.975252   -2.147007
      8          1           0        0.030535    2.401199   -4.224766
      9          6           0        1.415312   -0.040067   -2.283228
     10          6           0        2.715781   -0.469657   -1.759191
     11          6           0        3.923425   -0.462840   -2.670286
     12          6           0        5.195134   -0.032717   -2.234403
     13          6           0        3.789586   -1.035486   -3.941482
     14          6           0        6.279177   -0.171278   -3.108746
     15          6           0        6.138545   -0.749315   -4.371001
     16          6           0        4.884600   -1.190073   -4.788706
     17          8           0        2.877729   -0.931995   -0.615891
     18          6           0        5.421356    0.604443   -0.882169
     19          1           0        2.806492   -1.360277   -4.263272
     20          1           0        7.255602    0.183887   -2.792991
     21          1           0        7.001609   -0.849982   -5.020321
     22          1           0        4.757609   -1.643120   -5.766034
     23          6           0        0.248628   -2.051562   -1.158572
     24          1           0       -2.008789    1.133725   -3.669423
     25          1           0        0.047907   -1.898020   -0.089183
     26          1           0        1.209791   -2.561199   -1.224812
     27          1           0       -0.540090   -2.713405   -1.526299
     28          1           0        4.605841    1.278003   -0.611476
     29          1           0        6.353830    1.173917   -0.882638
     30          1           0        5.485182   -0.147676   -0.091484
 ---------------------------------------------------------------------

 SCF Done:  E(UB3LYP) =  -804.956358511     A.U. after    3 cycles

 Alpha  occ. eigenvalues --  -19.08133 -19.02115 -19.00973 -10.23072 -10.18030
 Alpha  occ. eigenvalues --  -10.17870 -10.17076 -10.16928 -10.16703 -10.16610
 Alpha  occ. eigenvalues --  -10.16600 -10.16416 -10.15544 -10.13314 -10.13187
 Alpha  occ. eigenvalues --  -10.13179 -10.13088 -10.12533  -1.00751  -0.93384
 Alpha  occ. eigenvalues --   -0.91506  -0.85347  -0.78545  -0.76642  -0.75111
 Alpha  occ. eigenvalues --   -0.72838  -0.68940  -0.67481  -0.63077  -0.61645
 Alpha  occ. eigenvalues --   -0.59187  -0.57012  -0.52631  -0.52085  -0.48155
 Alpha  occ. eigenvalues --   -0.46258  -0.44616  -0.44322  -0.42713  -0.42143
 Alpha  occ. eigenvalues --   -0.41328  -0.40840  -0.40268  -0.38907  -0.37935
 Alpha  occ. eigenvalues --   -0.37448  -0.36481  -0.35674  -0.35296  -0.35026
 Alpha  occ. eigenvalues --   -0.34679  -0.33996  -0.33115  -0.32049  -0.31376
 Alpha  occ. eigenvalues --   -0.30484  -0.25059  -0.24382  -0.23077  -0.22360
 Alpha  occ. eigenvalues --   -0.21218  -0.19414  -0.18977  -0.12208
 Alpha virt. eigenvalues --   -0.03817  -0.00735  -0.00236   0.00164   0.00860
 Alpha virt. eigenvalues --    0.01259   0.01571   0.02559   0.03359   0.03666
 Alpha virt. eigenvalues --    0.03686   0.04404   0.04889   0.05371   0.05639

  Beta  occ. eigenvalues --  -19.08133 -19.02115 -19.00973 -10.23072 -10.18030
  Beta  occ. eigenvalues --  -10.17870 -10.17076 -10.16928 -10.16703 -10.16610
  Beta  occ. eigenvalues --  -10.16600 -10.16416 -10.15544 -10.13314 -10.13187
  Beta  occ. eigenvalues --  -10.13179 -10.13088 -10.12533  -1.00751  -0.93384
  Beta  occ. eigenvalues --   -0.91506  -0.85347  -0.78545  -0.76642  -0.75111
  Beta  occ. eigenvalues --   -0.72838  -0.68940  -0.67481  -0.63077  -0.61645
  Beta  occ. eigenvalues --   -0.59187  -0.57012  -0.52631  -0.52085  -0.48155
  Beta  occ. eigenvalues --   -0.46258  -0.44616  -0.44322  -0.42713  -0.42143
  Beta  occ. eigenvalues --   -0.41328  -0.40840  -0.40268  -0.38907  -0.37935
  Beta  occ. eigenvalues --   -0.37448  -0.36481  -0.35674  -0.35296  -0.35026
  Beta  occ. eigenvalues --   -0.34679  -0.33996  -0.33115  -0.32049  -0.31376
  Beta  occ. eigenvalues --   -0.30484  -0.25059  -0.24382  -0.23077  -0.22360
  Beta  occ. eigenvalues --   -0.21218  -0.19414  -0.18977  -0.12208
  Beta virt. eigenvalues --   -0.03817  -0.00735  -0.00236   0.00164   0.00860
  Beta virt. eigenvalues --    0.01259   0.01571   0.02559   0.03359   0.03666
  Beta virt. eigenvalues --    0.03686   0.04404   0.04889   0.05371   0.05639

 Mulliken charges and spin densities:
               1          2
     1  C   -0.984167  -0.000000
     2  C   -0.334241  -0.000000
     3  C    0.068163   0.000000
     4  C   -0.691938   0.000000
     5  C    0.522936   0.000000
     6  O   -0.590670  -0.000000
     7  O   -0.738485   0.000000
     8  H    0.145815  -0.000000
     9  C    1.195353   0.000000
    10  C   -1.226477  -0.000000
    11  C    1.270297   0.000000
    12  C    0.316443   0.000000
    13  C   -0.462867  -0.000000
    14  C   -0.271783  -0.000000
    15  C   -0.329889  -0.000000
    16  C   -0.438954   0.000000
    17  O   -0.325109   0.000000
    18  C   -0.388861   0.000000
    19  H    0.177122  -0.000000
    20  H    0.169132  -0.000000
    21  H    0.175128  -0.000000
    22  H    0.186678   0.000000
    23  C   -0.535884   0.000000
    24  H    0.144905   0.000000
    25  H    0.150005  -0.000000
    26  H    0.147374  -0.000000
    27  H    0.138053  -0.000000
    28  H    0.181797  -0.000000
    29  H    0.143990   0.000000
    30  H    0.186137  -0.000000
 Sum of Mulliken charges =  -2.00000  -0.00000

 Dipole moment (field-independent basis, Debye):
    X=             -4.5466    Y=             -0.8479    Z=             22.0257  Tot=             22.5061
 Quadrupole moment (field-independent basis, Debye-Ang):
   XX=           -165.9943   YY=           -135.5272   ZZ=           -173.7039
   XY=            -16.9991   XZ=             12.3803   YZ=             16.0708

  Exact polarizability: 405.215  -5.265 267.585   9.284 -38.220 283.397
 Approx polarizability: 423.823  -0.618 303.710  19.273 -51.005 332.151

                      1                      2                      3
                      A                      A                      A
 Frequencies --     30.3794                49.6946                65.4614
 Red. masses --      6.4435                 3.9787                 4.8391
 Frc consts  --      0.0035                 0.0058                 0.0122
 IR Inten    --      4.1040                 1.2514                 5.6424

                      4                      5                      6
                      A                      A                      A
 Frequencies --    101.8093               120.3797               125.4864
 Red. masses --      4.2617                 1.0940                 4.8586
 Frc consts  --      0.0260                 0.0093                 0.0451
 IR Inten    --      1.6006                 2.0861                26.7707

                      7                      8                      9
                      A                      A                      A
 Frequencies --    139.7743               156.4855               182.2284
 Red. masses --      1.2666                 4.4449                 4.2150
 Frc consts  --      0.0146                 0.0641                 0.0825
 IR Inten    --      1.2731                26.1494                 0.9721

                     10                     11                     12
                      A                      A                      A
 Frequencies --    198.6596               240.8044               263.0887
 Red. masses --      3.9797                 4.6749                 4.6807
 Frc consts  --      0.0925                 0.1597                 0.1909
 IR Inten    --      4.7938                11.6953                 4.3198

                     13                     14                     15
                      A                      A                      A
 Frequencies --    331.4812               344.4883               347.0395
 Red. masses --      9.2666                 4.8204                 3.3244
 Frc consts  --      0.5999                 0.3370                 0.2359
 IR Inten    --      6.4618                 4.2279                13.3028

                     16                     17                     18
                      A                      A                      A
 Frequencies --    378.9420               406.5682               419.8115
 Red. masses --      6.2175                 3.1977                 4.6966
 Frc consts  --      0.5260                 0.3114                 0.4877
 IR Inten    --     11.3988                 4.2118                11.7509

                     19                     20                     21
                      A                      A                      A
 Frequencies --    460.1482               474.6779               481.2102
 Red. masses --      3.9185                 8.6368                 4.1217
 Frc consts  --      0.4888                 1.1466                 0.5623
 IR Inten    --      5.7173                26.0106                 1.7840

                     22                     23                     24
                      A                      A                      A
 Frequencies --    537.3801               566.7764               595.4561
 Red. masses --      4.4601                 5.1684                 5.3774
 Frc consts  --      0.7589                 0.9782                 1.1234
 IR Inten    --     25.2822                 0.6638                28.7457

                     25                     26                     27
                      A                      A                      A
 Frequencies --    606.9394               635.4300               670.9655
 Red. masses --      2.7531                 4.0016                 5.2438
 Frc consts  --      0.5975                 0.9520                 1.3909
 IR Inten    --     21.2059                 6.7222                44.1553

                     28                     29                     30
                      A                      A                      A
 Frequencies --    723.8349               740.7926               744.6341
 Red. masses --      5.4636                 1.8856                 4.6875
 Frc consts  --      1.6866                 0.6097                 1.5314
 IR Inten    --     22.4877                35.0131                36.2222

                     31                     32                     33
                      A                      A                      A
 Frequencies --    771.1283               777.8571               812.7889
 Red. masses --      2.2663                 5.9195                 2.9750
 Frc consts  --      0.7940                 2.1103                 1.1580
 IR Inten    --     93.4264               124.1034                32.3969

                     34                     35                     36
                      A                      A                      A
 Frequencies --    825.6384               843.2530               882.1152
 Red. masses --      2.8156                 3.9650                 1.3858
 Frc consts  --      1.1308                 1.6612                 0.6354
 IR Inten    --     60.9110               127.2280                 2.1933

                     37                     38                     39
                      A                      A                      A
 Frequencies --    926.3158               940.5961               961.4336
 Red. masses --      1.3400                 2.0718                 1.4368
 Frc consts  --      0.6774                 1.0799                 0.7825
 IR Inten    --      9.7027                57.3982                 7.8365

                     40                     41                     42
                      A                      A                      A
 Frequencies --    994.0692              1007.4228              1022.2920
 Red. masses --      1.2932                 1.5647                 4.0334
 Frc consts  --      0.7529                 0.9357                 2.4836
 IR Inten    --      0.4941                 1.7415                27.9090

                     43                     44                     45
                      A                      A                      A
 Frequencies --   1039.6639              1055.1192              1062.9209
 Red. masses --      1.4932                 1.7461                 2.2524
 Frc consts  --      0.9510                 1.1453                 1.4994
 IR Inten    --      0.7334                21.5898                66.8863

                     46                     47                     48
                      A                      A                      A
 Frequencies --   1066.5263              1131.1913              1151.1305
 Red. masses --      2.7492                 1.6828                 1.4635
 Frc consts  --      1.8425                 1.2687                 1.1426
 IR Inten    --    210.6940                15.7899               199.7590

                     49                     50                     51
                      A                      A                      A
 Frequencies --   1174.3718              1174.7257              1199.5814
 Red. masses --      1.2345                 1.8753                 4.6638
 Frc consts  --      1.0032                 1.5247                 3.9541
 IR Inten    --      2.5018                34.4803               394.3527

                     52                     53                     54
                      A                      A                      A
 Frequencies --   1212.6041              1247.9009              1297.2275
 Red. masses --      2.7743                 4.8223                 1.7905
 Frc consts  --      2.4035                 4.4245                 1.7752
 IR Inten    --     26.5624               131.2883               171.1418

                     55                     56                     57
                      A                      A                      A
 Frequencies --   1306.3602              1319.9259              1333.0041
 Red. masses --      3.4466                 7.0577                 5.0868
 Frc consts  --      3.4655                 7.2446                 5.3254
 IR Inten    --    594.3082                50.6135               410.0784

                     58                     59                     60
                      A                      A                      A
 Frequencies --   1385.3522              1396.7642              1408.7816
 Red. masses --      1.6693                 2.3495                 1.2361
 Frc consts  --      1.8876                 2.7006                 1.4454
 IR Inten    --    123.2953               135.2988                 4.2101

                     61                     62                     63
                      A                      A                      A
 Frequencies --   1422.4941              1452.9822              1456.6958
 Red. masses --      5.0469                 1.0957                 1.4952
 Frc consts  --      6.0169                 1.3629                 1.8693
 IR Inten    --    978.1045                74.7965                13.6404

                     64                     65                     66
                      A                      A                      A
 Frequencies --   1473.7848              1485.7384              1487.6085
 Red. masses --      1.1892                 1.2530                 1.0926
 Frc consts  --      1.5219                 1.6297                 1.4246
 IR Inten    --      3.0994                12.0880                63.9564

                     67                     68                     69
                      A                      A                      A
 Frequencies --   1499.6018              1507.0878              1569.3542
 Red. masses --      3.9324                 2.4743                 8.1985
 Frc consts  --      5.2103                 3.3111                11.8967
 IR Inten    --    456.4253                31.1474               947.5054

                     70                     71                     72
                      A                      A                      A
 Frequencies --   1599.9431              1609.7804              1629.1931
 Red. masses --      6.1075                 6.8988                 5.6766
 Frc consts  --      9.2114                10.5331                 8.8773
 IR Inten    --      7.4933               145.0607                11.0845

                     73                     74                     75
                      A                      A                      A
 Frequencies --   2980.9940              3031.4175              3044.2007
 Red. masses --      1.0585                 1.0360                 1.0780
 Frc consts  --      5.5418                 5.6091                 5.8860
 IR Inten    --    153.9264                53.5611                70.7514

                     76                     77                     78
                      A                      A                      A
 Frequencies --   3085.2542              3101.4434              3105.7102
 Red. masses --      1.1003                 1.1019                 1.0840
 Frc consts  --      6.1707                 6.2448                 6.1602
 IR Inten    --     26.3228                38.4470                62.9735

                     79                     80                     81
                      A                      A                      A
 Frequencies --   3107.9086              3129.5426              3148.5037
 Red. masses --      1.0969                 1.0932                 1.0868
 Frc consts  --      6.2424                 6.3080                 6.3474
 IR Inten    --     35.4607               128.2816                21.4113

                     82                     83                     84
                      A                      A                      A
 Frequencies --   3160.0918              3172.2961              3182.3484
 Red. masses --      1.0877                 1.0918                 1.0970
 Frc consts  --      6.3996                 6.4735                 6.5457
 IR Inten    --     13.3215                43.3996                34.6666

 - Thermochemistry -
 -------------------
 Temperature   298.150 Kelvin.  Pressure   1.00000 Atm.
 Atom     1 has atomic number  6 and mass  12.00000

 Molecular mass:   240.07864 amu.
 Principal axes and moments of inertia in atomic units:
                           1         2         3
     Eigenvalues --  2111.776376663.605577156.33611
           X            0.99425   0.08359   0.06695
           Y           -0.00899  -0.55781   0.82992
           Z           -0.10672   0.82575   0.55385
 This molecule is an asymmetric top.
 Rotational symmetry number  1.
 Warning -- assumption of classical behavior for rotation
           may cause significant error
 Rotational temperatures (Kelvin)      0.04101     0.01300     0.01210
 Rotational constants (GHZ):           0.85461     0.27084     0.25219
 Zero-point vibrational energy     594022.9 (Joules/Mol)
                                  141.97487 (Kcal/Mol)
 Warning -- explicit consideration of  25 degrees of freedom as
           vibrations may cause significant error
 Vibrational temperatures:     43.71    71.50    94.18   146.48   173.20
          (Kelvin)            180.55   201.10   225.15   262.19   285.83
                              346.46   378.53   476.93   495.64   499.31
                              545.21   584.96   604.02   662.05   682.96
                              692.35   773.17   815.46   856.73   873.25
                              914.24   965.37  1041.44  1065.84  1071.36
                             1109.48  1119.16  1169.42  1187.91  1213.25
                             1269.17  1332.76  1353.31  1383.29  1430.24
                             1449.46  1470.85  1495.84  1518.08  1529.31
                             1534.49  1627.53  1656.22  1689.66  1690.17
                             1725.93  1744.67  1795.45  1866.42  1879.56
                             1899.08  1917.90  1993.21  2009.63  2026.92
                             2046.65  2090.52  2095.86  2120.45  2137.65
                             2140.34  2157.59  2168.36  2257.95  2301.96
                             2316.11  2344.05  4288.99  4361.53  4379.93
                             4438.99  4462.29  4468.42  4471.59  4502.71
                             4529.99  4546.67  4564.23  4578.69

 Zero-point correction=                           0.226251 (Hartree/Particle)
 Thermal correction to Energy=                    0.242216
 Thermal correction to Enthalpy=                  0.243160
 Thermal correction to Gibbs Free Energy=         0.182370
 Sum of electronic and zero-point Energies=           -804.730107
 Sum of electronic and thermal Energies=              -804.714143
 Sum of electronic and thermal Enthalpies=            -804.713199
 Sum of electronic and thermal Free Energies=         -804.773989

                     E (Thermal)             CV                S
                      KCal/Mol        Cal/Mol-Kelvin    Cal/Mol-Kelvin
 Total                  151.993             61.032            127.943
 Electronic               0.000              0.000              0.000
 Translational            0.889              2.981             42.329
 Rotational               0.889              2.981             32.976
 Vibrational            150.215             55.070             52.638
 Vibration     1          0.594              1.984              5.804
 Vibration     2          0.595              1.978              4.830
 Vibration     3          0.597              1.971              4.285
 Vibration     4          0.604              1.948              3.419
 Vibration     5          0.609              1.932              3.094
 Vibration     6          0.610              1.928              3.014
 Vibration     7          0.615              1.914              2.807
 Vibration     8          0.620              1.895              2.592
 Vibration     9          0.630              1.864              2.305
 Vibration    10          0.637              1.842              2.145
 Vibration    11          0.658              1.778              1.797
 Vibration    12          0.670              1.740              1.641
 Vibration    13          0.714              1.613              1.253
 Vibration    14          0.723              1.586              1.191
 Vibration    15          0.725              1.581              1.180
 Vibration    16          0.749              1.515              1.043
 Vibration    17          0.771              1.456              0.939
 Vibration    18          0.782              1.427              0.893
 Vibration    19          0.818              1.338              0.766
 Vibration    20          0.831              1.306              0.725
 Vibration    21          0.838              1.292              0.707
 Vibration    22          0.892              1.167              0.571
 Vibration    23          0.923              1.103              0.510
 Vibration    24          0.953              1.041              0.458
 Vibration    25          0.966              1.017              0.438

 Optimization completed.
    -- Stationary point found.
 Normal termination of Gaussian 16 at Sat Feb 10 14:24:49 2024.
