 Gaussian 16, Revision A.03,
 Gaussian 16:  ES64L-G16RevA.03 25-Dec-2016

 ----------------------------------------------------------------
 #P UB3LYP/6-311++G(d,p) SCRF=(PCM,Solvent=n,n-DiMethylFormamide)
 ----------------------------------------------------------------

 ------------------
 Quinone PCM in DMF
 ------------------
 Symbolic Z-matrix:
 Charge =  0 Multiplicity = 1

                         Standard orientation:
 ---------------------------------------------------------------------
 Center     Atomic      Atomic             Coordinates (Angstroms)
 Number     Number       Type             X           Y           Z
 ---------------------------------------------------------------------
      1         17           0       -2.246333   -0.988882    0.000003
      2          6           0       -0.637075   -0.346105    0.000002
      3          6           0        0.444819   -1.138558   -0.000002
      4          6           0        1.813033   -0.569925   -0.000001
      5          8           0        2.794379   -1.293371   -0.000007
      6          6           0        1.943345    0.909264    0.000005
      7          6           0        0.864065    1.699816    0.000009
      8          6           0       -0.516787    1.153127    0.000011
      9          8           0       -1.486408    1.881288   -0.000018
     10          1           0        0.371739   -2.219157   -0.000005
     11          1           0        2.955025    1.299074    0.000004
     12          1           0        0.928726    2.782026    0.000007
 ---------------------------------------------------------------------

 SCF Done:  E(UB3LYP) =  -841.190772019     A.U. after   15 cycles

 The electronic state is 1-A.
 Alpha  occ. eigenvalues -- -101.58162 -19.15843 -19.15264 -10.30663 -10.29911
 Alpha  occ. eigenvalues --  -10.27955 -10.22452 -10.22299 -10.22164  -9.49613
 Alpha  occ. eigenvalues --   -7.26084  -7.25121  -7.25022  -1.09229  -1.08281
 Alpha  occ. eigenvalues --   -0.91565  -0.85912  -0.78945  -0.72046  -0.65032
 Alpha  occ. eigenvalues --   -0.61743  -0.54240  -0.52479  -0.50014  -0.47611
 Alpha  occ. eigenvalues --   -0.46903  -0.46370  -0.44783  -0.43489  -0.42287
 Alpha  occ. eigenvalues --   -0.38537  -0.34252  -0.32211  -0.30612  -0.29610
 Alpha  occ. eigenvalues --   -0.29509
 Alpha virt. eigenvalues --   -0.14793  -0.04431  -0.01370  -0.00360  -0.00109
 Alpha virt. eigenvalues --    0.01180   0.01918   0.04319   0.04837   0.04968
 Alpha virt. eigenvalues --    0.05882   0.07267   0.07896   0.08297   0.08578

  Beta  occ. eigenvalues -- -101.58162 -19.15843 -19.15264 -10.30663 -10.29911
  Beta  occ. eigenvalues --  -10.27955 -10.22452 -10.22299 -10.22164  -9.49613
  Beta  occ. eigenvalues --   -7.26084  -7.25121  -7.25022  -1.09229  -1.08281
  Beta  occ. eigenvalues --   -0.91565  -0.85912  -0.78945  -0.72046  -0.65032
  Beta  occ. eigenvalues --   -0.61743  -0.54240  -0.52479  -0.50014  -0.47611
  Beta  occ. eigenvalues --   -0.46903  -0.46370  -0.44783  -0.43489  -0.42287
  Beta  occ. eigenvalues --   -0.38537  -0.34252  -0.32211  -0.30612  -0.29610
  Beta  occ. eigenvalues --   -0.29509
  Beta virt. eigenvalues --   -0.14793  -0.04431  -0.01370  -0.00360  -0.00109
  Beta virt. eigenvalues --    0.01180   0.01918   0.04319   0.04837   0.04968
  Beta virt. eigenvalues --    0.05882   0.07267   0.07896   0.08297   0.08578

 Mulliken charges and spin densities:
               1          2
     1  Cl   0.305532  -0.000000
     2  C    0.985014   0.000000
     3  C   -0.304949   0.000000
     4  C   -0.539180  -0.000000
     5  O   -0.284203   0.000000
     6  C    0.134336   0.000000
     7  C    0.070357   0.000000
     8  C   -0.886413  -0.000000
     9  O   -0.235419   0.000000
    10  H    0.250092   0.000000
    11  H    0.251675  -0.000000
    12  H    0.253160   0.000000
 Sum of Mulliken charges =  -0.00000  -0.00000

 Dipole moment (field-independent basis, Debye):
    X=              1.3063    Y=              0.7561    Z=              0.0001  Tot=              1.5093
 Quadrupole moment (field-independent basis, Debye-Ang):
   XX=            -69.1433   YY=            -58.3468   ZZ=            -57.4445
   XY=             13.2605   XZ=             -0.0000   YZ=              0.0001

 Normal termination of Gaussian 16 at Sun Jan 21 06:41:47 2024.
