 Gaussian 16, Revision A.03,
 Gaussian 16:  ES64L-G16RevA.03 25-Dec-2016

 --------------------------------------
 #P UB3LYP/6-311++G(d,p) nosym opt freq
 --------------------------------------

 --------
 Oxidized
 --------
 Symbolic Z-matrix:
 Charge =  0 Multiplicity = 1

 SCF Done:  E(UB3LYP) =  -841.181394368     A.U. after   16 cycles
 Optimization completed.
    -- Stationary point found.
 Normal termination of Gaussian 16 at Sat Jan  6 05:37:41 2024.

 ----------------------------------------------------------------------
 #P Geom=AllCheck Guess=TCheck SCRF=Check GenChk UB3LYP/6-311++G(d,p) F
 req
 ----------------------------------------------------------------------

 Structure from the checkpoint file:  "003.chk"
 --------
 Oxidized
 --------
 Charge =  0 Multiplicity = 1

                          Input orientation:
 ---------------------------------------------------------------------
 Center     Atomic      Atomic             Coordinates (Angstroms)
 Number     Number       Type             X           Y           Z
 ---------------------------------------------------------------------
      1         17           0        3.106208   -0.188321    0.031564
      2          6           0        1.381212   -0.024118    0.014239
      3          6           0        0.781393    1.175335    0.012102
      4          6           0       -0.695344    1.295257   -0.002798
      5          8           0       -1.237296    2.387364   -0.004702
      6          6           0       -1.487519    0.039357   -0.015283
      7          6           0       -0.889155   -1.157210   -0.013152
      8          6           0        0.588787   -1.302426    0.001677
      9          8           0        1.118157   -2.393365    0.003420
     10          1           0        1.340435    2.102927    0.021055
     11          1           0       -2.565431    0.155284   -0.026064
     12          1           0       -1.441447   -2.090084   -0.022058
 ---------------------------------------------------------------------

 SCF Done:  E(UB3LYP) =  -841.181394368     A.U. after    1 cycles

 Alpha  occ. eigenvalues -- -101.58446 -19.16020 -19.15435 -10.30941 -10.30228
 Alpha  occ. eigenvalues --  -10.28576 -10.23371 -10.23239 -10.23140  -9.49891
 Alpha  occ. eigenvalues --   -7.26371  -7.25399  -7.25290  -1.09357  -1.08428
 Alpha  occ. eigenvalues --   -0.92049  -0.86695  -0.79734  -0.72681  -0.65797
 Alpha  occ. eigenvalues --   -0.62448  -0.54835  -0.52913  -0.50442  -0.48500
 Alpha  occ. eigenvalues --   -0.47435  -0.46588  -0.45027  -0.43719  -0.43005
 Alpha  occ. eigenvalues --   -0.38916  -0.34439  -0.32964  -0.30678  -0.30229
 Alpha  occ. eigenvalues --   -0.29666
 Alpha virt. eigenvalues --   -0.15262  -0.05431  -0.01873  -0.01171  -0.00721
 Alpha virt. eigenvalues --    0.00325   0.01790   0.03337   0.04066   0.04691
 Alpha virt. eigenvalues --    0.06227   0.06397   0.07433   0.08166   0.08451

  Beta  occ. eigenvalues -- -101.58446 -19.16020 -19.15435 -10.30941 -10.30228
  Beta  occ. eigenvalues --  -10.28576 -10.23371 -10.23239 -10.23140  -9.49891
  Beta  occ. eigenvalues --   -7.26371  -7.25399  -7.25290  -1.09357  -1.08428
  Beta  occ. eigenvalues --   -0.92049  -0.86695  -0.79734  -0.72681  -0.65797
  Beta  occ. eigenvalues --   -0.62448  -0.54835  -0.52913  -0.50442  -0.48500
  Beta  occ. eigenvalues --   -0.47435  -0.46588  -0.45027  -0.43719  -0.43005
  Beta  occ. eigenvalues --   -0.38916  -0.34439  -0.32964  -0.30678  -0.30229
  Beta  occ. eigenvalues --   -0.29666
  Beta virt. eigenvalues --   -0.15262  -0.05431  -0.01873  -0.01171  -0.00721
  Beta virt. eigenvalues --    0.00325   0.01790   0.03337   0.04066   0.04691
  Beta virt. eigenvalues --    0.06227   0.06397   0.07433   0.08166   0.08451

 Mulliken charges and spin densities:
               1          2
     1  Cl   0.338093  -0.000000
     2  C    0.964950   0.000000
     3  C   -0.326905  -0.000000
     4  C   -0.600357  -0.000000
     5  O   -0.224099   0.000000
     6  C    0.149766   0.000000
     7  C    0.084620   0.000000
     8  C   -0.907831  -0.000000
     9  O   -0.170935  -0.000000
    10  H    0.231764  -0.000000
    11  H    0.229903  -0.000000
    12  H    0.231031  -0.000000
 Sum of Mulliken charges =  -0.00000  -0.00000

 Dipole moment (field-independent basis, Debye):
    X=             -1.1242    Y=             -0.1604    Z=             -0.0122  Tot=              1.1357
 Quadrupole moment (field-independent basis, Debye-Ang):
   XX=            -57.5043   YY=            -69.1973   ZZ=            -57.5703
   XY=             10.1006   XZ=              0.0351   YZ=              0.0650

  Exact polarizability: 107.398 -23.909 111.769   0.560  -0.022  45.494
 Approx polarizability: 164.960 -73.268 223.372   0.751  -0.232  68.458

                      1                      2                      3
                      A                      A                      A
 Frequencies --     80.0559               145.5868               231.6843
 Red. masses --      8.2262                 6.8943                16.4601
 Frc consts  --      0.0311                 0.0861                 0.5206
 IR Inten    --     10.0986                 2.8225                 0.1488

                      4                      5                      6
                      A                      A                      A
 Frequencies --    255.3476               342.7234               390.3386
 Red. masses --      4.9071                17.8087                 3.7812
 Frc consts  --      0.1885                 1.2325                 0.3394
 IR Inten    --      0.0069                 1.8456                 0.6276

                      7                      8                      9
                      A                      A                      A
 Frequencies --    431.3185               467.5259               559.5482
 Red. masses --      8.7740                10.5637                 5.4716
 Frc consts  --      0.9617                 1.3604                 1.0094
 IR Inten    --     20.0178                 4.4130                10.6975

                     10                     11                     12
                      A                      A                      A
 Frequencies --    598.0717               640.7387               775.4131
 Red. masses --      2.4833                 7.5909                 4.8076
 Frc consts  --      0.5233                 1.8361                 1.7031
 IR Inten    --      1.3610                 9.2078                 0.2525

                     13                     14                     15
                      A                      A                      A
 Frequencies --    780.8375               835.9235               849.8790
 Red. masses --      5.1460                 1.8167                 5.3921
 Frc consts  --      1.8486                 0.7479                 2.2947
 IR Inten    --      0.4239                13.4937                17.4540

                     16                     17                     18
                      A                      A                      A
 Frequencies --    916.1435               999.8779              1004.4953
 Red. masses --      1.5699                 4.7042                 1.2375
 Frc consts  --      0.7763                 2.7709                 0.7357
 IR Inten    --     53.3133               131.5652                 0.0009

                     19                     20                     21
                      A                      A                      A
 Frequencies --   1109.8120              1203.4622              1284.7757
 Red. masses --      1.5504                 1.6825                 3.1618
 Frc consts  --      1.1251                 1.4357                 3.0750
 IR Inten    --     24.4206                 3.5493               101.7947

                     22                     23                     24
                      A                      A                      A
 Frequencies --   1320.9880              1384.0864              1628.6619
 Red. masses --      2.0420                 1.7946                 8.6224
 Frc consts  --      2.0995                 2.0256                13.4754
 IR Inten    --     20.2739                 5.2346                98.4588

                     25                     26                     27
                      A                      A                      A
 Frequencies --   1675.8764              1722.5668              1744.2013
 Red. masses --      8.1348                10.1708                12.0403
 Frc consts  --     13.4611                17.7811                21.5814
 IR Inten    --      0.9779               218.6749               250.7180

                     28                     29                     30
                      A                      A                      A
 Frequencies --   3180.5410              3197.5882              3201.4654
 Red. masses --      1.0875                 1.0991                 1.0938
 Frc consts  --      6.4814                 6.6213                 6.6053
 IR Inten    --      0.3415                 1.0079                 0.5190

 - Thermochemistry -
 -------------------
 Temperature   298.150 Kelvin.  Pressure   1.00000 Atm.
 Atom     1 has atomic number 17 and mass  34.96885

 Molecular mass:   141.98216 amu.
 Principal axes and moments of inertia in atomic units:
                           1         2         3
     Eigenvalues --   761.922641608.530522370.45317
           X            0.88246   0.47027  -0.01037
           Y           -0.47032   0.88249  -0.00341
           Z            0.00755   0.00788   0.99994
 This molecule is an asymmetric top.
 Rotational symmetry number  1.
 Warning -- assumption of classical behavior for rotation
           may cause significant error
 Rotational temperatures (Kelvin)      0.11368     0.05385     0.03654
 Rotational constants (GHZ):           2.36867     1.12198     0.76135
 Zero-point vibrational energy     197141.8 (Joules/Mol)
                                   47.11802 (Kcal/Mol)
 Warning -- explicit consideration of  10 degrees of freedom as
           vibrations may cause significant error
 Vibrational temperatures:    115.18   209.47   333.34   367.39   493.10
          (Kelvin)            561.61   620.57   672.67   805.07   860.49
                              921.88  1115.65  1123.45  1202.71  1222.79
                             1318.13  1438.60  1445.24  1596.77  1731.51
                             1848.51  1900.61  1991.39  2343.28  2411.21
                             2478.39  2509.52  4576.09  4600.62  4606.19

 Zero-point correction=                           0.075087 (Hartree/Particle)
 Thermal correction to Energy=                    0.082545
 Thermal correction to Enthalpy=                  0.083489
 Thermal correction to Gibbs Free Energy=         0.042215
 Sum of electronic and zero-point Energies=           -841.106307
 Sum of electronic and thermal Energies=              -841.098850
 Sum of electronic and thermal Enthalpies=            -841.097906
 Sum of electronic and thermal Free Energies=         -841.139179

                     E (Thermal)             CV                S
                      KCal/Mol        Cal/Mol-Kelvin    Cal/Mol-Kelvin
 Total                   51.797             27.085             86.867
 Electronic               0.000              0.000              0.000
 Translational            0.889              2.981             40.763
 Rotational               0.889              2.981             29.453
 Vibrational             50.020             21.124             16.651
 Vibration     1          0.600              1.963              3.890
 Vibration     2          0.617              1.907              2.729
 Vibration     3          0.653              1.793              1.866
 Vibration     4          0.666              1.754              1.693
 Vibration     5          0.722              1.590              1.199
 Vibration     6          0.758              1.491              0.999
 Vibration     7          0.792              1.402              0.854
 Vibration     8          0.825              1.322              0.745
 Vibration     9          0.915              1.119              0.525
 Vibration    10          0.956              1.036              0.453

 Optimization completed.
    -- Stationary point found.
 Normal termination of Gaussian 16 at Sat Jan  6 05:40:03 2024.
