 Gaussian 16, Revision A.03,
 Gaussian 16:  ES64L-G16RevA.03 25-Dec-2016

 ----------------------------------------------------------------
 #P UB3LYP/6-311++G(d,p) SCRF=(PCM,Solvent=n,n-DiMethylFormamide)
 ----------------------------------------------------------------

 ------------------
 Radical PCM in DMF
 ------------------
 Symbolic Z-matrix:
 Charge = -2 Multiplicity = 2

                         Standard orientation:
 ---------------------------------------------------------------------
 Center     Atomic      Atomic             Coordinates (Angstroms)
 Number     Number       Type             X           Y           Z
 ---------------------------------------------------------------------
      1          6           0        3.902232   -2.247995   -0.096922
      2          6           0        5.205533   -1.790731   -0.077524
      3          6           0        5.459839   -0.402085    0.018521
      4          6           0        2.810248   -1.354423   -0.026501
      5          6           0        3.064170    0.036915    0.067459
      6          6           0        4.405245    0.485497    0.092378
      7          6           0        1.448910   -1.881156   -0.037924
      8          6           0        1.983586    1.016400    0.146850
      9          6           0        0.346424   -0.923068    0.010303
     10          6           0        0.604901    0.504246    0.047557
     11          6           0       -1.016544   -1.415787   -0.008140
     12          6           0       -2.082007   -0.487186   -0.028920
     13          6           0       -1.816685    0.875709   -0.047767
     14          6           0       -0.521261    1.359274   -0.005393
     15          8           0        1.288000   -3.141127   -0.097794
     16          8           0        2.257890    2.232761    0.296553
     17          1           0        3.672779   -3.305115   -0.164699
     18          1           0        6.032693   -2.493748   -0.133735
     19          1           0        6.483560   -0.036399    0.034639
     20          1           0        4.566203    1.554688    0.170370
     21         35           0       -0.428688    3.307173   -0.100408
     22          7           0       -1.276283   -2.748301   -0.001082
     23         16           0       -3.839155   -0.998293    0.047666
     24          8           0       -3.919698   -2.241642   -0.787846
     25          8           0       -4.126731   -1.255869    1.483430
     26          8           0       -4.601994    0.143940   -0.519495
     27          1           0       -2.655791    1.555762   -0.104690
     28          1           0       -0.463228   -3.349418   -0.105603
     29          1           0       -2.218940   -3.024192   -0.259753
 ---------------------------------------------------------------------

 SCF Done:  E(UB3LYP) =  -3941.47519225     A.U. after   22 cycles

 The electronic state is 2-A.
 Alpha  occ. eigenvalues -- -482.81582 -89.04472 -62.46856 -56.28889 -56.28522
 Alpha  occ. eigenvalues --  -56.28481 -19.08973 -19.08942 -19.08823 -19.07942
 Alpha  occ. eigenvalues --  -19.07272 -14.30269 -10.23108 -10.22935 -10.22640
 Alpha  occ. eigenvalues --  -10.21787 -10.18987 -10.18646 -10.18278 -10.18058
 Alpha  occ. eigenvalues --  -10.17368 -10.17307 -10.17271 -10.17215 -10.16974
 Alpha  occ. eigenvalues --  -10.16917  -8.67818  -8.10335  -6.50938  -6.49721
 Alpha  occ. eigenvalues --   -6.49607  -6.06620  -6.06598  -6.06502  -2.62032
 Alpha  occ. eigenvalues --   -2.61709  -2.61623  -2.60652  -2.60651  -1.10688
 Alpha  occ. eigenvalues --   -1.00664  -1.00212  -0.97253  -0.96943  -0.92016
 Alpha  occ. eigenvalues --   -0.86090  -0.85152  -0.79466  -0.78104  -0.74997
 Alpha  occ. eigenvalues --   -0.74595  -0.71357  -0.67280  -0.64784  -0.63064
 Alpha  occ. eigenvalues --   -0.59946  -0.57349  -0.55815  -0.55002  -0.52077
 Alpha  occ. eigenvalues --   -0.50680  -0.48623  -0.47940  -0.47056  -0.45480
 Alpha  occ. eigenvalues --   -0.44997  -0.44420  -0.44081  -0.42753  -0.42277
 Alpha  occ. eigenvalues --   -0.42084  -0.41098  -0.40585  -0.39141  -0.38804
 Alpha  occ. eigenvalues --   -0.38243  -0.36489  -0.35542  -0.34731  -0.33784
 Alpha  occ. eigenvalues --   -0.33625  -0.33254  -0.33016  -0.30164  -0.29662
 Alpha  occ. eigenvalues --   -0.29058  -0.28566  -0.28418  -0.26500  -0.25580
 Alpha  occ. eigenvalues --   -0.25557  -0.25024  -0.24558  -0.22783  -0.20950
 Alpha  occ. eigenvalues --   -0.14084
 Alpha virt. eigenvalues --   -0.05012  -0.02843  -0.01233  -0.00024   0.00019
 Alpha virt. eigenvalues --    0.00828   0.01507   0.02317   0.02674   0.04018
 Alpha virt. eigenvalues --    0.04167   0.04403   0.04543   0.04792   0.05315

  Beta  occ. eigenvalues -- -482.81580 -89.04474 -62.46854 -56.28889 -56.28515
  Beta  occ. eigenvalues --  -56.28481 -19.08973 -19.08936 -19.08808 -19.07476
  Beta  occ. eigenvalues --  -19.06682 -14.30260 -10.22954 -10.22939 -10.22476
  Beta  occ. eigenvalues --  -10.21723 -10.18877 -10.18500 -10.18259 -10.18014
  Beta  occ. eigenvalues --  -10.17336 -10.17261 -10.17204 -10.17154 -10.16979
  Beta  occ. eigenvalues --  -10.16907  -8.67814  -8.10338  -6.50939  -6.49710
  Beta  occ. eigenvalues --   -6.49605  -6.06621  -6.06599  -6.06507  -2.62031
  Beta  occ. eigenvalues --   -2.61703  -2.61623  -2.60646  -2.60645  -1.10676
  Beta  occ. eigenvalues --   -0.99853  -0.99191  -0.97247  -0.96919  -0.91942
  Beta  occ. eigenvalues --   -0.85843  -0.85013  -0.79162  -0.77913  -0.74804
  Beta  occ. eigenvalues --   -0.74424  -0.71121  -0.66709  -0.64580  -0.62817
  Beta  occ. eigenvalues --   -0.59853  -0.57243  -0.55626  -0.54817  -0.51979
  Beta  occ. eigenvalues --   -0.50550  -0.48526  -0.47730  -0.46861  -0.45431
  Beta  occ. eigenvalues --   -0.44949  -0.44337  -0.43978  -0.42240  -0.41985
  Beta  occ. eigenvalues --   -0.41760  -0.40624  -0.40318  -0.38926  -0.38137
  Beta  occ. eigenvalues --   -0.36550  -0.36360  -0.35419  -0.33868  -0.33557
  Beta  occ. eigenvalues --   -0.33418  -0.33211  -0.32504  -0.29956  -0.29631
  Beta  occ. eigenvalues --   -0.28966  -0.28441  -0.27926  -0.25528  -0.25010
  Beta  occ. eigenvalues --   -0.24778  -0.24499  -0.24159  -0.22328  -0.20142
  Beta virt. eigenvalues --   -0.08476  -0.04044  -0.01807  -0.01122  -0.00008
  Beta virt. eigenvalues --    0.00289   0.00832   0.01520   0.02337   0.02680
  Beta virt. eigenvalues --    0.04042   0.04322   0.04511   0.04784   0.05072

 Mulliken charges and spin densities:
               1          2
     1  C    0.109593   0.020079
     2  C   -0.544315   0.036729
     3  C   -0.427943   0.023880
     4  C   -0.126953   0.014228
     5  C    0.091428   0.026824
     6  C    0.106873   0.037731
     7  C   -0.420261   0.095916
     8  C   -1.126352   0.089579
     9  C    0.359664   0.007458
    10  C    0.892825   0.074832
    11  C    0.345429  -0.001317
    12  C   -1.046143   0.087377
    13  C   -0.229787   0.034764
    14  C    0.340062   0.062812
    15  O   -0.438740   0.170806
    16  O   -0.359272   0.216917
    17  H    0.167565  -0.000622
    18  H    0.183119  -0.003047
    19  H    0.182590  -0.001953
    20  H    0.167937  -0.002524
    21  Br  -0.201201   0.004887
    22  N   -0.453238   0.005968
    23  S    0.659294  -0.002802
    24  O   -0.431396   0.003221
    25  O   -0.343220   0.003840
    26  O   -0.354071   0.000284
    27  H    0.259026  -0.002814
    28  H    0.352308  -0.002199
    29  H    0.285178  -0.000855
 Sum of Mulliken charges =  -2.00000   1.00000

 Dipole moment (field-independent basis, Debye):
    X=             14.5231    Y=              3.3014    Z=             -1.3423  Tot=             14.9540
 Quadrupole moment (field-independent basis, Debye-Ang):
   XX=           -258.0267   YY=           -197.9178   ZZ=           -164.2943
   XY=            -23.9125   XZ=              0.9397   YZ=              0.5219

 Normal termination of Gaussian 16 at Sun Jan 14 01:36:57 2024.
