 Gaussian 16, Revision A.03,
 Gaussian 16:  ES64L-G16RevA.03 25-Dec-2016

 ----------------------------------------------------------------------
 #P UB3LYP/6-311++G(d,p) nosym opt freq SCRF=(PCM,Solvent=n,n-DiMethylF
 ormamide)
 ----------------------------------------------------------------------

 --------
 Oxidized
 --------
 Symbolic Z-matrix:
 Charge =  0 Multiplicity = 1

 SCF Done:  E(UB3LYP) =  -1035.66442107     A.U. after   14 cycles
 SCF Done:  E(UB3LYP) =  -1035.66469092     A.U. after   12 cycles
 SCF Done:  E(UB3LYP) =  -1035.66479609     A.U. after   12 cycles
 SCF Done:  E(UB3LYP) =  -1035.66482895     A.U. after   10 cycles
 SCF Done:  E(UB3LYP) =  -1035.66482703     A.U. after   10 cycles
 SCF Done:  E(UB3LYP) =  -1035.66483172     A.U. after    9 cycles
 SCF Done:  E(UB3LYP) =  -1035.66483463     A.U. after    9 cycles
 SCF Done:  E(UB3LYP) =  -1035.66483482     A.U. after    8 cycles
 SCF Done:  E(UB3LYP) =  -1035.66483493     A.U. after    8 cycles
 SCF Done:  E(UB3LYP) =  -1035.66483498     A.U. after    8 cycles
 Optimization completed.
    -- Stationary point found.
 Normal termination of Gaussian 16 at Sat Feb 10 17:22:50 2024.

 ----------------------------------------------------------------------
 #P Geom=AllCheck Guess=TCheck SCRF=Check GenChk UB3LYP/6-311++G(d,p) F
 req
 ----------------------------------------------------------------------

 Structure from the checkpoint file:  "173.chk"
 --------
 Oxidized
 --------
 Charge =  0 Multiplicity = 1

                          Input orientation:
 ---------------------------------------------------------------------
 Center     Atomic      Atomic             Coordinates (Angstroms)
 Number     Number       Type             X           Y           Z
 ---------------------------------------------------------------------
      1          6           0       -1.411102    2.262463   -3.988888
      2          6           0       -1.394172    0.880350   -4.110469
      3          6           0       -1.141170    0.081662   -2.987820
      4          6           0       -1.176102    2.869582   -2.746038
      5          6           0       -0.922877    2.069423   -1.621355
      6          6           0       -0.907745    0.672823   -1.754411
      7          6           0       -1.200956    4.346602   -2.638047
      8          6           0       -0.669100    2.679574   -0.295819
      9          6           0       -0.953717    4.955732   -1.340661
     10          6           0       -0.689196    4.129133   -0.179368
     11          6           0       -0.974300    6.377108   -1.218219
     12          6           0       -0.722186    6.937223    0.073503
     13          6           0       -0.476014    6.162090    1.162904
     14          6           0       -0.444766    4.733979    1.089617
     15          8           0       -1.435978    5.016485   -3.670803
     16          8           0       -0.444743    1.921562    0.676672
     17          1           0       -1.605348    2.893962   -4.846113
     18          1           0       -1.576601    0.418899   -5.074261
     19          1           0       -1.127804   -0.998139   -3.082420
     20          1           0       -0.710280    0.070509   -0.877151
     21          1           0       -0.297676    6.649208    2.111203
     22          1           0       -0.726963    8.011049    0.196717
     23          7           0       -1.235575    7.193131   -2.267496
     24          7           0       -0.174313    4.007539    2.200583
     25          1           0       -1.376979    6.700436   -3.147977
     26          1           0       -0.199554    3.000110    2.050555
     27          6           0        0.028588    4.513843    3.561491
     28          6           0        0.846465    3.482011    4.342400
     29          6           0       -1.304850    4.823506    4.259240
     30          6           0       -1.219990    8.659173   -2.273837
     31          6           0        0.209171    9.213642   -2.377538
     32          6           0       -2.097771    9.144927   -3.430050
     33          1           0        0.619553    5.432467    3.502907
     34          1           0        1.026860    3.837548    5.358970
     35          1           0        1.811745    3.302274    3.863540
     36          1           0        0.309687    2.530382    4.408760
     37          1           0       -1.895423    5.546123    3.691376
     38          1           0       -1.124265    5.238994    5.254335
     39          1           0       -1.897296    3.910680    4.369105
     40          1           0       -1.670519    9.012746   -1.341884
     41          1           0        0.839259    8.851352   -1.561978
     42          1           0        0.195483   10.306171   -2.337207
     43          1           0        0.667227    8.909217   -3.322965
     44          1           0       -1.705770    8.792942   -4.389503
     45          1           0       -2.116175   10.236444   -3.454595
     46          1           0       -3.123524    8.784936   -3.322348
 ---------------------------------------------------------------------

 SCF Done:  E(UB3LYP) =  -1035.66483498     A.U. after    1 cycles

 Alpha  occ. eigenvalues --  -19.10862 -19.10860 -14.33608 -14.33608 -10.26160
 Alpha  occ. eigenvalues --  -10.26159 -10.24183 -10.24181 -10.22049 -10.22047
 Alpha  occ. eigenvalues --  -10.19787 -10.19717 -10.19654 -10.19602 -10.19426
 Alpha  occ. eigenvalues --  -10.19389 -10.19028 -10.18977 -10.18777 -10.18776
 Alpha  occ. eigenvalues --  -10.16621 -10.16620 -10.16418 -10.16418  -1.03960
 Alpha  occ. eigenvalues --   -1.03724  -0.95823  -0.95248  -0.88023  -0.85965
 Alpha  occ. eigenvalues --   -0.80621  -0.80299  -0.78377  -0.76844  -0.76066
 Alpha  occ. eigenvalues --   -0.72676  -0.69759  -0.69632  -0.68146  -0.66151
 Alpha  occ. eigenvalues --   -0.65073  -0.61937  -0.60605  -0.60351  -0.58828
 Alpha  occ. eigenvalues --   -0.54993  -0.54692  -0.53350  -0.51086  -0.50189
 Alpha  occ. eigenvalues --   -0.49037  -0.48338  -0.47483  -0.46138  -0.45721
 Alpha  occ. eigenvalues --   -0.45493  -0.44695  -0.44172  -0.43827  -0.43669
 Alpha  occ. eigenvalues --   -0.42937  -0.42399  -0.42242  -0.41498  -0.40213
 Alpha  occ. eigenvalues --   -0.39864  -0.39597  -0.39311  -0.39009  -0.37969
 Alpha  occ. eigenvalues --   -0.37757  -0.36948  -0.36780  -0.36386  -0.35755
 Alpha  occ. eigenvalues --   -0.35706  -0.35304  -0.34818  -0.33160  -0.28345
 Alpha  occ. eigenvalues --   -0.27637  -0.27127  -0.26987  -0.26259  -0.26071
 Alpha  occ. eigenvalues --   -0.19342
 Alpha virt. eigenvalues --   -0.10695  -0.05769  -0.03193  -0.00981  -0.00532
 Alpha virt. eigenvalues --   -0.00112  -0.00078   0.01058   0.01407   0.01513
 Alpha virt. eigenvalues --    0.01663   0.01997   0.02714   0.03479   0.03642

  Beta  occ. eigenvalues --  -19.10862 -19.10860 -14.33608 -14.33608 -10.26160
  Beta  occ. eigenvalues --  -10.26159 -10.24183 -10.24181 -10.22049 -10.22047
  Beta  occ. eigenvalues --  -10.19787 -10.19717 -10.19654 -10.19602 -10.19426
  Beta  occ. eigenvalues --  -10.19389 -10.19028 -10.18977 -10.18777 -10.18776
  Beta  occ. eigenvalues --  -10.16621 -10.16620 -10.16418 -10.16418  -1.03960
  Beta  occ. eigenvalues --   -1.03724  -0.95823  -0.95248  -0.88023  -0.85965
  Beta  occ. eigenvalues --   -0.80621  -0.80299  -0.78377  -0.76844  -0.76066
  Beta  occ. eigenvalues --   -0.72676  -0.69759  -0.69632  -0.68146  -0.66151
  Beta  occ. eigenvalues --   -0.65073  -0.61937  -0.60605  -0.60351  -0.58828
  Beta  occ. eigenvalues --   -0.54993  -0.54692  -0.53350  -0.51086  -0.50189
  Beta  occ. eigenvalues --   -0.49037  -0.48338  -0.47483  -0.46138  -0.45721
  Beta  occ. eigenvalues --   -0.45493  -0.44695  -0.44172  -0.43827  -0.43669
  Beta  occ. eigenvalues --   -0.42937  -0.42399  -0.42242  -0.41498  -0.40213
  Beta  occ. eigenvalues --   -0.39864  -0.39597  -0.39311  -0.39009  -0.37969
  Beta  occ. eigenvalues --   -0.37757  -0.36948  -0.36780  -0.36386  -0.35755
  Beta  occ. eigenvalues --   -0.35706  -0.35304  -0.34818  -0.33160  -0.28345
  Beta  occ. eigenvalues --   -0.27637  -0.27127  -0.26987  -0.26259  -0.26071
  Beta  occ. eigenvalues --   -0.19342
  Beta virt. eigenvalues --   -0.10695  -0.05769  -0.03193  -0.00981  -0.00532
  Beta virt. eigenvalues --   -0.00112  -0.00078   0.01058   0.01407   0.01513
  Beta virt. eigenvalues --    0.01663   0.01997   0.02714   0.03479   0.03642

 Mulliken charges and spin densities:
               1          2
     1  C   -0.078737  -0.000000
     2  C   -0.359361   0.000000
     3  C   -0.359073  -0.000000
     4  C    0.400472   0.000000
     5  C    0.400267   0.000000
     6  C   -0.078660  -0.000000
     7  C   -0.297987  -0.000000
     8  C   -0.297323  -0.000000
     9  C    0.019217   0.000000
    10  C    0.019247   0.000000
    11  C   -0.446485   0.000000
    12  C    0.039412  -0.000000
    13  C    0.039038  -0.000000
    14  C   -0.446643   0.000000
    15  O   -0.358959   0.000000
    16  O   -0.359388   0.000000
    17  H    0.176727  -0.000000
    18  H    0.199480   0.000000
    19  H    0.199481  -0.000000
    20  H    0.176479  -0.000000
    21  H    0.232120  -0.000000
    22  H    0.232348  -0.000000
    23  N   -0.039450   0.000000
    24  N   -0.039297  -0.000000
    25  H    0.413015   0.000000
    26  H    0.412990   0.000000
    27  C    0.047891   0.000000
    28  C   -0.534888  -0.000000
    29  C   -0.502450  -0.000000
    30  C    0.047972   0.000000
    31  C   -0.502430  -0.000000
    32  C   -0.534875  -0.000000
    33  H    0.148673   0.000000
    34  H    0.168849   0.000000
    35  H    0.161080  -0.000000
    36  H    0.151532  -0.000000
    37  H    0.141123   0.000000
    38  H    0.151310   0.000000
    39  H    0.167530   0.000000
    40  H    0.148638  -0.000000
    41  H    0.141025   0.000000
    42  H    0.151306   0.000000
    43  H    0.167518  -0.000000
    44  H    0.151357  -0.000000
    45  H    0.168801   0.000000
    46  H    0.161110   0.000000
 Sum of Mulliken charges =  -0.00000   0.00000

 Dipole moment (field-independent basis, Debye):
    X=              0.5948    Y=              5.3646    Z=              3.6807  Tot=              6.5330
 Quadrupole moment (field-independent basis, Debye-Ang):
   XX=           -148.5255   YY=            -71.1489   ZZ=           -133.6465
   XY=             -0.1133   XZ=             -0.2028   YZ=             22.8258

  Exact polarizability: 225.280   4.430 560.625  54.541  64.557 502.584
 Approx polarizability: 254.394   2.902 630.154  63.552  67.092 568.643

                      1                      2                      3
                      A                      A                      A
 Frequencies --     29.6130                33.3572                38.7733
 Red. masses --      4.3823                 3.1056                 4.3983
 Frc consts  --      0.0023                 0.0020                 0.0039
 IR Inten    --      6.9045                 1.0691                 0.0841

                      4                      5                      6
                      A                      A                      A
 Frequencies --     56.1070                71.8147                83.6087
 Red. masses --      2.7883                 4.3304                 4.3270
 Frc consts  --      0.0052                 0.0132                 0.0178
 IR Inten    --      0.1133                 1.5398                 0.2675

                      7                      8                      9
                      A                      A                      A
 Frequencies --     99.8044               116.0800               131.9210
 Red. masses --      3.2798                 3.7306                 5.7710
 Frc consts  --      0.0192                 0.0296                 0.0592
 IR Inten    --      0.3617                 0.0108                 0.1245

                     10                     11                     12
                      A                      A                      A
 Frequencies --    138.1491               183.4197               222.2195
 Red. masses --      4.4798                 6.8552                 1.3898
 Frc consts  --      0.0504                 0.1359                 0.0404
 IR Inten    --      0.3570                 1.0038                 0.3909

                     13                     14                     15
                      A                      A                      A
 Frequencies --    225.9493               230.4108               233.4726
 Red. masses --      1.0570                 1.4253                 3.6650
 Frc consts  --      0.0318                 0.0446                 0.1177
 IR Inten    --      1.0812                 0.3230                 6.4269

                     16                     17                     18
                      A                      A                      A
 Frequencies --    245.6171               252.9154               265.2829
 Red. masses --      3.0675                 1.1114                 4.1998
 Frc consts  --      0.1090                 0.0419                 0.1741
 IR Inten    --      1.0679                 0.0576                 5.1150

                     19                     20                     21
                      A                      A                      A
 Frequencies --    273.1909               318.5070               341.3908
 Red. masses --      1.6570                 3.6097                 4.6587
 Frc consts  --      0.0729                 0.2158                 0.3199
 IR Inten    --      0.7356                 1.6329                 6.3464

                     22                     23                     24
                      A                      A                      A
 Frequencies --    374.1429               391.4064               394.8724
 Red. masses --      3.6980                 3.4932                 4.0816
 Frc consts  --      0.3050                 0.3153                 0.3750
 IR Inten    --      5.0945                18.9825                 2.7326

                     25                     26                     27
                      A                      A                      A
 Frequencies --    419.6604               420.4393               435.0280
 Red. masses --      3.9643                 3.0951                 6.1365
 Frc consts  --      0.4114                 0.3224                 0.6842
 IR Inten    --      1.6390                 2.3685                 0.9532

                     28                     29                     30
                      A                      A                      A
 Frequencies --    437.3383               443.5029               467.8997
 Red. masses --      3.5533                11.5544                 4.7055
 Frc consts  --      0.4004                 1.3390                 0.6070
 IR Inten    --      5.6196                28.4937                73.5851

                     31                     32                     33
                      A                      A                      A
 Frequencies --    477.0474               493.8173               507.7772
 Red. masses --      2.7974                 4.5629                 4.4018
 Frc consts  --      0.3751                 0.6556                 0.6687
 IR Inten    --     11.9994                14.4537                 0.1406

                     34                     35                     36
                      A                      A                      A
 Frequencies --    515.1339               578.5751               617.4696
 Red. masses --      4.7841                 2.4084                 5.8538
 Frc consts  --      0.7480                 0.4750                 1.3150
 IR Inten    --     19.1466                66.2490                 8.9346

                     37                     38                     39
                      A                      A                      A
 Frequencies --    637.8266               665.8107               679.4595
 Red. masses --      6.0183                 2.2496                 1.2750
 Frc consts  --      1.4425                 0.5876                 0.3468
 IR Inten    --      0.7963                 2.3971               135.0771

                     40                     41                     42
                      A                      A                      A
 Frequencies --    680.7511               688.2685               725.6201
 Red. masses --      3.7744                 1.6550                 6.6934
 Frc consts  --      1.0306                 0.4619                 2.0764
 IR Inten    --     37.3836                 6.7588                 1.2977

                     43                     44                     45
                      A                      A                      A
 Frequencies --    740.6070               741.4470               785.6156
 Red. masses --      1.9216                 5.7240                 5.0210
 Frc consts  --      0.6210                 1.8540                 1.8258
 IR Inten    --    175.7970                 7.6930                 5.2926

                     46                     47                     48
                      A                      A                      A
 Frequencies --    799.4274               812.1865               835.5532
 Red. masses --      6.0961                 2.1392                 2.8505
 Frc consts  --      2.2954                 0.8314                 1.1725
 IR Inten    --      0.1048                18.1061                 0.1527

                     49                     50                     51
                      A                      A                      A
 Frequencies --    837.6947               843.0766               871.6828
 Red. masses --      1.9959                 2.3400                 4.4733
 Frc consts  --      0.8252                 0.9799                 2.0026
 IR Inten    --     33.5842                19.3196                 1.5112

                     52                     53                     54
                      A                      A                      A
 Frequencies --    901.0660               907.1706               936.6642
 Red. masses --      4.2572                 1.4122                 1.2460
 Frc consts  --      2.0365                 0.6848                 0.6441
 IR Inten    --     14.4572                 0.0057                 0.8647

                     55                     56                     57
                      A                      A                      A
 Frequencies --    937.3973               939.0194               954.3008
 Red. masses --      1.2503                 3.5408                 1.4209
 Frc consts  --      0.6473                 1.8395                 0.7624
 IR Inten    --      3.0436                 4.4057                16.5192

                     58                     59                     60
                      A                      A                      A
 Frequencies --    956.9638               968.8486               987.1820
 Red. masses --      1.4814                 2.4987                 1.3149
 Frc consts  --      0.7993                 1.3819                 0.7550
 IR Inten    --      5.2266                71.9351                 0.7266

                     61                     62                     63
                      A                      A                      A
 Frequencies --    999.0520              1017.3234              1037.0849
 Red. masses --      1.3800                 1.3145                 2.4377
 Frc consts  --      0.8115                 0.8016                 1.5448
 IR Inten    --      2.3320                 0.0023                 6.2567

                     64                     65                     66
                      A                      A                      A
 Frequencies --   1046.5725              1088.6713              1113.8766
 Red. masses --      2.4030                 2.2809                 2.2702
 Frc consts  --      1.5507                 1.5928                 1.6596
 IR Inten    --    143.9750               311.3517                 8.7512

                     67                     68                     69
                      A                      A                      A
 Frequencies --   1135.2757              1135.6745              1167.0100
 Red. masses --      2.1338                 2.1599                 2.5266
 Frc consts  --      1.6203                 1.6413                 2.0273
 IR Inten    --     37.6977                18.8064                74.5498

                     70                     71                     72
                      A                      A                      A
 Frequencies --   1170.1791              1183.6609              1184.6992
 Red. masses --      1.2779                 1.8336                 1.9285
 Frc consts  --      1.0310                 1.5136                 1.5947
 IR Inten    --      0.9225                 0.5013                63.9186

                     73                     74                     75
                      A                      A                      A
 Frequencies --   1186.6473              1195.7464              1197.1852
 Red. masses --      2.1737                 2.3895                 1.5473
 Frc consts  --      1.8034                 2.0130                 1.3066
 IR Inten    --    199.0149                14.6656               672.0867

                     76                     77                     78
                      A                      A                      A
 Frequencies --   1255.5167              1268.7074              1291.8789
 Red. masses --      1.8589                 5.3128                 1.8191
 Frc consts  --      1.7264                 5.0384                 1.7888
 IR Inten    --      1.2914              1359.1623               277.8052

                     79                     80                     81
                      A                      A                      A
 Frequencies --   1312.1694              1332.2476              1353.8007
 Red. masses --      2.0819                 2.3862                 5.9973
 Frc consts  --      2.1120                 2.4953                 6.4761
 IR Inten    --     14.3431               203.9482                 2.9944

                     82                     83                     84
                      A                      A                      A
 Frequencies --   1356.0570              1356.5411              1358.9973
 Red. masses --      1.6111                 1.3550                 1.9224
 Frc consts  --      1.7455                 1.4691                 2.0918
 IR Inten    --     41.9998                22.0056               207.5565

                     85                     86                     87
                      A                      A                      A
 Frequencies --   1389.2795              1393.2315              1397.0854
 Red. masses --      1.3859                 1.6577                 1.2875
 Frc consts  --      1.5760                 1.8958                 1.4806
 IR Inten    --     42.2855                39.5990                23.2604

                     88                     89                     90
                      A                      A                      A
 Frequencies --   1397.9296              1413.1350              1413.7904
 Red. masses --      1.3084                 1.4994                 1.8504
 Frc consts  --      1.5065                 1.7641                 2.1792
 IR Inten    --     20.6565                41.5741               105.9284

                     91                     92                     93
                      A                      A                      A
 Frequencies --   1415.6055              1423.2107              1477.7001
 Red. masses --      1.4277                 4.1490                 1.0465
 Frc consts  --      1.6856                 4.9515                 1.3463
 IR Inten    --      6.4290                98.0845                10.2546

                     94                     95                     96
                      A                      A                      A
 Frequencies --   1477.7983              1481.2537              1482.1913
 Red. masses --      1.0411                 1.0751                 1.3019
 Frc consts  --      1.3396                 1.3898                 1.6851
 IR Inten    --      1.1504                 3.9539                12.4482

                     97                     98                     99
                      A                      A                      A
 Frequencies --   1482.6947              1488.9902              1489.8650
 Red. masses --      1.6881                 1.0703                 1.0654
 Frc consts  --      2.1865                 1.3981                 1.3933
 IR Inten    --     31.3460                 1.7734                21.1821

                    100                    101                    102
                      A                      A                      A
 Frequencies --   1498.3976              1499.2968              1500.8151
 Red. masses --      1.0822                 1.0691                 2.5297
 Frc consts  --      1.4315                 1.4159                 3.3572
 IR Inten    --     19.3512                 8.7361                 0.4583

                    103                    104                    105
                      A                      A                      A
 Frequencies --   1523.5943              1543.1545              1583.6285
 Red. masses --      4.4083                 3.3728                 3.6363
 Frc consts  --      6.0292                 4.7321                 5.3730
 IR Inten    --      1.2323               558.1673               914.7539

                    106                    107                    108
                      A                      A                      A
 Frequencies --   1583.9019              1591.0257              1619.8671
 Red. masses --      4.1296                 2.0967                 4.6291
 Frc consts  --      6.1040                 3.1271                 7.1565
 IR Inten    --   1030.2190                18.5527               382.7116

                    109                    110                    111
                      A                      A                      A
 Frequencies --   1639.0007              1674.3684              3024.2149
 Red. masses --      6.4368                 6.8370                 1.0354
 Frc consts  --     10.1877                11.2932                 5.5792
 IR Inten    --     69.5028               148.0010                34.4342

                    112                    113                    114
                      A                      A                      A
 Frequencies --   3024.4794              3027.6684              3027.8195
 Red. masses --      1.0352                 1.0401                 1.0399
 Frc consts  --      5.5792                 5.6176                 5.6172
 IR Inten    --     34.7277                54.0019                27.1501

                    115                    116                    117
                      A                      A                      A
 Frequencies --   3037.8972              3038.0652              3089.5257
 Red. masses --      1.0802                 1.0803                 1.1016
 Frc consts  --      5.8733                 5.8749                 6.1952
 IR Inten    --     28.6096                51.7414                 9.2916

                    118                    119                    120
                      A                      A                      A
 Frequencies --   3089.9477              3095.3576              3095.6538
 Red. masses --      1.1016                 1.1012                 1.1013
 Frc consts  --      6.1970                 6.2167                 6.2182
 IR Inten    --      9.1246                99.9603               102.8543

                    121                    122                    123
                      A                      A                      A
 Frequencies --   3097.8654              3098.2201              3107.1926
 Red. masses --      1.1023                 1.1022                 1.1024
 Frc consts  --      6.2328                 6.2337                 6.2707
 IR Inten    --     55.3114                43.8284                53.2336

                    124                    125                    126
                      A                      A                      A
 Frequencies --   3107.3401              3171.8849              3185.4922
 Red. masses --      1.1024                 1.0872                 1.0921
 Frc consts  --      6.2713                 6.4447                 6.5296
 IR Inten    --     56.3744                 5.0212                25.2792

                    127                    128                    129
                      A                      A                      A
 Frequencies --   3203.3439              3205.9844              3206.7527
 Red. masses --      1.0921                 1.0939                 1.0866
 Frc consts  --      6.6027                 6.6245                 6.5833
 IR Inten    --      6.1057                27.6576                 4.8167

                    130                    131                    132
                      A                      A                      A
 Frequencies --   3221.5842              3410.6296              3414.7742
 Red. masses --      1.0944                 1.0792                 1.0790
 Frc consts  --      6.6920                 7.3964                 7.4130
 IR Inten    --     17.6885                47.0643                72.0749

 - Thermochemistry -
 -------------------
 Temperature   298.150 Kelvin.  Pressure   1.00000 Atm.
 Atom     1 has atomic number  6 and mass  12.00000

 Molecular mass:   322.16813 amu.
 Principal axes and moments of inertia in atomic units:
                           1         2         3
     Eigenvalues --  7834.054998277.64383**********
           X            0.14450   0.09045   0.98536
           Y           -0.57097   0.82093   0.00837
           Z            0.80816   0.56382  -0.17026
 This molecule is an asymmetric top.
 Rotational symmetry number  1.
 Warning -- assumption of classical behavior for rotation
           may cause significant error
 Rotational temperatures (Kelvin)      0.01106     0.01046     0.00558
 Rotational constants (GHZ):           0.23037     0.21803     0.11636
 Zero-point vibrational energy     998920.3 (Joules/Mol)
                                  238.74769 (Kcal/Mol)
 Warning -- explicit consideration of  36 degrees of freedom as
           vibrations may cause significant error
 Vibrational temperatures:     42.61    47.99    55.79    80.73   103.33
          (Kelvin)            120.29   143.60   167.01   189.80   198.77
                              263.90   319.72   325.09   331.51   335.92
                              353.39   363.89   381.68   393.06   458.26
                              491.19   538.31   563.15   568.13   603.80
                              604.92   625.91   629.23   638.10   673.20
                              686.36   710.49   730.58   741.16   832.44
                              888.40   917.69   957.95   977.59   979.45
                              990.26  1044.01  1065.57  1066.78  1130.33
                             1150.20  1168.56  1202.17  1205.26  1213.00
                             1254.16  1296.43  1305.22  1347.65  1348.71
                             1351.04  1373.03  1376.86  1393.96  1420.33
                             1437.41  1463.70  1492.13  1505.78  1566.36
                             1602.62  1633.41  1633.98  1679.07  1683.63
                             1703.02  1704.52  1707.32  1720.41  1722.48
                             1806.41  1825.39  1858.73  1887.92  1916.81
                             1947.82  1951.06  1951.76  1955.29  1998.86
                             2004.55  2010.09  2011.31  2033.19  2034.13
                             2036.74  2047.68  2126.08  2126.22  2131.19
                             2132.54  2133.27  2142.32  2143.58  2155.86
                             2157.15  2159.34  2192.11  2220.26  2278.49
                             2278.88  2289.13  2330.63  2358.16  2409.04
                             4351.17  4351.55  4356.14  4356.36  4370.86
                             4371.10  4445.14  4445.75  4453.53  4453.96
                             4457.14  4457.65  4470.56  4470.77  4563.63
                             4583.21  4608.90  4612.70  4613.80  4635.14
                             4907.14  4913.10

 Zero-point correction=                           0.380469 (Hartree/Particle)
 Thermal correction to Energy=                    0.402654
 Thermal correction to Enthalpy=                  0.403598
 Thermal correction to Gibbs Free Energy=         0.328928
 Sum of electronic and zero-point Energies=          -1035.284366
 Sum of electronic and thermal Energies=             -1035.262181
 Sum of electronic and thermal Enthalpies=           -1035.261237
 Sum of electronic and thermal Free Energies=        -1035.335907

                     E (Thermal)             CV                S
                      KCal/Mol        Cal/Mol-Kelvin    Cal/Mol-Kelvin
 Total                  252.669             86.990            157.157
 Electronic               0.000              0.000              0.000
 Translational            0.889              2.981             43.205
 Rotational               0.889              2.981             35.263
 Vibrational            250.891             81.028             78.689
 Vibration     1          0.593              1.984              5.855
 Vibration     2          0.594              1.983              5.619
 Vibration     3          0.594              1.981              5.321
 Vibration     4          0.596              1.975              4.590
 Vibration     5          0.598              1.967              4.103
 Vibration     6          0.601              1.960              3.804
 Vibration     7          0.604              1.949              3.458
 Vibration     8          0.608              1.936              3.165
 Vibration     9          0.612              1.921              2.918
 Vibration    10          0.614              1.915              2.829
 Vibration    11          0.631              1.862              2.293
 Vibration    12          0.648              1.807              1.941
 Vibration    13          0.650              1.801              1.911
 Vibration    14          0.652              1.795              1.876
 Vibration    15          0.654              1.790              1.852
 Vibration    16          0.660              1.770              1.762
 Vibration    17          0.664              1.758              1.710
 Vibration    18          0.671              1.737              1.627
 Vibration    19          0.676              1.723              1.576
 Vibration    20          0.705              1.638              1.318
 Vibration    21          0.721              1.593              1.206
 Vibration    22          0.745              1.525              1.063
 Vibration    23          0.759              1.489              0.995
 Vibration    24          0.762              1.481              0.982
 Vibration    25          0.782              1.428              0.893
 Vibration    26          0.783              1.426              0.890
 Vibration    27          0.796              1.394              0.842
 Vibration    28          0.798              1.389              0.835
 Vibration    29          0.803              1.375              0.816
 Vibration    30          0.825              1.321              0.743
 Vibration    31          0.834              1.301              0.718
 Vibration    32          0.849              1.264              0.674
 Vibration    33          0.863              1.233              0.639
 Vibration    34          0.870              1.216              0.621
 Vibration    35          0.935              1.078              0.488
 Vibration    36          0.977              0.995              0.421

                           ! Non-Optimized Parameters !
 Normal termination of Gaussian 16 at Sat Feb 10 19:55:41 2024.
