 Gaussian 16, Revision A.03,
 Gaussian 16:  ES64L-G16RevA.03 25-Dec-2016

 ----------------------------------------------------------------
 #P UB3LYP/6-311++G(d,p) SCRF=(PCM,Solvent=n,n-DiMethylFormamide)
 ----------------------------------------------------------------

 ------------------
 Quinone PCM in DMF
 ------------------
 Symbolic Z-matrix:
 Charge =  0 Multiplicity = 1

                         Standard orientation:
 ---------------------------------------------------------------------
 Center     Atomic      Atomic             Coordinates (Angstroms)
 Number     Number       Type             X           Y           Z
 ---------------------------------------------------------------------
      1          6           0        2.087747    1.228798    0.126623
      2          6           0        0.622185    1.333451   -0.161341
      3          6           0       -0.091520    0.211578   -0.401515
      4          6           0        0.575807   -1.125672   -0.324182
      5          6           0        2.045752   -1.227577   -0.069906
      6          6           0        2.761026   -0.102543    0.146526
      7          8           0        2.737301    2.241842    0.341864
      8          8           0       -0.095908   -2.139473   -0.466344
      9          6           0        4.235964   -0.072994    0.422139
     10          6           0        2.634183   -2.614418   -0.062333
     11          6           0        0.080570    2.734157   -0.163801
     12          6           0       -1.562680    0.180178   -0.735985
     13          6           0       -2.437079   -0.200490    0.469842
     14          6           0       -3.924364   -0.083719    0.167383
     15          8           0       -4.390124    0.483347   -0.780354
     16          8           0       -4.749272   -0.656076    1.088164
     17          1           0        4.672568   -1.069806    0.421102
     18          1           0        4.434231    0.400006    1.388086
     19          1           0        4.750128    0.539852   -0.323595
     20          1           0        1.857762   -3.352583   -0.253805
     21          1           0        3.097496   -2.842387    0.901800
     22          1           0        3.406991   -2.717902   -0.829278
     23          1           0        0.354534    3.243516    0.763213
     24          1           0       -1.000647    2.765110   -0.278010
     25          1           0        0.535443    3.316041   -0.971103
     26          1           0       -1.728080   -0.558194   -1.522987
     27          1           0       -1.894239    1.139911   -1.127006
     28          1           0       -2.227215    0.459618    1.321033
     29          1           0       -2.204077   -1.219936    0.791778
     30          1           0       -4.236435   -1.104866    1.771450
 ---------------------------------------------------------------------

 SCF Done:  E(UB3LYP) =  -766.846435605     A.U. after   14 cycles

 The electronic state is 1-A.
 Alpha  occ. eigenvalues --  -19.18238 -19.13701 -19.13610 -19.13079 -10.32319
 Alpha  occ. eigenvalues --  -10.28163 -10.27969 -10.21425 -10.21163 -10.21090
 Alpha  occ. eigenvalues --  -10.20977 -10.20068 -10.18921 -10.17595 -10.17460
 Alpha  occ. eigenvalues --  -10.17275  -1.12171  -1.06977  -1.06774  -1.04482
 Alpha  occ. eigenvalues --   -0.86930  -0.83605  -0.79479  -0.75016  -0.73647
 Alpha  occ. eigenvalues --   -0.70725  -0.66418  -0.65391  -0.62683  -0.58026
 Alpha  occ. eigenvalues --   -0.57695  -0.54636  -0.53189  -0.49470  -0.48468
 Alpha  occ. eigenvalues --   -0.47876  -0.46779  -0.46536  -0.45011  -0.43539
 Alpha  occ. eigenvalues --   -0.43512  -0.42748  -0.42432  -0.42152  -0.41134
 Alpha  occ. eigenvalues --   -0.40900  -0.40058  -0.39429  -0.39322  -0.38811
 Alpha  occ. eigenvalues --   -0.38511  -0.37064  -0.36090  -0.34383  -0.30384
 Alpha  occ. eigenvalues --   -0.29414  -0.29064  -0.27219  -0.26885
 Alpha virt. eigenvalues --   -0.12758  -0.01935  -0.01700  -0.01108  -0.00400
 Alpha virt. eigenvalues --    0.00252   0.00537   0.01258   0.02115   0.02489
 Alpha virt. eigenvalues --    0.02932   0.03593   0.03834   0.04639   0.04934

  Beta  occ. eigenvalues --  -19.18238 -19.13701 -19.13610 -19.13079 -10.32319
  Beta  occ. eigenvalues --  -10.28163 -10.27969 -10.21425 -10.21163 -10.21090
  Beta  occ. eigenvalues --  -10.20977 -10.20068 -10.18921 -10.17595 -10.17460
  Beta  occ. eigenvalues --  -10.17275  -1.12171  -1.06977  -1.06774  -1.04482
  Beta  occ. eigenvalues --   -0.86930  -0.83605  -0.79479  -0.75016  -0.73647
  Beta  occ. eigenvalues --   -0.70725  -0.66418  -0.65391  -0.62683  -0.58026
  Beta  occ. eigenvalues --   -0.57695  -0.54636  -0.53189  -0.49470  -0.48468
  Beta  occ. eigenvalues --   -0.47876  -0.46779  -0.46536  -0.45011  -0.43539
  Beta  occ. eigenvalues --   -0.43512  -0.42748  -0.42432  -0.42152  -0.41134
  Beta  occ. eigenvalues --   -0.40900  -0.40058  -0.39429  -0.39322  -0.38811
  Beta  occ. eigenvalues --   -0.38511  -0.37064  -0.36090  -0.34383  -0.30384
  Beta  occ. eigenvalues --   -0.29414  -0.29064  -0.27219  -0.26885
  Beta virt. eigenvalues --   -0.12758  -0.01935  -0.01700  -0.01108  -0.00400
  Beta virt. eigenvalues --    0.00252   0.00537   0.01258   0.02115   0.02489
  Beta virt. eigenvalues --    0.02932   0.03593   0.03834   0.04639   0.04934

 Mulliken charges and spin densities:
               1          2
     1  C   -0.723941  -0.000000
     2  C    0.758177   0.000000
     3  C    0.814677  -0.000000
     4  C   -1.166293   0.000000
     5  C    0.254229  -0.000000
     6  C    0.560864   0.000000
     7  O   -0.257029  -0.000000
     8  O   -0.261357  -0.000000
     9  C   -0.443100  -0.000000
    10  C   -0.557098  -0.000000
    11  C   -0.477550   0.000000
    12  C   -0.322681   0.000000
    13  C   -0.387405   0.000000
    14  C   -0.035815  -0.000000
    15  O   -0.327260  -0.000000
    16  O   -0.204494  -0.000000
    17  H    0.169418  -0.000000
    18  H    0.185195   0.000000
    19  H    0.187611  -0.000000
    20  H    0.192768  -0.000000
    21  H    0.181086   0.000000
    22  H    0.181876   0.000000
    23  H    0.184678  -0.000000
    24  H    0.135770  -0.000000
    25  H    0.200499  -0.000000
    26  H    0.221259  -0.000000
    27  H    0.213395  -0.000000
    28  H    0.221599   0.000000
    29  H    0.203564   0.000000
    30  H    0.297359  -0.000000
 Sum of Mulliken charges =  -0.00000   0.00000

 Dipole moment (field-independent basis, Debye):
    X=              4.2291    Y=             -1.9050    Z=              3.2544  Tot=              5.6662
 Quadrupole moment (field-independent basis, Debye-Ang):
   XX=           -119.7579   YY=           -100.9051   ZZ=            -90.8531
   XY=             -6.6877   XZ=            -13.1817   YZ=             -4.2839

 Normal termination of Gaussian 16 at Sun Jan 21 07:03:15 2024.
