 Gaussian 16, Revision A.03,
 Gaussian 16:  ES64L-G16RevA.03 25-Dec-2016

 --------------------------------------
 #P UB3LYP/6-311++G(d,p) nosym opt freq
 --------------------------------------

 --------
 Oxidized
 --------
 Symbolic Z-matrix:
 Charge =  0 Multiplicity = 1

 SCF Done:  E(UB3LYP) =  -1485.29590357     A.U. after   16 cycles
 SCF Done:  E(UB3LYP) =  -1485.30243364     A.U. after   14 cycles
 SCF Done:  E(UB3LYP) =  -1485.30283311     A.U. after   13 cycles
 SCF Done:  E(UB3LYP) =  -1485.30286608     A.U. after   12 cycles
 SCF Done:  E(UB3LYP) =  -1485.30285298     A.U. after   12 cycles
 SCF Done:  E(UB3LYP) =  -1485.30287002     A.U. after   12 cycles
 SCF Done:  E(UB3LYP) =  -1485.30287264     A.U. after   11 cycles
 Optimization completed.
    -- Stationary point found.
 Normal termination of Gaussian 16 at Sun Dec 17 21:01:47 2023.

 ----------------------------------------------------------------------
 #P Geom=AllCheck Guess=TCheck SCRF=Check GenChk UB3LYP/6-311++G(d,p) F
 req
 ----------------------------------------------------------------------

 Structure from the checkpoint file:  "002.chk"
 --------
 Oxidized
 --------
 Charge =  0 Multiplicity = 1

                          Input orientation:
 ---------------------------------------------------------------------
 Center     Atomic      Atomic             Coordinates (Angstroms)
 Number     Number       Type             X           Y           Z
 ---------------------------------------------------------------------
      1          6           0        0.049640    1.701313   -0.000048
      2          6           0       -1.217732    0.908291   -0.000799
      3          6           0       -1.206042   -0.443697    0.000190
      4          6           0        0.074857   -1.214686    0.002010
      5          6           0        1.354722   -0.423069    0.002919
      6          6           0        1.343003    0.931945    0.001911
      7          8           0        0.057366    2.908061   -0.001113
      8          8           0        0.103441   -2.421122    0.002884
      9          6           0        2.536531    1.708318    0.002643
     10          6           0        2.561501   -1.178681    0.004827
     11          7           0        3.504942    2.336704    0.003249
     12          7           0        3.540645   -1.790207    0.006383
     13         17           0       -2.664443    1.833376   -0.002978
     14         17           0       -2.636543   -1.393658   -0.000589
 ---------------------------------------------------------------------

 SCF Done:  E(UB3LYP) =  -1485.30287264     A.U. after    2 cycles

 Alpha  occ. eigenvalues -- -101.61471-101.61471 -19.19648 -19.19648 -14.37217
 Alpha  occ. eigenvalues --  -14.37216 -10.35209 -10.35208 -10.32203 -10.32130
 Alpha  occ. eigenvalues --  -10.31408 -10.31336 -10.26366 -10.26363  -9.52910
 Alpha  occ. eigenvalues --   -9.52909  -7.29417  -7.29417  -7.28419  -7.28419
 Alpha  occ. eigenvalues --   -7.28275  -7.28275  -1.13552  -1.13320  -0.97893
 Alpha  occ. eigenvalues --   -0.97078  -0.96262  -0.92225  -0.91702  -0.82960
 Alpha  occ. eigenvalues --   -0.79557  -0.71606  -0.69456  -0.62168  -0.61039
 Alpha  occ. eigenvalues --   -0.58773  -0.53573  -0.52726  -0.51294  -0.50122
 Alpha  occ. eigenvalues --   -0.49345  -0.48339  -0.45715  -0.42159  -0.41721
 Alpha  occ. eigenvalues --   -0.41638  -0.40793  -0.39780  -0.39204  -0.38905
 Alpha  occ. eigenvalues --   -0.38303  -0.36228  -0.34823  -0.34817  -0.33999
 Alpha  occ. eigenvalues --   -0.31821
 Alpha virt. eigenvalues --   -0.19809  -0.12441  -0.06891  -0.05721  -0.03616
 Alpha virt. eigenvalues --   -0.02036  -0.01755   0.00577   0.00586   0.00706
 Alpha virt. eigenvalues --    0.01745   0.01807   0.02765   0.03158   0.04967

  Beta  occ. eigenvalues -- -101.61471-101.61471 -19.19648 -19.19648 -14.37217
  Beta  occ. eigenvalues --  -14.37216 -10.35209 -10.35208 -10.32203 -10.32130
  Beta  occ. eigenvalues --  -10.31408 -10.31336 -10.26366 -10.26363  -9.52910
  Beta  occ. eigenvalues --   -9.52909  -7.29417  -7.29417  -7.28419  -7.28419
  Beta  occ. eigenvalues --   -7.28275  -7.28275  -1.13552  -1.13320  -0.97893
  Beta  occ. eigenvalues --   -0.97078  -0.96262  -0.92225  -0.91702  -0.82960
  Beta  occ. eigenvalues --   -0.79557  -0.71606  -0.69456  -0.62168  -0.61039
  Beta  occ. eigenvalues --   -0.58773  -0.53573  -0.52726  -0.51294  -0.50122
  Beta  occ. eigenvalues --   -0.49345  -0.48339  -0.45715  -0.42159  -0.41721
  Beta  occ. eigenvalues --   -0.41638  -0.40793  -0.39780  -0.39204  -0.38905
  Beta  occ. eigenvalues --   -0.38303  -0.36228  -0.34823  -0.34817  -0.33999
  Beta  occ. eigenvalues --   -0.31821
  Beta virt. eigenvalues --   -0.19809  -0.12441  -0.06891  -0.05721  -0.03616
  Beta virt. eigenvalues --   -0.02036  -0.01755   0.00577   0.00586   0.00706
  Beta virt. eigenvalues --    0.01745   0.01807   0.02765   0.03158   0.04967

 Mulliken charges and spin densities:
               1          2
     1  C   -1.537761   0.000000
     2  C    0.579888  -0.000000
     3  C    0.579978  -0.000000
     4  C   -1.537816  -0.000000
     5  C    1.902208   0.000000
     6  C    1.902307   0.000000
     7  O   -0.106495   0.000000
     8  O   -0.106498   0.000000
     9  C   -1.268797   0.000000
    10  C   -1.268797  -0.000000
    11  N   -0.103717  -0.000000
    12  N   -0.103714   0.000000
    13  Cl   0.534604  -0.000000
    14  Cl   0.534609  -0.000000
 Sum of Mulliken charges =  -0.00000   0.00000

 Dipole moment (field-independent basis, Debye):
    X=             -4.4216    Y=             -0.0383    Z=             -0.0045  Tot=              4.4218
 Quadrupole moment (field-independent basis, Debye-Ang):
   XX=           -107.6342   YY=           -110.3012   ZZ=            -87.7812
   XY=             -1.0506   XZ=             -0.0264   YZ=              0.0159

  Exact polarizability: 163.522  -0.154 181.322   0.108  -0.088  63.011
 Approx polarizability: 234.162  -1.326 387.542   0.148  -0.217  97.834

                      1                      2                      3
                      A                      A                      A
 Frequencies --     46.2577                56.6975                79.9988
 Red. masses --     16.3673                17.5261                18.6084
 Frc consts  --      0.0206                 0.0332                 0.0702
 IR Inten    --      0.1150                 0.0000                 0.0000

                      4                      5                      6
                      A                      A                      A
 Frequencies --    120.0332               143.9899               147.9877
 Red. masses --     14.0115                15.4027                13.4024
 Frc consts  --      0.1189                 0.1882                 0.1729
 IR Inten    --      1.4456                 2.7564                20.5684

                      7                      8                      9
                      A                      A                      A
 Frequencies --    207.6311               254.1498               257.0509
 Red. masses --     31.5261                12.7523                19.6063
 Frc consts  --      0.8008                 0.4853                 0.7633
 IR Inten    --      0.0144                 0.9227                 0.8562

                     10                     11                     12
                      A                      A                      A
 Frequencies --    292.9218               319.1181               343.3659
 Red. masses --     12.4742                15.7556                18.7909
 Frc consts  --      0.6306                 0.9453                 1.3053
 IR Inten    --      0.0000                 0.3542                 0.0136

                     13                     14                     15
                      A                      A                      A
 Frequencies --    379.6810               428.6524               468.8234
 Red. masses --     15.0861                13.9662                13.7206
 Frc consts  --      1.2813                 1.5120                 1.7768
 IR Inten    --     10.4039                 0.5019                 4.9666

                     16                     17                     18
                      A                      A                      A
 Frequencies --    474.8314               490.0849               504.2749
 Red. masses --     12.3282                12.1956                15.2641
 Frc consts  --      1.6377                 1.7258                 2.2870
 IR Inten    --      0.0000                 0.0346                 0.9411

                     19                     20                     21
                      A                      A                      A
 Frequencies --    525.9505               637.8595               748.6350
 Red. masses --     12.9290                12.0816                12.1845
 Frc consts  --      2.1072                 2.8962                 4.0235
 IR Inten    --      0.0997                 0.0000                 8.4421

                     22                     23                     24
                      A                      A                      A
 Frequencies --    765.9751               776.9684               796.1017
 Red. masses --     12.1332                12.4586                13.5616
 Frc consts  --      4.1943                 4.4313                 5.0640
 IR Inten    --      0.0000                 1.4093               159.6638

                     25                     26                     27
                      A                      A                      A
 Frequencies --    886.3184               968.2258              1051.2894
 Red. masses --     13.0958                12.4571                12.4732
 Frc consts  --      6.0612                 6.8805                 8.1222
 IR Inten    --     28.3245                 2.1288                 0.4383

                     28                     29                     30
                      A                      A                      A
 Frequencies --   1167.7219              1241.7878              1319.9275
 Red. masses --     12.1159                12.0938                12.0906
 Frc consts  --      9.7339                10.9877                12.4108
 IR Inten    --    239.6480               153.6997                 4.5369

                     31                     32                     33
                      A                      A                      A
 Frequencies --   1592.6125              1643.6421              1749.0718
 Red. masses --     12.0216                12.0346                13.2986
 Frc consts  --     17.9652                19.1557                23.9702
 IR Inten    --    177.5183                 0.5296                 3.2285

                     34                     35                     36
                      A                      A                      A
 Frequencies --   1752.4538              2336.6974              2346.9155
 Red. masses --     13.2618                12.6792                12.6739
 Frc consts  --     23.9963                40.7893                41.1298
 IR Inten    --    363.4698                 7.3329                 6.4654

 - Thermochemistry -
 -------------------
 Temperature   298.150 Kelvin.  Pressure   1.00000 Atm.
 Atom     1 has atomic number  6 and mass  12.00000

 Molecular mass:   225.93368 amu.
 Principal axes and moments of inertia in atomic units:
                           1         2         3
     Eigenvalues --  2326.596183830.506476157.10264
           X            0.99996  -0.00865  -0.00107
           Y            0.00865   0.99996   0.00074
           Z            0.00106  -0.00075   1.00000
 This molecule is an asymmetric top.
 Rotational symmetry number  1.
 Warning -- assumption of classical behavior for rotation
           may cause significant error
 Rotational temperatures (Kelvin)      0.03723     0.02261     0.01407
 Rotational constants (GHZ):           0.77570     0.47115     0.29312
 Zero-point vibrational energy     163432.0 (Joules/Mol)
                                   39.06120 (Kcal/Mol)
 Warning -- explicit consideration of  19 degrees of freedom as
           vibrations may cause significant error
 Vibrational temperatures:     66.55    81.58   115.10   172.70   207.17
          (Kelvin)            212.92   298.73   365.66   369.84   421.45
                              459.14   494.03   546.28   616.74   674.53
                              683.18   705.12   725.54   756.73   917.74
                             1077.12  1102.07  1117.88  1145.41  1275.21
                             1393.06  1512.57  1680.09  1786.66  1899.08
                             2291.41  2364.83  2516.52  2521.39  3361.99
                             3376.69

 Zero-point correction=                           0.062248 (Hartree/Particle)
 Thermal correction to Energy=                    0.074649
 Thermal correction to Enthalpy=                  0.075593
 Thermal correction to Gibbs Free Energy=         0.021909
 Sum of electronic and zero-point Energies=          -1485.240625
 Sum of electronic and thermal Energies=             -1485.228224
 Sum of electronic and thermal Enthalpies=           -1485.227280
 Sum of electronic and thermal Free Energies=        -1485.280964

                     E (Thermal)             CV                S
                      KCal/Mol        Cal/Mol-Kelvin    Cal/Mol-Kelvin
 Total                   46.843             42.839            112.988
 Electronic               0.000              0.000              0.000
 Translational            0.889              2.981             42.148
 Rotational               0.889              2.981             32.373
 Vibrational             45.065             36.877             38.467
 Vibration     1          0.595              1.979              4.971
 Vibration     2          0.596              1.975              4.569
 Vibration     3          0.600              1.963              3.891
 Vibration     4          0.609              1.933              3.100
 Vibration     5          0.616              1.909              2.750
 Vibration     6          0.617              1.905              2.698
 Vibration     7          0.641              1.829              2.064
 Vibration     8          0.665              1.756              1.702
 Vibration     9          0.667              1.751              1.682
 Vibration    10          0.688              1.687              1.457
 Vibration    11          0.705              1.637              1.315
 Vibration    12          0.722              1.589              1.196
 Vibration    13          0.750              1.513              1.040
 Vibration    14          0.790              1.408              0.863
 Vibration    15          0.826              1.319              0.741
 Vibration    16          0.832              1.306              0.724
 Vibration    17          0.846              1.272              0.683
 Vibration    18          0.860              1.241              0.648
 Vibration    19          0.881              1.193              0.596

 Optimization completed.
    -- Stationary point found.
 Normal termination of Gaussian 16 at Sun Dec 17 21:12:52 2023.
