 Gaussian 16, Revision A.03,
 Gaussian 16:  ES64L-G16RevA.03 25-Dec-2016

 ----------------------------------------------------------------
 #P UB3LYP/6-311++G(d,p) SCRF=(PCM,Solvent=n,n-DiMethylFormamide)
 ----------------------------------------------------------------

 ------------------
 Radical PCM in DMF
 ------------------
 Symbolic Z-matrix:
 Charge = -1 Multiplicity = 2

                         Standard orientation:
 ---------------------------------------------------------------------
 Center     Atomic      Atomic             Coordinates (Angstroms)
 Number     Number       Type             X           Y           Z
 ---------------------------------------------------------------------
      1          6           0        2.594249    1.023384    0.160836
      2          6           0        3.613319    0.090032    0.202227
      3          6           0        3.315645   -1.284402    0.104431
      4          6           0        1.248557    0.619772    0.021127
      5          6           0        0.945651   -0.768767   -0.077537
      6          6           0        2.000133   -1.697311   -0.032784
      7          6           0        0.182179    1.597397   -0.022209
      8          6           0       -1.161733    1.086912   -0.165848
      9          6           0       -1.490296   -0.248304   -0.270908
     10          6           0       -0.445379   -1.249039   -0.224715
     11          8           0        0.340012    2.860383    0.056307
     12          8           0       -0.698214   -2.479091   -0.308641
     13          1           0        2.798008    2.085790    0.233930
     14          1           0        4.644231    0.415007    0.310193
     15          1           0        4.116647   -2.017036    0.137042
     16          1           0        1.741984   -2.747511   -0.109620
     17          6           0       -2.921647   -0.698589   -0.415685
     18          8           0       -2.113287    2.065299   -0.195365
     19          6           0       -3.590108   -1.027211    0.932493
     20          1           0       -2.933540   -1.597275   -1.038998
     21          1           0       -3.498374    0.080255   -0.923536
     22          1           0       -1.568250    2.878914   -0.110945
     23          1           0       -3.040340   -1.821561    1.443485
     24          1           0       -4.623870   -1.365063    0.788942
     25          1           0       -3.608017   -0.147478    1.582530
 ---------------------------------------------------------------------

 SCF Done:  E(UB3LYP) =  -689.320747077     A.U. after   20 cycles

 The electronic state is 2-A.
 Alpha  occ. eigenvalues --  -19.14267 -19.08531 -19.07331 -10.22253 -10.22063
 Alpha  occ. eigenvalues --  -10.21999 -10.17411 -10.17264 -10.17191 -10.17151
 Alpha  occ. eigenvalues --  -10.17070 -10.16918 -10.16153 -10.15996 -10.15289
 Alpha  occ. eigenvalues --   -1.06267  -0.99892  -0.99504  -0.85803  -0.80949
 Alpha  occ. eigenvalues --   -0.76613  -0.75052  -0.72047  -0.67226  -0.63297
 Alpha  occ. eigenvalues --   -0.61388  -0.58235  -0.56845  -0.53611  -0.50371
 Alpha  occ. eigenvalues --   -0.48295  -0.46091  -0.45353  -0.43849  -0.42755
 Alpha  occ. eigenvalues --   -0.42655  -0.41637  -0.41207  -0.39570  -0.38797
 Alpha  occ. eigenvalues --   -0.38027  -0.37683  -0.36124  -0.35380  -0.34436
 Alpha  occ. eigenvalues --   -0.34155  -0.33172  -0.33062  -0.26675  -0.25927
 Alpha  occ. eigenvalues --   -0.25741  -0.23864  -0.22758  -0.15031
 Alpha virt. eigenvalues --   -0.03253  -0.00926  -0.00392   0.00579   0.01183
 Alpha virt. eigenvalues --    0.02067   0.02466   0.02750   0.04302   0.04782
 Alpha virt. eigenvalues --    0.04914   0.05260   0.05586   0.05798   0.06598

  Beta  occ. eigenvalues --  -19.14220 -19.07902 -19.06799 -10.22121 -10.21961
  Beta  occ. eigenvalues --  -10.21712 -10.17396 -10.17261 -10.17081 -10.17062
  Beta  occ. eigenvalues --  -10.17018 -10.16944 -10.16074 -10.16002 -10.15280
  Beta  occ. eigenvalues --   -1.06051  -0.98964  -0.98439  -0.85568  -0.80618
  Beta  occ. eigenvalues --   -0.76377  -0.74839  -0.71899  -0.66370  -0.63127
  Beta  occ. eigenvalues --   -0.61181  -0.58043  -0.56592  -0.53437  -0.50140
  Beta  occ. eigenvalues --   -0.48015  -0.45937  -0.45236  -0.43330  -0.42583
  Beta  occ. eigenvalues --   -0.42115  -0.41246  -0.40715  -0.39262  -0.37822
  Beta  occ. eigenvalues --   -0.37621  -0.37294  -0.35833  -0.34460  -0.34046
  Beta  occ. eigenvalues --   -0.33241  -0.32943  -0.32481  -0.25372  -0.25036
  Beta  occ. eigenvalues --   -0.24699  -0.23360  -0.21857
  Beta virt. eigenvalues --   -0.08498  -0.02501  -0.00520   0.00178   0.00699
  Beta virt. eigenvalues --    0.01232   0.02094   0.02486   0.02762   0.04370
  Beta virt. eigenvalues --    0.04826   0.05260   0.05342   0.05627   0.06593

 Mulliken charges and spin densities:
               1          2
     1  C    0.058361   0.077275
     2  C   -0.405359  -0.000916
     3  C   -0.442068   0.071743
     4  C    0.203049  -0.015441
     5  C    0.473534   0.079289
     6  C    0.102699  -0.001856
     7  C   -0.740173   0.182535
     8  C   -0.665288   0.051609
     9  C    1.581350   0.038238
    10  C   -0.845481   0.076645
    11  O   -0.525354   0.229396
    12  O   -0.461695   0.195577
    13  H    0.173155  -0.003704
    14  H    0.177983  -0.000524
    15  H    0.177984  -0.005212
    16  H    0.168575   0.000012
    17  C   -0.200445   0.003486
    18  O   -0.290912   0.016089
    19  C   -0.619183   0.005109
    20  H    0.169248   0.001692
    21  H    0.176502   0.000151
    22  H    0.291802  -0.003138
    23  H    0.161534  -0.001199
    24  H    0.131311   0.002525
    25  H    0.148873   0.000618
 Sum of Mulliken charges =  -1.00000   1.00000

 Dipole moment (field-independent basis, Debye):
    X=              1.8572    Y=             -0.5222    Z=              0.6741  Tot=              2.0436
 Quadrupole moment (field-independent basis, Debye-Ang):
   XX=            -95.1684   YY=           -122.1028   ZZ=            -94.4344
   XY=             -4.7805   XZ=             -0.1478   YZ=             -1.7073

 Normal termination of Gaussian 16 at Sun Jan 21 08:38:32 2024.
