 Gaussian 16, Revision A.03,
 Gaussian 16:  ES64L-G16RevA.03 25-Dec-2016

 ----------------------------------------------------------------------
 #P UB3LYP/6-311++G(d,p) nosym opt freq SCRF=(PCM,Solvent=n,n-DiMethylF
 ormamide)
 ----------------------------------------------------------------------

 -------
 Reduced
 -------
 Symbolic Z-matrix:
 Charge = -2 Multiplicity = 1

 SCF Done:  E(UB3LYP) =  -846.474456111     A.U. after   17 cycles
 SCF Done:  E(UB3LYP) =  -846.475906766     A.U. after   12 cycles
 SCF Done:  E(UB3LYP) =  -846.476187960     A.U. after   12 cycles
 SCF Done:  E(UB3LYP) =  -846.476232041     A.U. after   11 cycles
 SCF Done:  E(UB3LYP) =  -846.476244043     A.U. after   11 cycles
 SCF Done:  E(UB3LYP) =  -846.476251137     A.U. after   10 cycles
 SCF Done:  E(UB3LYP) =  -846.476251807     A.U. after    9 cycles
 SCF Done:  E(UB3LYP) =  -846.476252228     A.U. after    9 cycles
 SCF Done:  E(UB3LYP) =  -846.476252454     A.U. after    9 cycles
 SCF Done:  E(UB3LYP) =  -846.476252540     A.U. after    8 cycles
 SCF Done:  E(UB3LYP) =  -846.476252600     A.U. after    9 cycles
 SCF Done:  E(UB3LYP) =  -846.476252677     A.U. after    9 cycles
 SCF Done:  E(UB3LYP) =  -846.476252769     A.U. after    9 cycles
 SCF Done:  E(UB3LYP) =  -846.476252918     A.U. after    9 cycles
 SCF Done:  E(UB3LYP) =  -846.476252942     A.U. after   10 cycles
 SCF Done:  E(UB3LYP) =  -846.476252985     A.U. after   10 cycles
 SCF Done:  E(UB3LYP) =  -846.476253089     A.U. after    9 cycles
 SCF Done:  E(UB3LYP) =  -846.476252902     A.U. after   10 cycles
 SCF Done:  E(UB3LYP) =  -846.476253126     A.U. after    9 cycles
 Optimization completed.
    -- Stationary point found.
 Normal termination of Gaussian 16 at Sat Feb 10 20:28:36 2024.

 ----------------------------------------------------------------------
 #P Geom=AllCheck Guess=TCheck SCRF=Check GenChk UB3LYP/6-311++G(d,p) F
 req
 ----------------------------------------------------------------------

 Structure from the checkpoint file:  "131-an.chk"
 -------
 Reduced
 -------
 Charge = -2 Multiplicity = 1

                          Input orientation:
 ---------------------------------------------------------------------
 Center     Atomic      Atomic             Coordinates (Angstroms)
 Number     Number       Type             X           Y           Z
 ---------------------------------------------------------------------
      1          6           0       -4.839806    1.163505   -1.544078
      2          6           0       -3.600616    0.633768   -0.862424
      3          6           0       -3.723180   -0.231825    0.263043
      4          6           0       -2.631610   -0.748417    0.933432
      5          6           0       -2.925028   -1.644441    2.120466
      6          6           0       -1.289410   -0.421479    0.500276
      7          6           0       -0.111722   -0.928018    1.158542
      8          8           0       -0.154867   -1.735530    2.182497
      9          6           0        1.156782   -0.489639    0.626206
     10          6           0        2.334659   -0.947531    1.288651
     11          6           0        3.599766   -0.606303    0.883426
     12          6           0        4.837965   -1.087545    1.601835
     13          6           0        3.723076    0.237557   -0.258373
     14          6           0        2.632261    0.722057   -0.953501
     15          6           0        2.926671    1.602983   -2.151566
     16          6           0        1.289926    0.382053   -0.530791
     17          6           0        0.112402    0.870573   -1.202924
     18          8           0        0.156552    1.647634   -2.250361
     19          6           0       -1.156468    0.458079   -0.651031
     20          6           0       -2.335367    0.953160   -1.284570
     21          1           0       -5.467861    0.351113   -1.929767
     22          1           0       -5.466241    1.741588   -0.853825
     23          1           0       -4.581997    1.812992   -2.384392
     24          1           0       -4.719821   -0.493958    0.611690
     25          1           0       -2.485564   -2.635736    2.002110
     26          1           0       -2.501481   -1.245730    3.044080
     27          1           0       -4.008247   -1.746419    2.244448
     28          1           0        2.185656   -1.587348    2.151319
     29          1           0        5.496212   -1.659146    0.936256
     30          1           0        4.580105   -1.729343    2.448018
     31          1           0        5.433457   -0.250441    1.986423
     32          1           0        4.719775    0.512062   -0.597210
     33          1           0        4.009314    1.729012   -2.257179
     34          1           0        2.460707    2.584832   -2.060381
     35          1           0        2.531380    1.176533   -3.075495
     36          1           0       -2.187381    1.609349   -2.134854
 ---------------------------------------------------------------------

 SCF Done:  E(UB3LYP) =  -846.476253126     A.U. after    2 cycles

 Alpha  occ. eigenvalues --  -19.00581 -19.00579 -10.16598 -10.16597 -10.15623
 Alpha  occ. eigenvalues --  -10.15622 -10.15124 -10.15123 -10.14842 -10.14840
 Alpha  occ. eigenvalues --  -10.13794 -10.13793 -10.13536 -10.13535 -10.13395
 Alpha  occ. eigenvalues --  -10.13394 -10.13122 -10.13119 -10.12764 -10.12758
 Alpha  occ. eigenvalues --   -0.92187  -0.91763  -0.82449  -0.82180  -0.76086
 Alpha  occ. eigenvalues --   -0.75218  -0.74822  -0.71798  -0.67767  -0.66302
 Alpha  occ. eigenvalues --   -0.66121  -0.65515  -0.61162  -0.58788  -0.56058
 Alpha  occ. eigenvalues --   -0.53234  -0.50370  -0.49900  -0.46465  -0.44460
 Alpha  occ. eigenvalues --   -0.42909  -0.42714  -0.40730  -0.40652  -0.40427
 Alpha  occ. eigenvalues --   -0.39247  -0.38990  -0.38812  -0.38184  -0.37684
 Alpha  occ. eigenvalues --   -0.37359  -0.37135  -0.36656  -0.35479  -0.35219
 Alpha  occ. eigenvalues --   -0.34072  -0.33750  -0.33032  -0.31695  -0.30726
 Alpha  occ. eigenvalues --   -0.30537  -0.30364  -0.28916  -0.28359  -0.21771
 Alpha  occ. eigenvalues --   -0.21269  -0.21006  -0.20235  -0.18657  -0.18146
 Alpha  occ. eigenvalues --   -0.09818
 Alpha virt. eigenvalues --   -0.01435  -0.00224   0.00369   0.00528   0.01079
 Alpha virt. eigenvalues --    0.01695   0.02328   0.02483   0.03306   0.03425
 Alpha virt. eigenvalues --    0.03676   0.03926   0.03934   0.05218   0.05283

  Beta  occ. eigenvalues --  -19.00581 -19.00579 -10.16598 -10.16597 -10.15623
  Beta  occ. eigenvalues --  -10.15622 -10.15124 -10.15123 -10.14842 -10.14840
  Beta  occ. eigenvalues --  -10.13794 -10.13793 -10.13536 -10.13535 -10.13395
  Beta  occ. eigenvalues --  -10.13394 -10.13122 -10.13119 -10.12764 -10.12758
  Beta  occ. eigenvalues --   -0.92187  -0.91763  -0.82449  -0.82180  -0.76086
  Beta  occ. eigenvalues --   -0.75218  -0.74822  -0.71798  -0.67767  -0.66302
  Beta  occ. eigenvalues --   -0.66121  -0.65515  -0.61162  -0.58788  -0.56058
  Beta  occ. eigenvalues --   -0.53234  -0.50370  -0.49900  -0.46465  -0.44460
  Beta  occ. eigenvalues --   -0.42909  -0.42714  -0.40730  -0.40652  -0.40427
  Beta  occ. eigenvalues --   -0.39247  -0.38990  -0.38812  -0.38184  -0.37684
  Beta  occ. eigenvalues --   -0.37359  -0.37135  -0.36656  -0.35479  -0.35219
  Beta  occ. eigenvalues --   -0.34072  -0.33750  -0.33032  -0.31695  -0.30726
  Beta  occ. eigenvalues --   -0.30537  -0.30364  -0.28916  -0.28359  -0.21771
  Beta  occ. eigenvalues --   -0.21269  -0.21006  -0.20235  -0.18657  -0.18146
  Beta  occ. eigenvalues --   -0.09818
  Beta virt. eigenvalues --   -0.01435  -0.00224   0.00369   0.00528   0.01079
  Beta virt. eigenvalues --    0.01695   0.02328   0.02483   0.03306   0.03425
  Beta virt. eigenvalues --    0.03676   0.03926   0.03934   0.05218   0.05283

 Mulliken charges and spin densities:
               1          2
     1  C   -0.383703  -0.000000
     2  C    0.443284  -0.000000
     3  C   -0.510690   0.000000
     4  C    0.368562   0.000000
     5  C   -0.540628   0.000000
     6  C    0.220843  -0.000000
     7  C   -0.818542  -0.000000
     8  O   -0.643084   0.000000
     9  C    0.131438  -0.000000
    10  C   -0.349216   0.000000
    11  C    0.442480   0.000000
    12  C   -0.385155   0.000000
    13  C   -0.512854   0.000000
    14  C    0.373805  -0.000000
    15  C   -0.542352   0.000000
    16  C    0.223178   0.000000
    17  C   -0.808976  -0.000000
    18  O   -0.643563   0.000000
    19  C    0.125400   0.000000
    20  C   -0.355127  -0.000000
    21  H    0.149406  -0.000000
    22  H    0.148716   0.000000
    23  H    0.146540   0.000000
    24  H    0.092655  -0.000000
    25  H    0.150689  -0.000000
    26  H    0.149060  -0.000000
    27  H    0.126759   0.000000
    28  H    0.118466   0.000000
    29  H    0.148501  -0.000000
    30  H    0.146630   0.000000
    31  H    0.149544   0.000000
    32  H    0.092724   0.000000
    33  H    0.126739  -0.000000
    34  H    0.150625  -0.000000
    35  H    0.149232  -0.000000
    36  H    0.118613   0.000000
 Sum of Mulliken charges =  -2.00000  -0.00000

 Dipole moment (field-independent basis, Debye):
    X=             -0.0009    Y=              0.3235    Z=              0.2587  Tot=              0.4142
 Quadrupole moment (field-independent basis, Debye-Ang):
   XX=           -147.8524   YY=           -150.7400   ZZ=           -164.1807
   XY=             -0.6412   XZ=              0.6158   YZ=             24.8272

  Exact polarizability: 663.725 -17.674 288.478  30.200-114.735 353.877
 Approx polarizability: 704.486 -18.307 328.861  31.259-134.801 405.177

                      1                      2                      3
                      A                      A                      A
 Frequencies --     23.3764                43.0032                62.7027
 Red. masses --      4.8205                 3.4241                 4.4505
 Frc consts  --      0.0016                 0.0037                 0.0103
 IR Inten    --     18.0663                 9.3414                 0.0151

                      4                      5                      6
                      A                      A                      A
 Frequencies --    116.1066               119.3509               141.5891
 Red. masses --      1.3204                 1.1626                 2.5740
 Frc consts  --      0.0105                 0.0098                 0.0304
 IR Inten    --      0.5592                 0.0688                 1.2362

                      7                      8                      9
                      A                      A                      A
 Frequencies --    159.6366               162.0333               183.2750
 Red. masses --      2.6714                 3.6149                 2.7146
 Frc consts  --      0.0401                 0.0559                 0.0537
 IR Inten    --      0.1405                19.2250                15.6503

                     10                     11                     12
                      A                      A                      A
 Frequencies --    193.1686               216.8496               227.2286
 Red. masses --      1.7361                 1.1897                 1.4967
 Frc consts  --      0.0382                 0.0330                 0.0455
 IR Inten    --      0.0225                 0.2403                 0.0737

                     13                     14                     15
                      A                      A                      A
 Frequencies --    237.6792               278.7584               294.1470
 Red. masses --      3.1815                 3.8816                 3.5809
 Frc consts  --      0.1059                 0.1777                 0.1825
 IR Inten    --      0.0056                 0.8321                 0.0107

                     16                     17                     18
                      A                      A                      A
 Frequencies --    300.2050               333.9880               340.7850
 Red. masses --      2.6428                 6.3049                 4.9672
 Frc consts  --      0.1403                 0.4144                 0.3399
 IR Inten    --     21.7383                 0.0018                 0.2222

                     19                     20                     21
                      A                      A                      A
 Frequencies --    362.2694               370.4035               416.9842
 Red. masses --      8.2906                 5.1814                 4.6650
 Frc consts  --      0.6411                 0.4188                 0.4779
 IR Inten    --      6.4132                 0.0938                11.9418

                     22                     23                     24
                      A                      A                      A
 Frequencies --    419.8568               481.1130               493.9038
 Red. masses --      6.5003                 5.9000                 3.8937
 Frc consts  --      0.6751                 0.8046                 0.5596
 IR Inten    --      0.6689                 0.0082                 3.5967

                     25                     26                     27
                      A                      A                      A
 Frequencies --    512.2013               525.7759               547.7974
 Red. masses --      5.4167                 4.3251                 4.8391
 Frc consts  --      0.8373                 0.7044                 0.8556
 IR Inten    --      0.0086                10.2659                 0.0036

                     28                     29                     30
                      A                      A                      A
 Frequencies --    550.0142               561.6645               566.0413
 Red. masses --      3.5796                 3.3651                 4.4228
 Frc consts  --      0.6380                 0.6255                 0.8349
 IR Inten    --     12.3284                 0.2409                37.7519

                     31                     32                     33
                      A                      A                      A
 Frequencies --    638.8933               648.1470               665.6178
 Red. masses --      3.5847                 5.2115                 5.2105
 Frc consts  --      0.8621                 1.2899                 1.3601
 IR Inten    --      0.1477                 0.0117                35.7789

                     34                     35                     36
                      A                      A                      A
 Frequencies --    719.0658               743.8840               794.7369
 Red. masses --      4.2479                 6.5275                 5.8151
 Frc consts  --      1.2941                 2.1282                 2.1640
 IR Inten    --     33.4503                 0.0715                 0.0022

                     37                     38                     39
                      A                      A                      A
 Frequencies --    809.2175               836.2802               836.7334
 Red. masses --      5.7560                 1.3125                 1.7378
 Frc consts  --      2.2208                 0.5408                 0.7169
 IR Inten    --      0.1505                33.1853                34.7423

                     40                     41                     42
                      A                      A                      A
 Frequencies --    837.3619               901.6453               909.2283
 Red. masses --      3.0505                 1.4337                 1.3904
 Frc consts  --      1.2602                 0.6867                 0.6772
 IR Inten    --     42.5697                11.3331                20.8347

                     43                     44                     45
                      A                      A                      A
 Frequencies --    940.1139               965.5966               976.9882
 Red. masses --      3.2842                 4.6662                 1.7262
 Frc consts  --      1.7102                 2.5633                 0.9708
 IR Inten    --      0.0170               251.9645                56.9061

                     46                     47                     48
                      A                      A                      A
 Frequencies --    986.0946              1020.0505              1034.4556
 Red. masses --      3.2491                 1.5807                 1.9020
 Frc consts  --      1.8614                 0.9691                 1.1992
 IR Inten    --      0.0233                64.9840                 0.1488

                     49                     50                     51
                      A                      A                      A
 Frequencies --   1037.6612              1052.6359              1053.7398
 Red. masses --      1.5886                 1.6126                 1.5072
 Frc consts  --      1.0078                 1.0528                 0.9860
 IR Inten    --      0.1030                40.7640                 6.4710

                     52                     53                     54
                      A                      A                      A
 Frequencies --   1054.9911              1055.6177              1057.9294
 Red. masses --      1.7432                 1.6931                 2.0307
 Frc consts  --      1.1431                 1.1116                 1.3391
 IR Inten    --     69.6282                54.7200               111.6202

                     55                     56                     57
                      A                      A                      A
 Frequencies --   1133.0038              1153.4854              1154.7795
 Red. masses --      1.8477                 5.3586                 1.7638
 Frc consts  --      1.3975                 4.2008                 1.3858
 IR Inten    --     12.5031              1114.9308                12.3880

                     58                     59                     60
                      A                      A                      A
 Frequencies --   1179.1804              1225.4474              1258.1977
 Red. masses --      2.8051                 3.7744                 1.9910
 Frc consts  --      2.2981                 3.3395                 1.8570
 IR Inten    --      0.0255               817.6986                 7.8306

                     61                     62                     63
                      A                      A                      A
 Frequencies --   1262.1343              1297.8629              1327.1727
 Red. masses --      3.2483                 5.7330                 5.9380
 Frc consts  --      3.0487                 5.6898                 6.1624
 IR Inten    --      0.0455                 0.6744              1919.4940

                     64                     65                     66
                      A                      A                      A
 Frequencies --   1334.3941              1338.7118              1396.5348
 Red. masses --      3.6224                 2.3308                 1.5759
 Frc consts  --      3.8002                 2.4611                 1.8108
 IR Inten    --    964.2015                 1.7352                 0.7621

                     67                     68                     69
                      A                      A                      A
 Frequencies --   1398.7820              1406.7128              1407.9073
 Red. masses --      1.3793                 1.5083                 1.4416
 Frc consts  --      1.5900                 1.7585                 1.6836
 IR Inten    --      0.0357                34.2894                39.0596

                     70                     71                     72
                      A                      A                      A
 Frequencies --   1409.5896              1410.2202              1427.9184
 Red. masses --      2.2860                 1.4455                 3.8700
 Frc consts  --      2.6761                 1.6937                 4.6491
 IR Inten    --     15.7412                35.0032               409.5638

                     73                     74                     75
                      A                      A                      A
 Frequencies --   1445.7373              1453.9690              1454.2350
 Red. masses --      3.9769                 1.0501                 1.0493
 Frc consts  --      4.8975                 1.3080                 1.3074
 IR Inten    --      0.3369                 5.6980                 6.3531

                     76                     77                     78
                      A                      A                      A
 Frequencies --   1469.8464              1469.9371              1476.2872
 Red. masses --      1.0445                 1.0445                 2.0732
 Frc consts  --      1.3295                 1.3297                 2.6622
 IR Inten    --      6.3559                10.3553                 0.1783

                     79                     80                     81
                      A                      A                      A
 Frequencies --   1480.0452              1482.5035              1483.9157
 Red. masses --      1.2228                 1.1609                 1.3824
 Frc consts  --      1.5782                 1.5033                 1.7935
 IR Inten    --     53.0994                79.5937                 0.1988

                     82                     83                     84
                      A                      A                      A
 Frequencies --   1488.9866              1540.7148              1579.7315
 Red. masses --      1.7645                 5.0808                 7.1627
 Frc consts  --      2.3049                 7.1060                10.5316
 IR Inten    --      0.0411               172.6884                 0.1322

                     85                     86                     87
                      A                      A                      A
 Frequencies --   1624.6370              1625.0294              2993.4061
 Red. masses --      5.3862                 5.3687                 1.0388
 Frc consts  --      8.3761                 8.3529                 5.4840
 IR Inten    --     79.8161                47.9972               517.8227

                     88                     89                     90
                      A                      A                      A
 Frequencies --   2994.2816              3016.2712              3016.5071
 Red. masses --      1.0387                 1.0432                 1.0432
 Frc consts  --      5.4871                 5.5917                 5.5927
 IR Inten    --      4.2292               259.2982                 2.8228

                     91                     92                     93
                      A                      A                      A
 Frequencies --   3029.3437              3029.4669              3081.8527
 Red. masses --      1.0998                 1.0998                 1.0976
 Frc consts  --      5.9464                 5.9470                 6.1422
 IR Inten    --     54.4774                55.2366                55.9940

                     94                     95                     96
                      A                      A                      A
 Frequencies --   3081.9220              3082.6153              3083.9358
 Red. masses --      1.0976                 1.0957                 1.0952
 Frc consts  --      6.1426                 6.1343                 6.1368
 IR Inten    --     46.7368                41.3099                36.5399

                     97                     98                     99
                      A                      A                      A
 Frequencies --   3095.8033              3098.3205              3121.2467
 Red. masses --      1.0971                 1.0963                 1.0882
 Frc consts  --      6.1951                 6.2006                 6.2462
 IR Inten    --     30.0794                28.2590               197.6403

                    100                    101                    102
                      A                      A                      A
 Frequencies --   3121.5906              3165.3523              3167.4986
 Red. masses --      1.0882                 1.0882                 1.0882
 Frc consts  --      6.2474                 6.4240                 6.4330
 IR Inten    --      7.2707                44.5291                28.3262

 - Thermochemistry -
 -------------------
 Temperature   298.150 Kelvin.  Pressure   1.00000 Atm.
 Atom     1 has atomic number  6 and mass  12.00000

 Molecular mass:   264.11503 amu.
 Principal axes and moments of inertia in atomic units:
                           1         2         3
     Eigenvalues --  2911.446387401.11503**********
           X            0.99604  -0.08849  -0.00807
           Y           -0.04685  -0.60019   0.79848
           Z            0.07550   0.79495   0.60196
 This molecule is an asymmetric top.
 Rotational symmetry number  1.
 Warning -- assumption of classical behavior for rotation
           may cause significant error
 Rotational temperatures (Kelvin)      0.02975     0.01170     0.00844
 Rotational constants (GHZ):           0.61988     0.24385     0.17578
 Zero-point vibrational energy     745247.3 (Joules/Mol)
                                  178.11838 (Kcal/Mol)
 Warning -- explicit consideration of  30 degrees of freedom as
           vibrations may cause significant error
 Vibrational temperatures:     33.63    61.87    90.22   167.05   171.72
          (Kelvin)            203.72   229.68   233.13   263.69   277.93
                              312.00   326.93   341.97   401.07   423.21
                              431.93   480.53   490.31   521.22   532.93
                              599.95   604.08   692.21   710.62   736.94
                              756.47   788.16   791.35   808.11   814.41
                              919.23   932.54   957.68  1034.58  1070.28
                             1143.45  1164.28  1203.22  1203.87  1204.78
                             1297.27  1308.18  1352.61  1389.28  1405.67
                             1418.77  1467.63  1488.35  1492.96  1514.51
                             1516.10  1517.90  1518.80  1522.12  1630.14
                             1659.61  1661.47  1696.58  1763.15  1810.27
                             1815.93  1867.34  1909.51  1919.90  1926.11
                             2009.30  2012.54  2023.95  2025.66  2028.09
                             2028.99  2054.46  2080.09  2091.94  2092.32
                             2114.78  2114.91  2124.05  2129.45  2132.99
                             2135.02  2142.32  2216.74  2272.88  2337.49
                             2338.05  4306.84  4308.10  4339.74  4340.08
                             4358.55  4358.73  4434.10  4434.20  4435.20
                             4437.10  4454.17  4457.79  4490.78  4491.27
                             4554.24  4557.32

 Zero-point correction=                           0.283850 (Hartree/Particle)
 Thermal correction to Energy=                    0.301974
 Thermal correction to Enthalpy=                  0.302918
 Thermal correction to Gibbs Free Energy=         0.237966
 Sum of electronic and zero-point Energies=           -846.192403
 Sum of electronic and thermal Energies=              -846.174279
 Sum of electronic and thermal Enthalpies=            -846.173335
 Sum of electronic and thermal Free Energies=         -846.238287

                     E (Thermal)             CV                S
                      KCal/Mol        Cal/Mol-Kelvin    Cal/Mol-Kelvin
 Total                  189.491             70.725            136.703
 Electronic               0.000              0.000              0.000
 Translational            0.889              2.981             42.613
 Rotational               0.889              2.981             33.758
 Vibrational            187.714             64.763             60.332
 Vibration     1          0.593              1.985              6.324
 Vibration     2          0.595              1.980              5.116
 Vibration     3          0.597              1.972              4.370
 Vibration     4          0.608              1.936              3.164
 Vibration     5          0.609              1.933              3.111
 Vibration     6          0.615              1.912              2.782
 Vibration     7          0.621              1.892              2.554
 Vibration     8          0.622              1.889              2.526
 Vibration     9          0.631              1.863              2.295
 Vibration    10          0.635              1.849              2.197
 Vibration    11          0.646              1.815              1.985
 Vibration    12          0.651              1.800              1.901
 Vibration    13          0.656              1.783              1.820
 Vibration    14          0.679              1.713              1.541
 Vibration    15          0.689              1.685              1.450
 Vibration    16          0.693              1.673              1.416
 Vibration    17          0.716              1.608              1.241
 Vibration    18          0.720              1.594              1.208
 Vibration    19          0.736              1.550              1.112
 Vibration    20          0.742              1.533              1.078
 Vibration    21          0.780              1.433              0.902
 Vibration    22          0.783              1.427              0.892
 Vibration    23          0.837              1.292              0.707
 Vibration    24          0.850              1.264              0.674
 Vibration    25          0.867              1.223              0.628
 Vibration    26          0.881              1.193              0.597
 Vibration    27          0.903              1.145              0.549
 Vibration    28          0.905              1.140              0.544
 Vibration    29          0.917              1.114              0.521
 Vibration    30          0.922              1.105              0.512

 Optimization completed.
    -- Stationary point found.
 Normal termination of Gaussian 16 at Sat Feb 10 22:19:06 2024.
