 Gaussian 16, Revision A.03,
 Gaussian 16:  ES64L-G16RevA.03 25-Dec-2016

 ----------------------------------------------------------------------
 #P UB3LYP/6-311++G(d,p) nosym opt freq SCRF=(PCM,Solvent=n,n-DiMethylF
 ormamide)
 ----------------------------------------------------------------------

 -------
 Reduced
 -------
 Symbolic Z-matrix:
 Charge = -2 Multiplicity = 1

 SCF Done:  E(UB3LYP) =  -614.141394061     A.U. after   18 cycles
 SCF Done:  E(UB3LYP) =  -614.142039377     A.U. after   13 cycles
 SCF Done:  E(UB3LYP) =  -614.142317788     A.U. after   13 cycles
 SCF Done:  E(UB3LYP) =  -614.142336574     A.U. after   11 cycles
 SCF Done:  E(UB3LYP) =  -614.142341106     A.U. after   11 cycles
 SCF Done:  E(UB3LYP) =  -614.142346420     A.U. after   10 cycles
 SCF Done:  E(UB3LYP) =  -614.142349416     A.U. after   11 cycles
 SCF Done:  E(UB3LYP) =  -614.142350837     A.U. after   10 cycles
 SCF Done:  E(UB3LYP) =  -614.142351570     A.U. after   10 cycles
 SCF Done:  E(UB3LYP) =  -614.142351778     A.U. after   10 cycles
 SCF Done:  E(UB3LYP) =  -614.142351848     A.U. after    9 cycles
 Optimization completed.
    -- Stationary point found.
 Normal termination of Gaussian 16 at Sun Feb 11 02:53:34 2024.

 ----------------------------------------------------------------------
 #P Geom=AllCheck Guess=TCheck SCRF=Check GenChk UB3LYP/6-311++G(d,p) F
 req
 ----------------------------------------------------------------------

 Structure from the checkpoint file:  "245-an.chk"
 -------
 Reduced
 -------
 Charge = -2 Multiplicity = 1

                          Input orientation:
 ---------------------------------------------------------------------
 Center     Atomic      Atomic             Coordinates (Angstroms)
 Number     Number       Type             X           Y           Z
 ---------------------------------------------------------------------
      1          6           0        5.727584   -5.348278    1.332251
      2          6           0        6.688169   -5.183895    0.354330
      3          6           0        6.591568   -4.165676   -0.613521
      4          6           0        4.594299   -4.456075    1.372859
      5          6           0        4.505327   -3.377001    0.376389
      6          6           0        5.539469   -3.271736   -0.624941
      7          6           0        3.550912   -4.626647    2.386622
      8          6           0        2.500391   -3.692446    2.336034
      9          6           0        2.425344   -2.653336    1.398588
     10          6           0        3.388499   -2.429564    0.397639
     11          8           0        3.568682   -5.580511    3.286678
     12          8           0        3.271467   -1.430001   -0.444195
     13          6           0        5.954839   -6.485599    2.311308
     14          1           0        7.539492   -5.858813    0.327560
     15          1           0        1.581713   -1.965466    1.431552
     16          6           0        5.556731   -2.231427   -1.729939
     17          1           0        7.365789   -4.083251   -1.371676
     18          1           0        6.897721   -6.986709    2.065919
     19          1           0        5.149050   -7.220042    2.283019
     20          1           0        6.000341   -6.137624    3.344154
     21          1           0        1.710860   -3.798706    3.078890
     22          1           0        5.598775   -1.214551   -1.338110
     23          1           0        4.659493   -2.273069   -2.348541
     24          1           0        6.431738   -2.399646   -2.367329
 ---------------------------------------------------------------------

 SCF Done:  E(UB3LYP) =  -614.142351848     A.U. after    1 cycles

 Alpha  occ. eigenvalues --  -19.00247 -19.00231 -10.16315 -10.16308 -10.15262
 Alpha  occ. eigenvalues --  -10.15256 -10.14031 -10.13996 -10.13668 -10.13650
 Alpha  occ. eigenvalues --  -10.13644 -10.13594 -10.11243 -10.11192  -0.91455
 Alpha  occ. eigenvalues --   -0.91044  -0.82207  -0.75809  -0.75557  -0.69642
 Alpha  occ. eigenvalues --   -0.68434  -0.64564  -0.61536  -0.57565  -0.56426
 Alpha  occ. eigenvalues --   -0.49345  -0.46626  -0.45163  -0.43768  -0.41165
 Alpha  occ. eigenvalues --   -0.39776  -0.38686  -0.38439  -0.37789  -0.36629
 Alpha  occ. eigenvalues --   -0.35331  -0.34781  -0.34467  -0.34171  -0.32218
 Alpha  occ. eigenvalues --   -0.30515  -0.30312  -0.30009  -0.29883  -0.21264
 Alpha  occ. eigenvalues --   -0.21130  -0.20961  -0.18163  -0.18105  -0.10461
 Alpha virt. eigenvalues --    0.00134   0.00440   0.01162   0.01168   0.01323
 Alpha virt. eigenvalues --    0.02628   0.03264   0.03654   0.04371   0.04738
 Alpha virt. eigenvalues --    0.05132   0.06469   0.07192   0.07298   0.08244

  Beta  occ. eigenvalues --  -19.00247 -19.00231 -10.16315 -10.16308 -10.15262
  Beta  occ. eigenvalues --  -10.15256 -10.14031 -10.13996 -10.13668 -10.13650
  Beta  occ. eigenvalues --  -10.13644 -10.13594 -10.11243 -10.11192  -0.91455
  Beta  occ. eigenvalues --   -0.91044  -0.82207  -0.75809  -0.75557  -0.69642
  Beta  occ. eigenvalues --   -0.68434  -0.64564  -0.61536  -0.57565  -0.56426
  Beta  occ. eigenvalues --   -0.49345  -0.46626  -0.45163  -0.43768  -0.41165
  Beta  occ. eigenvalues --   -0.39776  -0.38686  -0.38439  -0.37789  -0.36629
  Beta  occ. eigenvalues --   -0.35331  -0.34781  -0.34467  -0.34171  -0.32218
  Beta  occ. eigenvalues --   -0.30515  -0.30312  -0.30009  -0.29883  -0.21264
  Beta  occ. eigenvalues --   -0.21130  -0.20961  -0.18163  -0.18105  -0.10461
  Beta virt. eigenvalues --    0.00134   0.00440   0.01162   0.01168   0.01323
  Beta virt. eigenvalues --    0.02628   0.03264   0.03654   0.04371   0.04738
  Beta virt. eigenvalues --    0.05132   0.06469   0.07192   0.07298   0.08244

 Mulliken charges and spin densities:
               1          2
     1  C    0.906428  -0.000000
     2  C   -0.590262   0.000000
     3  C   -0.590604   0.000000
     4  C    0.131777   0.000000
     5  C    0.135960   0.000000
     6  C    0.909191  -0.000000
     7  C   -0.829259   0.000000
     8  C   -0.232259   0.000000
     9  C   -0.227934  -0.000000
    10  C   -0.827373   0.000000
    11  O   -0.695456  -0.000000
    12  O   -0.697721   0.000000
    13  C   -0.335094  -0.000000
    14  H    0.110474   0.000000
    15  H    0.121725   0.000000
    16  C   -0.339392  -0.000000
    17  H    0.110480  -0.000000
    18  H    0.114510  -0.000000
    19  H    0.147015  -0.000000
    20  H    0.146794  -0.000000
    21  H    0.122248  -0.000000
    22  H    0.147317  -0.000000
    23  H    0.146815  -0.000000
    24  H    0.114620   0.000000
 Sum of Mulliken charges =  -2.00000   0.00000

 Dipole moment (field-independent basis, Debye):
    X=            -35.0552    Y=             34.4684    Z=            -12.5672  Tot=             50.7432
 Quadrupole moment (field-independent basis, Debye-Ang):
   XX=           -229.1229   YY=           -250.6213   ZZ=           -137.7503
   XY=            130.4977   XZ=            -44.5869   YZ=             72.4651

  Exact polarizability: 298.853 -63.492 258.528 -67.465 -60.976 258.631
 Approx polarizability: 334.156 -71.711 288.513 -76.500 -68.928 288.127

                      1                      2                      3
                      A                      A                      A
 Frequencies --     58.4888                83.1089               108.0989
 Red. masses --      4.4743                 4.8710                 3.3365
 Frc consts  --      0.0090                 0.0198                 0.0230
 IR Inten    --      0.4072                25.5008                 0.0768

                      4                      5                      6
                      A                      A                      A
 Frequencies --    210.6025               216.2400               226.1537
 Red. masses --      1.1251                 1.3426                 2.3914
 Frc consts  --      0.0294                 0.0370                 0.0721
 IR Inten    --      0.0550                 1.1099                 1.4347

                      7                      8                      9
                      A                      A                      A
 Frequencies --    291.8466               321.2049               338.9252
 Red. masses --      5.1167                 3.2818                 6.6223
 Frc consts  --      0.2568                 0.1995                 0.4482
 IR Inten    --     13.7759                 0.0307                 0.1524

                     10                     11                     12
                      A                      A                      A
 Frequencies --    347.6890               356.6232               364.0496
 Red. masses --      2.7110                 4.9444                 9.7067
 Frc consts  --      0.1931                 0.3705                 0.7580
 IR Inten    --     15.4210                 3.6861                11.9438

                     13                     14                     15
                      A                      A                      A
 Frequencies --    454.0543               468.5645               481.2618
 Red. masses --      6.2882                 7.8556                 3.7856
 Frc consts  --      0.7638                 1.0162                 0.5166
 IR Inten    --      0.0344                 1.3731                 0.2342

                     16                     17                     18
                      A                      A                      A
 Frequencies --    487.5985               524.1493               596.8548
 Red. masses --      4.1375                 2.8994                 6.3302
 Frc consts  --      0.5796                 0.4693                 1.3286
 IR Inten    --      0.5390                 0.9587                 0.5796

                     19                     20                     21
                      A                      A                      A
 Frequencies --    642.4868               656.0252               682.6071
 Red. masses --      3.8623                 3.5150                 2.6063
 Frc consts  --      0.9393                 0.8913                 0.7155
 IR Inten    --      1.9729                 0.1535                31.9764

                     22                     23                     24
                      A                      A                      A
 Frequencies --    745.3320               758.4030               797.2923
 Red. masses --      5.4067                 6.4796                 1.2227
 Frc consts  --      1.7696                 2.1958                 0.4579
 IR Inten    --     58.3230               165.1900                67.7781

                     25                     26                     27
                      A                      A                      A
 Frequencies --    803.3327               813.9188               871.9076
 Red. masses --      5.8627                 2.1271                 5.5618
 Frc consts  --      2.2292                 0.8302                 2.4912
 IR Inten    --      2.9773                66.4691               166.1253

                     28                     29                     30
                      A                      A                      A
 Frequencies --    875.0008               897.7062               922.7923
 Red. masses --      1.4387                 1.3094                 3.7034
 Frc consts  --      0.6490                 0.6217                 1.8581
 IR Inten    --      6.1489                 0.2368                54.7000

                     31                     32                     33
                      A                      A                      A
 Frequencies --   1004.4171              1031.4392              1048.2417
 Red. masses --      1.6981                 1.4174                 1.5186
 Frc consts  --      1.0093                 0.8885                 0.9831
 IR Inten    --     57.6908                 8.9640                 1.6037

                     34                     35                     36
                      A                      A                      A
 Frequencies --   1052.2710              1096.0063              1143.1168
 Red. masses --      1.5193                 1.6545                 4.1945
 Frc consts  --      0.9911                 1.1710                 3.2293
 IR Inten    --      4.6984                 0.2990               446.2806

                     37                     38                     39
                      A                      A                      A
 Frequencies --   1145.8346              1182.5948              1215.2465
 Red. masses --      3.2247                 1.6711                 3.0359
 Frc consts  --      2.4945                 1.3770                 2.6416
 IR Inten    --     15.7378                12.4084                96.3459

                     40                     41                     42
                      A                      A                      A
 Frequencies --   1235.5874              1256.2902              1291.4965
 Red. masses --      2.7775                 5.9051                 1.8831
 Frc consts  --      2.4983                 5.4911                 1.8506
 IR Inten    --    631.9037                93.2024               693.9985

                     43                     44                     45
                      A                      A                      A
 Frequencies --   1343.5504              1352.8155              1370.3655
 Red. masses --      8.3166                 4.6107                 2.6518
 Frc consts  --      8.8451                 4.9716                 2.9340
 IR Inten    --      8.8960              1111.5979                 2.9026

                     46                     47                     48
                      A                      A                      A
 Frequencies --   1405.5460              1407.3209              1412.9536
 Red. masses --      1.4596                 1.2540                 1.9362
 Frc consts  --      1.6989                 1.4632                 2.2774
 IR Inten    --      0.3731                 1.5298                54.1089

                     49                     50                     51
                      A                      A                      A
 Frequencies --   1452.7907              1454.7090              1469.7272
 Red. masses --      1.0564                 1.0502                 1.1256
 Frc consts  --      1.3137                 1.3094                 1.4326
 IR Inten    --      5.1170                 6.6186                 2.8199

                     52                     53                     54
                      A                      A                      A
 Frequencies --   1478.4616              1525.8004              1526.9666
 Red. masses --      1.1110                 5.2288                 4.5878
 Frc consts  --      1.4308                 7.1722                 6.3025
 IR Inten    --     36.3768               241.5308               442.4201

                     55                     56                     57
                      A                      A                      A
 Frequencies --   1596.4455              1608.5256              3012.4965
 Red. masses --      4.3632                 7.3806                 1.0466
 Frc consts  --      6.5518                11.2512                 5.5959
 IR Inten    --     67.9210                11.4644               133.0334

                     58                     59                     60
                      A                      A                      A
 Frequencies --   3013.4509              3086.6959              3087.5414
 Red. masses --      1.0467                 1.0888                 1.0893
 Frc consts  --      5.5999                 6.1123                 6.1180
 IR Inten    --    144.7524                34.0024                41.7107

                     61                     62                     63
                      A                      A                      A
 Frequencies --   3095.3580              3097.5470              3099.1850
 Red. masses --      1.0839                 1.0994                 1.0992
 Frc consts  --      6.1189                 6.2151                 6.2204
 IR Inten    --    114.8297                33.8056                33.8400

                     64                     65                     66
                      A                      A                      A
 Frequencies --   3120.7332              3124.2509              3143.8908
 Red. masses --      1.0915                 1.0852                 1.0930
 Frc consts  --      6.2632                 6.2412                 6.3650
 IR Inten    --    152.8526                54.0246               102.9956

 - Thermochemistry -
 -------------------
 Temperature   298.150 Kelvin.  Pressure   1.00000 Atm.
 Atom     1 has atomic number  6 and mass  12.00000

 Molecular mass:   186.06808 amu.
 Principal axes and moments of inertia in atomic units:
                           1         2         3
     Eigenvalues --  1891.156272400.896244269.20838
           X           -0.06112   0.85727   0.51122
           Y            0.73295  -0.30912   0.60600
           Z           -0.67753  -0.41174   0.60944
 This molecule is an asymmetric top.
 Rotational symmetry number  1.
 Warning -- assumption of classical behavior for rotation
           may cause significant error
 Rotational temperatures (Kelvin)      0.04580     0.03608     0.02029
 Rotational constants (GHZ):           0.95431     0.75169     0.42273
 Zero-point vibrational energy     480850.9 (Joules/Mol)
                                  114.92612 (Kcal/Mol)
 Warning -- explicit consideration of  18 degrees of freedom as
           vibrations may cause significant error
 Vibrational temperatures:     84.15   119.58   155.53   303.01   311.12
          (Kelvin)            325.38   419.90   462.14   487.64   500.25
                              513.10   523.79   653.28   674.16   692.43
                              701.55   754.13   858.74   924.40   943.87
                              982.12  1072.37  1091.17  1147.13  1155.82
                             1171.05  1254.48  1258.93  1291.60  1327.69
                             1445.13  1484.01  1508.19  1513.98  1576.91
                             1644.69  1648.60  1701.49  1748.47  1777.73
                             1807.52  1858.18  1933.07  1946.40  1971.65
                             2022.27  2024.82  2032.93  2090.24  2093.00
                             2114.61  2127.18  2195.29  2196.96  2296.93
                             2314.31  4334.31  4335.68  4441.07  4442.28
                             4453.53  4456.68  4459.04  4490.04  4495.10
                             4523.36

 Zero-point correction=                           0.183146 (Hartree/Particle)
 Thermal correction to Energy=                    0.194882
 Thermal correction to Enthalpy=                  0.195827
 Thermal correction to Gibbs Free Energy=         0.145702
 Sum of electronic and zero-point Energies=           -613.959205
 Sum of electronic and thermal Energies=              -613.947469
 Sum of electronic and thermal Enthalpies=            -613.946525
 Sum of electronic and thermal Free Energies=         -613.996650

                     E (Thermal)             CV                S
                      KCal/Mol        Cal/Mol-Kelvin    Cal/Mol-Kelvin
 Total                  122.291             46.845            105.497
 Electronic               0.000              0.000              0.000
 Translational            0.889              2.981             41.569
 Rotational               0.889              2.981             31.339
 Vibrational            120.513             40.884             32.589
 Vibration     1          0.596              1.974              4.508
 Vibration     2          0.600              1.961              3.816
 Vibration     3          0.606              1.943              3.303
 Vibration     4          0.643              1.825              2.038
 Vibration     5          0.645              1.816              1.990
 Vibration     6          0.650              1.801              1.909
 Vibration     7          0.687              1.689              1.463
 Vibration     8          0.707              1.633              1.304
 Vibration     9          0.719              1.598              1.217
 Vibration    10          0.725              1.580              1.177
 Vibration    11          0.732              1.562              1.137
 Vibration    12          0.738              1.546              1.105
 Vibration    13          0.812              1.352              0.784
 Vibration    14          0.826              1.320              0.742
 Vibration    15          0.838              1.292              0.707
 Vibration    16          0.844              1.278              0.690
 Vibration    17          0.879              1.197              0.600
 Vibration    18          0.955              1.038              0.455

 Optimization completed.
    -- Stationary point found.
 Normal termination of Gaussian 16 at Sun Feb 11 03:43:01 2024.
