 Q-Chem 5.4, Q-Chem, Inc., Pleasanton, CA (2021)
 Q-Chem 5.4.0 for Intel X86 EM64T Linux

User input:
--------------------------------------------------------------
$molecule
0 1
C                  0.1667190000      3.7960990000     -0.2079950000
C                 -0.9435890000      3.6787720000     -1.0384350000
C                 -1.0046290000      2.6502930000     -1.9805320000
C                  1.2166770000      2.8818360000     -0.3225590000
C                  1.1581360000      1.8459890000     -1.2692340000
C                  0.0414190000      1.7365620000     -2.0959760000
C                  2.3995900000      2.9919750000      0.5502890000
C                  3.4945910000      1.9936900000      0.3832880000
C                  3.4574510000      0.9804010000     -0.5169010000
C                  2.2807370000      0.8554670000     -1.4025350000
O                  2.5411800000      3.8562180000      1.4082880000
O                  2.2115330000     -0.0403210000     -2.2326460000
H                  0.2368660000      4.5850850000      0.5307630000
H                 -1.7602280000      4.3862620000     -0.9532100000
H                 -1.8705050000      2.5606650000     -2.6267170000
H                  0.0101320000      0.9329240000     -2.8211520000
O                  4.5324950000      2.1797380000      1.2150990000
H                  4.3053500000      2.9563510000      1.7611260000
C                  4.5838010000     -0.0025900000     -0.6729460000
C                  5.5927500000      0.4342430000     -1.7587920000
C                  6.7086500000     -0.5905800000     -2.0420980000
C                  7.5092720000     -0.1549650000     -3.2861210000
C                  8.5032040000     -1.1915130000     -3.8273300000
C                  9.1899160000     -0.7325660000     -5.1204270000
C                 10.1297900000     -1.7646190000     -5.7724710000
C                 10.5899470000     -1.2761190000     -7.1533610000
C                  7.6153780000     -0.8046160000     -0.8206730000
C                 11.3415430000     -2.0989720000     -4.8902660000
H                  4.1612410000     -0.9708110000     -0.9537160000
H                  5.0885460000     -0.1136710000      0.2880690000
H                  6.0438920000      1.3906310000     -1.4669320000
H                  5.0402020000      0.6145310000     -2.6863160000
H                  6.2231500000     -1.5478910000     -2.2801600000
H                  8.0447730000      0.7767080000     -3.0567910000
H                  6.7989640000      0.0930300000     -4.0845560000
H                  7.9713790000     -2.1334320000     -4.0175730000
H                  9.2590020000     -1.4125320000     -3.0681190000
H                  9.7566280000      0.1884740000     -4.9247110000
H                  8.4157360000     -0.4610100000     -5.8492320000
H                  9.5546920000     -2.6894640000     -5.9196650000
H                  9.7381110000     -1.0771120000     -7.8105430000
H                 11.2269640000     -2.0172170000     -7.6454300000
H                 11.1669670000     -0.3485940000     -7.0666670000
H                  8.3861690000     -1.5532640000     -1.0171820000
H                  7.0516090000     -1.1474520000      0.0501810000
H                  8.1184980000      0.1291490000     -0.5448930000
H                 11.0465280000     -2.5239710000     -3.9278470000
H                 11.9359150000     -1.1998490000     -4.6910990000
H                 11.9951660000     -2.8248730000     -5.3831800000
$end
$rem
MAX_SCF_CYCLES=200
BASIS  =  6-311++G(d,p)
GUI  =  2
JOB_TYPE  =  SP
METHOD  =  B3LYP
SCF_CONVERGENCE = 8
SCF_ALGORITHM = RCA_DIIS
scf_guess = GWH
THRESH = 14
SOLVENT_METHOD = PCM
$end
$pcm
theory = CPCM
$end
$solvent
dielectric 37.219
opticaldielectric 1.43
$end

--------------------------------------------------------------

             Standard Nuclear Orientation (Angstroms)
    I     Atom           X                Y                Z
 ----------------------------------------------------------------
    1      C       0.1667190000     3.7960990000    -0.2079950000
    2      C      -0.9435890000     3.6787720000    -1.0384350000
    3      C      -1.0046290000     2.6502930000    -1.9805320000
    4      C       1.2166770000     2.8818360000    -0.3225590000
    5      C       1.1581360000     1.8459890000    -1.2692340000
    6      C       0.0414190000     1.7365620000    -2.0959760000
    7      C       2.3995900000     2.9919750000     0.5502890000
    8      C       3.4945910000     1.9936900000     0.3832880000
    9      C       3.4574510000     0.9804010000    -0.5169010000
   10      C       2.2807370000     0.8554670000    -1.4025350000
   11      O       2.5411800000     3.8562180000     1.4082880000
   12      O       2.2115330000    -0.0403210000    -2.2326460000
   13      H       0.2368660000     4.5850850000     0.5307630000
   14      H      -1.7602280000     4.3862620000    -0.9532100000
   15      H      -1.8705050000     2.5606650000    -2.6267170000
   16      H       0.0101320000     0.9329240000    -2.8211520000
   17      O       4.5324950000     2.1797380000     1.2150990000
   18      H       4.3053500000     2.9563510000     1.7611260000
   19      C       4.5838010000    -0.0025900000    -0.6729460000
   20      C       5.5927500000     0.4342430000    -1.7587920000
   21      C       6.7086500000    -0.5905800000    -2.0420980000
   22      C       7.5092720000    -0.1549650000    -3.2861210000
   23      C       8.5032040000    -1.1915130000    -3.8273300000
   24      C       9.1899160000    -0.7325660000    -5.1204270000
   25      C      10.1297900000    -1.7646190000    -5.7724710000
   26      C      10.5899470000    -1.2761190000    -7.1533610000
   27      C       7.6153780000    -0.8046160000    -0.8206730000
   28      C      11.3415430000    -2.0989720000    -4.8902660000
   29      H       4.1612410000    -0.9708110000    -0.9537160000
   30      H       5.0885460000    -0.1136710000     0.2880690000
   31      H       6.0438920000     1.3906310000    -1.4669320000
   32      H       5.0402020000     0.6145310000    -2.6863160000
   33      H       6.2231500000    -1.5478910000    -2.2801600000
   34      H       8.0447730000     0.7767080000    -3.0567910000
   35      H       6.7989640000     0.0930300000    -4.0845560000
   36      H       7.9713790000    -2.1334320000    -4.0175730000
   37      H       9.2590020000    -1.4125320000    -3.0681190000
   38      H       9.7566280000     0.1884740000    -4.9247110000
   39      H       8.4157360000    -0.4610100000    -5.8492320000
   40      H       9.5546920000    -2.6894640000    -5.9196650000
   41      H       9.7381110000    -1.0771120000    -7.8105430000
   42      H      11.2269640000    -2.0172170000    -7.6454300000
   43      H      11.1669670000    -0.3485940000    -7.0666670000
   44      H       8.3861690000    -1.5532640000    -1.0171820000
   45      H       7.0516090000    -1.1474520000     0.0501810000
   46      H       8.1184980000     0.1291490000    -0.5448930000
   47      H      11.0465280000    -2.5239710000    -3.9278470000
   48      H      11.9359150000    -1.1998490000    -4.6910990000
   49      H      11.9951660000    -2.8248730000    -5.3831800000
 ----------------------------------------------------------------

  112   -1003.7792698047      6.85E-09 Convergence criterion met
 Total energy in the final basis set = -1003.77926980

                    Orbital Energies (a.u.)
 --------------------------------------------------------------

 Alpha MOs
 -- Occupied --
-19.1777 -19.1493 -19.1297 -10.2933 -10.2810 -10.2666 -10.2103 -10.2091
-10.2031 -10.2004 -10.1984 -10.1967 -10.1966 -10.1741 -10.1679 -10.1664
-10.1640 -10.1557 -10.1549 -10.1546 -10.1502 -10.1500 -10.1496  -1.1079
 -1.0669  -1.0635  -0.8922  -0.8438  -0.8175  -0.8026  -0.7846  -0.7793
 -0.7506  -0.7247  -0.6925  -0.6778  -0.6723  -0.6593  -0.6468  -0.6173
 -0.6041  -0.5858  -0.5730  -0.5576  -0.5495  -0.5420  -0.5183  -0.4969
 -0.4794  -0.4750  -0.4712  -0.4677  -0.4592  -0.4520  -0.4511  -0.4430
 -0.4346  -0.4329  -0.4253  -0.4189  -0.4164  -0.4072  -0.4050  -0.3938
 -0.3873  -0.3791  -0.3780  -0.3766  -0.3759  -0.3693  -0.3591  -0.3536
 -0.3480  -0.3416  -0.3292  -0.3218  -0.3165  -0.3137  -0.3093  -0.3047
 -0.2989  -0.2890  -0.2799  -0.2792  -0.2553

          Ground-State Mulliken Net Atomic Charges

     Atom                 Charge (a.u.)
  ----------------------------------------
      1 C                     0.078131
      2 C                    -0.371856
      3 C                    -0.460285
      4 C                     0.612047
      5 C                    -0.205268
      6 C                     0.162000
      7 C                    -0.927528
      8 C                    -0.569268
      9 C                     2.023736
     10 C                    -0.800748
     11 O                    -0.322414
     12 O                    -0.288694
     13 H                     0.200965
     14 H                     0.227903
     15 H                     0.223128
     16 H                     0.201834
     17 O                    -0.224005
     18 H                     0.319686
     19 C                    -0.083903
     20 C                    -1.103161
     21 C                     1.235439
     22 C                    -0.714356
     23 C                    -0.011564
     24 C                    -0.858222
     25 C                     0.522737
     26 C                    -0.682278
     27 C                    -0.765239
     28 C                    -0.707731
     29 H                     0.231844
     30 H                     0.235939
     31 H                     0.194120
     32 H                     0.176652
     33 H                     0.138726
     34 H                     0.152406
     35 H                     0.115644
     36 H                     0.153129
     37 H                     0.102511
     38 H                     0.145933
     39 H                     0.135184
     40 H                     0.142978
     41 H                     0.140885
     42 H                     0.163242
     43 H                     0.144840
     44 H                     0.158792
     45 H                     0.145891
     46 H                     0.161594
     47 H                     0.147147
     48 H                     0.151208
     49 H                     0.150247
  ----------------------------------------
  Sum of atomic charges =     0.000000

                    Cartesian Multipole Moments
 -----------------------------------------------------------------
    Charge (ESU x 10^10)
                -0.0000
    Dipole Moment (Debye)
         X      -2.4103      Y       1.8357      Z      -0.0265
       Tot       3.0299
    Quadrupole Moments (Debye-Ang)
        XX    -140.3420     XY      -7.1268     YY    -137.8318
        XZ       5.7907     YZ      -6.1136     ZZ    -146.5261

 Total job time:  3175.44s(wall), 18863.77s(cpu)
        *  Thank you very much for using Q-Chem.  Have a nice day.  *
