 Q-Chem 5.4, Q-Chem, Inc., Pleasanton, CA (2021)
 Q-Chem 5.4.0 for Intel X86 EM64T Linux

User input:
--------------------------------------------------------------
$molecule
-1 2
C                 -1.8263900000      3.1489940000      0.2471810000
C                 -2.9569260000      2.4399920000     -0.1141610000
C                 -2.8509500000      1.0839200000     -0.4844030000
C                 -0.5562670000      2.5324910000      0.2516320000
C                 -0.4470420000      1.1622330000     -0.1225220000
C                 -1.6117930000      0.4639340000     -0.4856490000
C                  0.6268750000      3.2752790000      0.6300900000
C                  1.8807750000      2.5581460000      0.6021210000
C                  2.0221440000      1.2317410000      0.2521790000
C                  0.8573150000      0.4652820000     -0.1366270000
O                  0.6433600000      4.5009380000      0.9817940000
O                  0.9389300000     -0.7451830000     -0.4714540000
H                 -1.8823840000      4.1925800000      0.5359050000
H                 -3.9277910000      2.9272950000     -0.1131230000
H                 -3.7394280000      0.5275860000     -0.7681590000
H                 -1.5005570000     -0.5773620000     -0.7663510000
C                  3.3705300000      0.5577210000      0.2462250000
O                  2.9511580000      3.3227930000      0.9670350000
C                  4.0625190000      0.6047020000     -1.1290430000
H                  3.2281550000     -0.4891190000      0.5293370000
H                  4.0170400000      1.0309810000      0.9913250000
H                  2.5249180000      4.1875200000      1.1586830000
H                  3.4407920000      0.1141590000     -1.8821510000
H                  5.0325270000      0.0931270000     -1.1009190000
H                  4.2333310000      1.6384990000     -1.4435040000
$end
$rem
MAX_SCF_CYCLES=200
BASIS  =  6-311++G(d,p)
GUI  =  2
JOB_TYPE  =  SP
METHOD  =  B3LYP
SOLVENT_METHOD = COSMO
$end
$solvent
dielectric 37.219
opticaldielectric 1.43
$end

--------------------------------------------------------------

             Standard Nuclear Orientation (Angstroms)
    I     Atom           X                Y                Z
 ----------------------------------------------------------------
    1      C       2.5942488178    -1.0233835151    -0.1608361549
    2      C       3.6133191501    -0.0900315046    -0.2022270552
    3      C       3.3156454588     1.2844020770    -0.1044312293
    4      C       1.2485566006    -0.6197721924    -0.0211273416
    5      C       0.9456511918     0.7687673172     0.0775369698
    6      C       2.0001330911     1.6973106345     0.0327839190
    7      C       0.1821793915    -1.5973974185     0.0222088815
    8      C      -1.1617327587    -1.0869122340     0.1658480953
    9      C      -1.4902957937     0.2483044367     0.2709080578
   10      C      -0.4453787198     1.2490394596     0.2247147030
   11      O       0.3400123600    -2.8603825656    -0.0563068191
   12      O      -0.6982137448     2.4790908499     0.3086412885
   13      H       2.7980077011    -2.0857902957    -0.2339303778
   14      H       4.6442307449    -0.4150066992    -0.3101925413
   15      H       4.1166465937     2.0170356071    -0.1370415966
   16      H       1.7419842309     2.7475105546     0.1096195473
   17      C      -2.9216470718     0.6985891298     0.4156852300
   18      O      -2.1132870399    -2.0652987678     0.1953653628
   19      C      -3.5901079673     1.0272114819    -0.9324933351
   20      H      -2.9335399541     1.5972753758     1.0389978493
   21      H      -3.4983736610    -0.0802549369     0.9235361714
   22      H      -1.5682497728    -2.8789141036     0.1109453356
   23      H      -3.0403397408     1.8215606181    -1.4434854133
   24      H      -4.6238703417     1.3650632611    -0.7889419908
   25      H      -3.6080167468     0.1474784548    -1.5825300831
 ----------------------------------------------------------------

   10    -689.2466167651      6.09e-06  Convergence criterion met
 Total energy in the final basis set =     -689.2466167651
    4    -689.3275526180      9.58e-06  Convergence criterion met
 Total energy in the final basis set =     -689.3275526180

                    Orbital Energies (a.u.)
 --------------------------------------------------------------

 Alpha MOs
 -- Occupied --
-19.1448 -19.0894 -19.0779 -10.2261 -10.2237 -10.2230 -10.1756 -10.1734
-10.1727 -10.1717 -10.1711 -10.1697 -10.1637 -10.1594 -10.1508  -1.0649
 -1.0035  -0.9992  -0.8594  -0.8110  -0.7665  -0.7515  -0.7209  -0.6742
 -0.6333  -0.6148  -0.5826  -0.5698  -0.5375  -0.5054  -0.4846  -0.4620
 -0.4541  -0.4402  -0.4284  -0.4272  -0.4199  -0.4131  -0.3983  -0.3911
 -0.3819  -0.3779  -0.3616  -0.3545  -0.3462  -0.3423  -0.3324  -0.3305
 -0.2695  -0.2636  -0.2589  -0.2430  -0.2295  -0.1538

 Beta MOs
 -- Occupied --
-19.1444 -19.0832 -19.0726 -10.2247 -10.2222 -10.2207 -10.1755 -10.1727
-10.1723 -10.1709 -10.1706 -10.1699 -10.1629 -10.1595 -10.1507  -1.0627
 -0.9943  -0.9887  -0.8570  -0.8076  -0.7641  -0.7493  -0.7194  -0.6656
 -0.6316  -0.6127  -0.5808  -0.5672  -0.5357  -0.5031  -0.4817  -0.4604
 -0.4529  -0.4337  -0.4260  -0.4225  -0.4156  -0.4093  -0.3955  -0.3800
 -0.3785  -0.3732  -0.3580  -0.3460  -0.3414  -0.3332  -0.3306  -0.3268
 -0.2581  -0.2519  -0.2497  -0.2381  -0.2208

          Ground-State Mulliken Net Atomic Charges

     Atom                 Charge (a.u.)    Spin (a.u.)
  --------------------------------------------------------
      1 C                     0.051799       0.078171
      2 C                    -0.423825      -0.000738
      3 C                    -0.467031       0.071792
      4 C                     0.178881      -0.018013
      5 C                     0.443373       0.076490
      6 C                     0.101265      -0.000741
      7 C                    -0.673589       0.190214
      8 C                    -0.658747       0.050878
      9 C                     1.548084       0.037415
     10 C                    -0.792709       0.082853
     11 O                    -0.554776       0.223627
     12 O                    -0.491434       0.191560
     13 H                     0.188577      -0.003555
     14 H                     0.199555      -0.000585
     15 H                     0.199407      -0.005206
     16 H                     0.181789       0.000102
     17 C                    -0.209281       0.003725
     18 O                    -0.307734       0.016333
     19 C                    -0.641386       0.004990
     20 H                     0.172763       0.001580
     21 H                     0.182195       0.000195
     22 H                     0.309678      -0.002919
     23 H                     0.167327      -0.001106
     24 H                     0.139806       0.002422
     25 H                     0.156011       0.000517
  --------------------------------------------------------
  Sum of atomic charges =    -1.000000

                    Cartesian Multipole Moments
 -----------------------------------------------------------------
    Charge (ESU x 10^10)
                -4.8032
    Dipole Moment (Debye)
         X       2.0342      Y       0.5538      Z      -0.7259
       Tot       2.2298
    Quadrupole Moments (Debye-Ang)
        XX     -93.1695     XY       5.1146     YY    -122.6214
        XZ       0.1344     YZ      -1.7938     ZZ     -94.3360

 Total job time:  62.28s(wall), 468.21s(cpu)
        *  Thank you very much for using Q-Chem.  Have a nice day.  *
