 Gaussian 16, Revision A.03,
 Gaussian 16:  ES64L-G16RevA.03 25-Dec-2016

 --------------------------------------
 #P UB3LYP/6-311++G(d,p) nosym opt freq
 --------------------------------------

 -------
 Reduced
 -------
 Symbolic Z-matrix:
 Charge = -2 Multiplicity = 1

 SCF Done:  E(UB3LYP) =  -653.173041503     A.U. after   83 cycles
 SCF Done:  E(UB3LYP) =  -653.195470669     A.U. after   60 cycles
 SCF Done:  E(UB3LYP) =  -653.199592737     A.U. after   34 cycles
 SCF Done:  E(UB3LYP) =  -653.200493958     A.U. after   36 cycles
 SCF Done:  E(UB3LYP) =  -653.200789238     A.U. after   33 cycles
 SCF Done:  E(UB3LYP) =  -653.200900453     A.U. after   32 cycles
 SCF Done:  E(UB3LYP) =  -653.200939046     A.U. after   30 cycles
 SCF Done:  E(UB3LYP) =  -653.200943614     A.U. after   28 cycles
 SCF Done:  E(UB3LYP) =  -653.200955282     A.U. after   29 cycles
 SCF Done:  E(UB3LYP) =  -652.991897751     A.U. after   28 cycles
 SCF Done:  E(UB3LYP) =  -653.203858191     A.U. after   31 cycles
 SCF Done:  E(UB3LYP) =  -653.203860142     A.U. after   30 cycles
 SCF Done:  E(UB3LYP) =  -653.203863543     A.U. after   29 cycles
 SCF Done:  E(UB3LYP) =  -653.203864747     A.U. after   29 cycles
 SCF Done:  E(UB3LYP) =  -653.203824050     A.U. after   29 cycles
 SCF Done:  E(UB3LYP) =  -653.203824148     A.U. after   28 cycles
 SCF Done:  E(UB3LYP) =  -653.203824482     A.U. after   29 cycles
 SCF Done:  E(UB3LYP) =  -653.203864995     A.U. after   27 cycles
 SCF Done:  E(UB3LYP) =  -653.203824578     A.U. after   35 cycles
 Optimization completed.
    -- Stationary point found.
 Normal termination of Gaussian 16 at Tue Dec 26 23:22:54 2023.

 ----------------------------------------------------------------------
 #P Geom=AllCheck Guess=TCheck SCRF=Check GenChk UB3LYP/6-311++G(d,p) F
 req
 ----------------------------------------------------------------------

 Structure from the checkpoint file:  "255-an.chk"
 -------
 Reduced
 -------
 Charge = -2 Multiplicity = 1

                          Input orientation:
 ---------------------------------------------------------------------
 Center     Atomic      Atomic             Coordinates (Angstroms)
 Number     Number       Type             X           Y           Z
 ---------------------------------------------------------------------
      1          6           0       -1.621296    2.792956    0.037847
      2          6           0       -2.878720    2.232145    0.081489
      3          6           0       -3.004698    0.823200    0.103203
      4          6           0       -0.451010    1.997117    0.015711
      5          6           0       -0.570228    0.550763    0.020368
      6          6           0       -1.892165   -0.009066    0.076124
      7          6           0        0.833562    2.684951   -0.011488
      8          6           0        1.976470    1.833142   -0.042079
      9          6           0        1.875786    0.424102   -0.037906
     10          6           0        0.630446   -0.283009   -0.025065
     11          8           0        0.912537    3.978646   -0.006250
     12          8           0        0.583843   -1.578600   -0.051186
     13          6           0        3.328641    2.507018   -0.079208
     14          6           0        3.127443   -0.423144   -0.058716
     15          6           0       -2.148070   -1.504262    0.090516
     16          1           0       -1.470199    3.867486    0.022068
     17          1           0       -3.770620    2.857799    0.100684
     18          1           0       -3.996992    0.374167    0.128547
     19          1           0        3.169700    3.583040   -0.185773
     20          1           0        3.953852    2.148669   -0.911340
     21          1           0        3.913528    2.336265    0.840584
     22          1           0        3.847737   -0.123782    0.717452
     23          1           0        3.667017   -0.360791   -1.019809
     24          1           0        2.838042   -1.465416    0.095406
     25          1           0       -1.629336   -1.995212    0.915510
     26          1           0       -1.757112   -1.985038   -0.809725
     27          1           0       -3.228439   -1.693546    0.171314
 ---------------------------------------------------------------------

 SCF Done:  E(UB3LYP) =  -653.203824578     A.U. after    2 cycles

 Alpha  occ. eigenvalues --  -18.76569 -18.76528  -9.92673  -9.92452  -9.92251
 Alpha  occ. eigenvalues --   -9.91565  -9.91346  -9.91224  -9.91100  -9.91020
 Alpha  occ. eigenvalues --   -9.90291  -9.89965  -9.89265  -9.88698  -9.88644
 Alpha  occ. eigenvalues --   -0.68238  -0.67754  -0.58684  -0.54140  -0.51011
 Alpha  occ. eigenvalues --   -0.48763  -0.46647  -0.43038  -0.40725  -0.38028
 Alpha  occ. eigenvalues --   -0.32411  -0.31951  -0.26766  -0.23939  -0.22365
 Alpha  occ. eigenvalues --   -0.19938  -0.18946  -0.17881  -0.16526  -0.15749
 Alpha  occ. eigenvalues --   -0.14844  -0.14599  -0.13329  -0.13204  -0.11984
 Alpha  occ. eigenvalues --   -0.11780  -0.10938  -0.10141  -0.08895  -0.06874
 Alpha  occ. eigenvalues --   -0.06683  -0.05795  -0.05683   0.01837   0.02707
 Alpha  occ. eigenvalues --    0.04021   0.05344   0.06097   0.14192
 Alpha virt. eigenvalues --    0.15825   0.17094   0.17233   0.19019   0.19332
 Alpha virt. eigenvalues --    0.20286   0.21364   0.21625   0.22115   0.22591
 Alpha virt. eigenvalues --    0.22842   0.23873   0.24616   0.24935   0.25339

  Beta  occ. eigenvalues --  -18.76569 -18.76528  -9.92673  -9.92452  -9.92251
  Beta  occ. eigenvalues --   -9.91565  -9.91346  -9.91224  -9.91100  -9.91020
  Beta  occ. eigenvalues --   -9.90291  -9.89965  -9.89265  -9.88698  -9.88644
  Beta  occ. eigenvalues --   -0.68238  -0.67754  -0.58684  -0.54140  -0.51011
  Beta  occ. eigenvalues --   -0.48763  -0.46647  -0.43038  -0.40725  -0.38028
  Beta  occ. eigenvalues --   -0.32411  -0.31951  -0.26766  -0.23939  -0.22365
  Beta  occ. eigenvalues --   -0.19938  -0.18946  -0.17881  -0.16526  -0.15749
  Beta  occ. eigenvalues --   -0.14844  -0.14599  -0.13329  -0.13204  -0.11984
  Beta  occ. eigenvalues --   -0.11780  -0.10938  -0.10141  -0.08895  -0.06874
  Beta  occ. eigenvalues --   -0.06683  -0.05795  -0.05683   0.01837   0.02707
  Beta  occ. eigenvalues --    0.04021   0.05344   0.06097   0.14192
  Beta virt. eigenvalues --    0.15825   0.17094   0.17233   0.19019   0.19332
  Beta virt. eigenvalues --    0.20286   0.21364   0.21625   0.22115   0.22591
  Beta virt. eigenvalues --    0.22842   0.23873   0.24616   0.24935   0.25339

 Mulliken charges and spin densities:
               1          2
     1  C   -0.260580  -0.000000
     2  C    0.360526   0.000000
     3  C    0.032166  -0.000000
     4  C    1.009096  -0.000000
     5  C    0.262563   0.000000
     6  C   -0.325085   0.000000
     7  C   -1.318385   0.000000
     8  C    0.874435   0.000000
     9  C    0.920778  -0.000000
    10  C   -1.680297   0.000000
    11  O   -0.523593   0.000000
    12  O   -0.494714   0.000000
    13  C   -0.716671   0.000000
    14  C   -0.482442  -0.000000
    15  C    0.188360   0.000000
    16  H    0.172853   0.000000
    17  H   -0.361360  -0.000000
    18  H   -0.349206  -0.000000
    19  H    0.172414  -0.000000
    20  H    0.084129   0.000000
    21  H    0.069402   0.000000
    22  H    0.083031  -0.000000
    23  H    0.066825  -0.000000
    24  H    0.190851   0.000000
    25  H    0.150072   0.000000
    26  H    0.173329   0.000000
    27  H   -0.298497  -0.000000
 Sum of Mulliken charges =  -2.00000   0.00000

 Dipole moment (field-independent basis, Debye):
    X=              1.3681    Y=            -11.1422    Z=             -0.1498  Tot=             11.2269
 Quadrupole moment (field-independent basis, Debye-Ang):
   XX=           -160.0306   YY=           -173.2906   ZZ=           -104.6921
   XY=             -4.3809   XZ=              2.1636   YZ=              0.8707

  Exact polarizability:1987.663  -2.3012123.351 -44.551-256.009 190.583
 Approx polarizability:3312.710 319.405 809.596-138.240 -67.551 225.947

                      1                      2                      3
                      A                      A                      A
 Frequencies --     54.1147                61.8994                75.9898
 Red. masses --      1.4621                 2.2914                 4.1586
 Frc consts  --      0.0025                 0.0052                 0.0141
 IR Inten    --      3.0582                 2.3059                 6.0709

                      4                      5                      6
                      A                      A                      A
 Frequencies --    123.2886               132.3764               171.9357
 Red. masses --      1.0816                 2.6810                 1.7956
 Frc consts  --      0.0097                 0.0277                 0.0313
 IR Inten    --      4.6830                 1.0324                18.3588

                      7                      8                      9
                      A                      A                      A
 Frequencies --    187.4493               232.4562               245.7658
 Red. masses --      1.8691                 2.5090                 3.6787
 Frc consts  --      0.0387                 0.0799                 0.1309
 IR Inten    --     20.6693                15.1591                28.2450

                     10                     11                     12
                      A                      A                      A
 Frequencies --    297.2435               314.3124               348.3349
 Red. masses --      3.8683                 2.6262                 3.6984
 Frc consts  --      0.2014                 0.1529                 0.2644
 IR Inten    --      2.7441                11.4537                45.2637

                     13                     14                     15
                      A                      A                      A
 Frequencies --    350.7497               376.4750               383.8977
 Red. masses --      4.8497                 6.7905                 8.4727
 Frc consts  --      0.3515                 0.5671                 0.7357
 IR Inten    --     72.7923                62.9524               124.6942

                     16                     17                     18
                      A                      A                      A
 Frequencies --    413.1611               446.3009               499.4044
 Red. masses --      6.6332                 4.1497                 7.0969
 Frc consts  --      0.6671                 0.4870                 1.0428
 IR Inten    --    717.0394               380.1745               596.5087

                     19                     20                     21
                      A                      A                      A
 Frequencies --    513.0235               514.9959               559.8575
 Red. masses --      3.7737                 4.1133                 4.6738
 Frc consts  --      0.5852                 0.6428                 0.8631
 IR Inten    --    206.5048                 4.0537               119.4478

                     22                     23                     24
                      A                      A                      A
 Frequencies --    609.8317               670.7612               686.4125
 Red. masses --      5.3863                 4.1940                 4.4862
 Frc consts  --      1.1802                 1.1118                 1.2454
 IR Inten    --     14.1205                84.6090                63.0583

                     25                     26                     27
                      A                      A                      A
 Frequencies --    719.0460               772.3372               800.4676
 Red. masses --      3.7061                 1.7253                 4.0908
 Frc consts  --      1.1290                 0.6064                 1.5443
 IR Inten    --      3.8985                14.9212               174.2498

                     28                     29                     30
                      A                      A                      A
 Frequencies --    811.6888               840.7211               848.6720
 Red. masses --      3.1156                 1.5735                 3.9100
 Frc consts  --      1.2094                 0.6553                 1.6592
 IR Inten    --      3.7032                58.5389               147.2934

                     31                     32                     33
                      A                      A                      A
 Frequencies --    936.4265               963.8640               981.7623
 Red. masses --      2.3808                 1.2716                 2.9530
 Frc consts  --      1.2301                 0.6961                 1.6770
 IR Inten    --     22.8198               150.6200                59.9515

                     34                     35                     36
                      A                      A                      A
 Frequencies --    999.6426              1023.9826              1027.3889
 Red. masses --      1.5907                 1.5060                 2.0878
 Frc consts  --      0.9365                 0.9304                 1.2984
 IR Inten    --     81.5442                11.6811               150.5111

                     37                     38                     39
                      A                      A                      A
 Frequencies --   1042.5483              1053.1839              1073.6062
 Red. masses --      1.4900                 1.5168                 2.0885
 Frc consts  --      0.9542                 0.9913                 1.4183
 IR Inten    --     22.8778               103.5275               833.6123

                     40                     41                     42
                      A                      A                      A
 Frequencies --   1094.7748              1135.0405              1161.9584
 Red. masses --      2.6160                 1.6198                 2.3599
 Frc consts  --      1.8473                 1.2295                 1.8773
 IR Inten    --      9.7035                45.0127                83.4462

                     43                     44                     45
                      A                      A                      A
 Frequencies --   1220.1924              1223.8200              1253.5782
 Red. masses --      3.9827                 3.6137                 2.3585
 Frc consts  --      3.4937                 3.1889                 2.1837
 IR Inten    --    332.6777               142.9883                30.0527

                     46                     47                     48
                      A                      A                      A
 Frequencies --   1307.5703              1332.7967              1350.4371
 Red. masses --      5.6855                 1.5232                 1.8329
 Frc consts  --      5.7273                 1.5942                 1.9694
 IR Inten    --   3080.9983                97.3925               446.7040

                     49                     50                     51
                      A                      A                      A
 Frequencies --   1382.9292              1390.3100              1402.7251
 Red. masses --      2.9134                 2.4808                 1.4496
 Frc consts  --      3.2828                 2.8253                 1.6805
 IR Inten    --    385.0219              2373.1231               554.3062

                     52                     53                     54
                      A                      A                      A
 Frequencies --   1411.7119              1424.9885              1448.1647
 Red. masses --      2.7558                 2.4969                 1.0560
 Frc consts  --      3.2358                 2.9873                 1.3048
 IR Inten    --    141.9747                38.6304               183.9403

                     55                     56                     57
                      A                      A                      A
 Frequencies --   1465.4164              1467.8552              1475.5098
 Red. masses --      1.4218                 1.4655                 1.1706
 Frc consts  --      1.7990                 1.8604                 1.5016
 IR Inten    --      1.7921              1226.3674               380.0857

                     58                     59                     60
                      A                      A                      A
 Frequencies --   1477.4303              1494.9939              1498.4147
 Red. masses --      1.2513                 1.6474                 1.4795
 Frc consts  --      1.6093                 2.1694                 1.9571
 IR Inten    --   1160.7834              1800.9315               537.2536

                     61                     62                     63
                      A                      A                      A
 Frequencies --   1507.4070              1557.0860              1581.4421
 Red. masses --      1.9649                 6.3091                 4.7252
 Frc consts  --      2.6306                 9.0124                 6.9627
 IR Inten    --     65.6645              2899.9263               249.6215

                     64                     65                     66
                      A                      A                      A
 Frequencies --   2896.8194              2917.2876              2946.9438
 Red. masses --      1.0828                 1.0573                 1.0553
 Frc consts  --      5.3537                 5.3016                 5.3998
 IR Inten    --   1260.5187               166.4821              1694.7204

                     67                     68                     69
                      A                      A                      A
 Frequencies --   2957.8583              2965.0891              3062.7966
 Red. masses --      1.0811                 1.0543                 1.0846
 Frc consts  --      5.5728                 5.4610                 5.9948
 IR Inten    --    264.3849               187.3358               237.9659

                     70                     71                     72
                      A                      A                      A
 Frequencies --   3072.6994              3074.6148              3082.5848
 Red. masses --      1.0912                 1.0909                 1.0843
 Frc consts  --      6.0703                 6.0761                 6.0705
 IR Inten    --     28.8145                30.6567               300.0791

                     73                     74                     75
                      A                      A                      A
 Frequencies --   3085.5004              3106.6337              3161.0170
 Red. masses --      1.0931                 1.0919                 1.0907
 Frc consts  --      6.1315                 6.2090                 6.4209
 IR Inten    --    297.9633               489.4184                48.4019

 - Thermochemistry -
 -------------------
 Temperature   298.150 Kelvin.  Pressure   1.00000 Atm.
 Atom     1 has atomic number  6 and mass  12.00000

 Molecular mass:   200.08373 amu.
 Principal axes and moments of inertia in atomic units:
                           1         2         3
     Eigenvalues --  2036.941013074.160005077.59631
           X            0.97275  -0.23022   0.02756
           Y            0.23034   0.97311  -0.00117
           Z           -0.02655   0.00748   0.99962
 This molecule is an asymmetric top.
 Rotational symmetry number  1.
 Warning -- assumption of classical behavior for rotation
           may cause significant error
 Rotational temperatures (Kelvin)      0.04252     0.02817     0.01706
 Rotational constants (GHZ):           0.88601     0.58707     0.35543
 Zero-point vibrational energy     547661.0 (Joules/Mol)
                                  130.89413 (Kcal/Mol)
 Warning -- explicit consideration of  22 degrees of freedom as
           vibrations may cause significant error
 Vibrational temperatures:     77.86    89.06   109.33   177.38   190.46
          (Kelvin)            247.38   269.70   334.45   353.60   427.67
                              452.23   501.18   504.65   541.66   552.34
                              594.45   642.13   718.53   738.13   740.96
                              805.51   877.41   965.08   987.59  1034.55
                             1111.22  1151.69  1167.84  1209.61  1221.05
                             1347.31  1386.79  1412.54  1438.26  1473.28
                             1478.18  1499.99  1515.30  1544.68  1575.14
                             1633.07  1671.80  1755.58  1760.80  1803.62
                             1881.30  1917.60  1942.98  1989.73  2000.35
                             2018.21  2031.14  2050.24  2083.59  2108.41
                             2111.92  2122.93  2125.69  2150.96  2155.88
                             2168.82  2240.30  2275.34  4167.88  4197.33
                             4239.99  4255.70  4266.10  4406.68  4420.93
                             4423.68  4435.15  4439.35  4469.75  4548.00

 Zero-point correction=                           0.208593 (Hartree/Particle)
 Thermal correction to Energy=                    0.222433
 Thermal correction to Enthalpy=                  0.223377
 Thermal correction to Gibbs Free Energy=         0.168266
 Sum of electronic and zero-point Energies=           -652.995232
 Sum of electronic and thermal Energies=              -652.981392
 Sum of electronic and thermal Enthalpies=            -652.980447
 Sum of electronic and thermal Free Energies=         -653.035558

                     E (Thermal)             CV                S
                      KCal/Mol        Cal/Mol-Kelvin    Cal/Mol-Kelvin
 Total                  139.579             53.144            115.991
 Electronic               0.000              0.000              0.000
 Translational            0.889              2.981             41.785
 Rotational               0.889              2.981             31.831
 Vibrational            137.801             47.183             42.374
 Vibration     1          0.596              1.976              4.661
 Vibration     2          0.597              1.972              4.396
 Vibration     3          0.599              1.965              3.992
 Vibration     4          0.610              1.930              3.048
 Vibration     5          0.612              1.921              2.911
 Vibration     6          0.626              1.877              2.414
 Vibration     7          0.632              1.857              2.253
 Vibration     8          0.653              1.791              1.860
 Vibration     9          0.660              1.770              1.761
 Vibration    10          0.691              1.679              1.432
 Vibration    11          0.702              1.646              1.340
 Vibration    12          0.726              1.579              1.174
 Vibration    13          0.728              1.574              1.163
 Vibration    14          0.747              1.520              1.053
 Vibration    15          0.753              1.505              1.024
 Vibration    16          0.777              1.442              0.916
 Vibration    17          0.806              1.369              0.807
 Vibration    18          0.855              1.251              0.660
 Vibration    19          0.868              1.221              0.626
 Vibration    20          0.870              1.217              0.622
 Vibration    21          0.915              1.118              0.524
 Vibration    22          0.969              1.011              0.433

                           ! Non-Optimized Parameters !
 Normal termination of Gaussian 16 at Tue Dec 26 23:45:38 2023.
