 Gaussian 16, Revision A.03,
 Gaussian 16:  ES64L-G16RevA.03 25-Dec-2016

 --------------------------------------
 #P UB3LYP/6-311++G(d,p) nosym opt freq
 --------------------------------------

 -------
 Radical
 -------
 Symbolic Z-matrix:
 Charge = -1 Multiplicity = 2

 SCF Done:  E(UB3LYP) =  -846.272572218     A.U. after   21 cycles
 SCF Done:  E(UB3LYP) =  -846.304520476     A.U. after   18 cycles
 SCF Done:  E(UB3LYP) =  -846.313853212     A.U. after   18 cycles
 SCF Done:  E(UB3LYP) =  -846.315840267     A.U. after   15 cycles
 SCF Done:  E(UB3LYP) =  -846.315946234     A.U. after   14 cycles
 SCF Done:  E(UB3LYP) =  -846.316014894     A.U. after   14 cycles
 SCF Done:  E(UB3LYP) =  -846.316046744     A.U. after   14 cycles
 SCF Done:  E(UB3LYP) =  -846.316145850     A.U. after   13 cycles
 SCF Done:  E(UB3LYP) =  -846.316267937     A.U. after   16 cycles
 SCF Done:  E(UB3LYP) =  -846.316380297     A.U. after   14 cycles
 SCF Done:  E(UB3LYP) =  -846.316487177     A.U. after   11 cycles
 SCF Done:  E(UB3LYP) =  -846.316488252     A.U. after   10 cycles
 SCF Done:  E(UB3LYP) =  -846.316488313     A.U. after    8 cycles
 SCF Done:  E(UB3LYP) =  -846.316488400     A.U. after    7 cycles
 SCF Done:  E(UB3LYP) =  -846.316488478     A.U. after    8 cycles
 SCF Done:  E(UB3LYP) =  -846.316488513     A.U. after    7 cycles
 SCF Done:  E(UB3LYP) =  -846.316488547     A.U. after    7 cycles
 SCF Done:  E(UB3LYP) =  -846.316488581     A.U. after    7 cycles
 SCF Done:  E(UB3LYP) =  -846.316488607     A.U. after    7 cycles
 Optimization completed.
    -- Stationary point found.
 Normal termination of Gaussian 16 at Thu Dec 21 09:43:27 2023.

 ----------------------------------------------------------------------
 #P Geom=AllCheck Guess=TCheck SCRF=Check GenChk UB3LYP/6-311++G(d,p) F
 req
 ----------------------------------------------------------------------

 Structure from the checkpoint file:  "131-rad.chk"
 -------
 Radical
 -------
 Charge = -1 Multiplicity = 2

                          Input orientation:
 ---------------------------------------------------------------------
 Center     Atomic      Atomic             Coordinates (Angstroms)
 Number     Number       Type             X           Y           Z
 ---------------------------------------------------------------------
      1          6           0       -4.836249    1.130584   -1.575271
      2          6           0       -3.603150    0.615839   -0.871258
      3          6           0       -3.729519   -0.229073    0.254628
      4          6           0       -2.636345   -0.732467    0.941186
      5          6           0       -2.904151   -1.627107    2.131056
      6          6           0       -1.316181   -0.389132    0.500926
      7          6           0       -0.118662   -0.884353    1.178064
      8          8           0       -0.167655   -1.639395    2.184765
      9          6           0        1.181814   -0.464073    0.635264
     10          6           0        2.334150   -0.945681    1.294279
     11          6           0        3.603165   -0.615561    0.871427
     12          6           0        4.836262   -1.129892    1.575784
     13          6           0        3.729526    0.229198   -0.254534
     14          6           0        2.636323    0.732275   -0.941325
     15          6           0        2.904133    1.626761   -2.131315
     16          6           0        1.316210    0.388770   -0.501177
     17          6           0        0.118665    0.883791   -1.178473
     18          8           0        0.167697    1.638498   -2.185411
     19          6           0       -1.181794    0.463777   -0.635461
     20          6           0       -2.334138    0.945695   -1.294268
     21          1           0       -5.454488    0.308591   -1.956577
     22          1           0       -5.469413    1.718657   -0.899583
     23          1           0       -4.567890    1.767740   -2.421482
     24          1           0       -4.726043   -0.497501    0.599355
     25          1           0       -2.450931   -2.612016    2.003995
     26          1           0       -2.464372   -1.223640    3.045036
     27          1           0       -3.984937   -1.741426    2.269442
     28          1           0        2.174522   -1.589695    2.151623
     29          1           0        5.470181   -1.717118    0.900074
     30          1           0        4.567862   -1.767727    2.421464
     31          1           0        5.453722   -0.307699    1.957926
     32          1           0        4.726033    0.497799   -0.599178
     33          1           0        3.984911    1.741460   -2.269417
     34          1           0        2.450453    2.611505   -2.004644
     35          1           0        2.464786    1.222880   -3.045328
     36          1           0       -2.174498    1.589737   -2.151590
 ---------------------------------------------------------------------

 SCF Done:  E(UB3LYP) =  -846.316488607     A.U. after    1 cycles

 Alpha  occ. eigenvalues --  -18.94019 -18.94018 -10.09331 -10.09330 -10.06868
 Alpha  occ. eigenvalues --  -10.06868 -10.06460 -10.06460 -10.06201 -10.06201
 Alpha  occ. eigenvalues --  -10.04819 -10.04819 -10.04805 -10.04804 -10.04538
 Alpha  occ. eigenvalues --  -10.04537 -10.04283 -10.04283 -10.04071 -10.04071
 Alpha  occ. eigenvalues --   -0.86939  -0.86667  -0.74122  -0.73633  -0.67724
 Alpha  occ. eigenvalues --   -0.66466  -0.65875  -0.63443  -0.59301  -0.57746
 Alpha  occ. eigenvalues --   -0.57185  -0.56440  -0.52279  -0.50188  -0.47468
 Alpha  occ. eigenvalues --   -0.44547  -0.41712  -0.41169  -0.38159  -0.35918
 Alpha  occ. eigenvalues --   -0.34419  -0.34235  -0.32280  -0.32217  -0.32068
 Alpha  occ. eigenvalues --   -0.30319  -0.30268  -0.29538  -0.29377  -0.29063
 Alpha  occ. eigenvalues --   -0.29036  -0.28207  -0.27853  -0.27431  -0.27010
 Alpha  occ. eigenvalues --   -0.25557  -0.24893  -0.24553  -0.24372  -0.22256
 Alpha  occ. eigenvalues --   -0.22202  -0.22122  -0.20781  -0.20438  -0.13521
 Alpha  occ. eigenvalues --   -0.12534  -0.12392  -0.11827  -0.10867  -0.10075
 Alpha  occ. eigenvalues --   -0.01010
 Alpha virt. eigenvalues --    0.07495   0.07521   0.07652   0.09112   0.09206
 Alpha virt. eigenvalues --    0.09227   0.10603   0.10808   0.11307   0.11640
 Alpha virt. eigenvalues --    0.11661   0.11930   0.12453   0.12950   0.13510

  Beta  occ. eigenvalues --  -18.93426 -18.93425 -10.09193 -10.09192 -10.06874
  Beta  occ. eigenvalues --  -10.06874 -10.06467 -10.06467 -10.06136 -10.06136
  Beta  occ. eigenvalues --  -10.04773 -10.04773 -10.04741 -10.04740 -10.04426
  Beta  occ. eigenvalues --  -10.04425 -10.04283 -10.04283 -10.04081 -10.04081
  Beta  occ. eigenvalues --   -0.85930  -0.85627  -0.73899  -0.73522  -0.67410
  Beta  occ. eigenvalues --   -0.66363  -0.65723  -0.63273  -0.59194  -0.57599
  Beta  occ. eigenvalues --   -0.56898  -0.56386  -0.51746  -0.49987  -0.47273
  Beta  occ. eigenvalues --   -0.44484  -0.41484  -0.40968  -0.38035  -0.35775
  Beta  occ. eigenvalues --   -0.34353  -0.34044  -0.32111  -0.32069  -0.31976
  Beta  occ. eigenvalues --   -0.30212  -0.29928  -0.29424  -0.29344  -0.28914
  Beta  occ. eigenvalues --   -0.28853  -0.28163  -0.27792  -0.27012  -0.26101
  Beta  occ. eigenvalues --   -0.25393  -0.24797  -0.24399  -0.22592  -0.22160
  Beta  occ. eigenvalues --   -0.22112  -0.21299  -0.20605  -0.19312  -0.12104
  Beta  occ. eigenvalues --   -0.11737  -0.11241  -0.11152  -0.10328  -0.09535
  Beta virt. eigenvalues --    0.04846   0.07487   0.07512   0.08503   0.09103
  Beta virt. eigenvalues --    0.09217   0.09836   0.10600   0.10871   0.11297
  Beta virt. eigenvalues --    0.11822   0.11928   0.12068   0.12456   0.12940

 Mulliken charges and spin densities:
               1          2
     1  C   -0.384092  -0.004832
     2  C    0.576976   0.042773
     3  C   -0.447101   0.051374
     4  C    0.494474   0.006427
     5  C   -0.583465   0.004046
     6  C    0.268441   0.035939
     7  C   -1.032605   0.062340
     8  O   -0.339314   0.220225
     9  C    0.220393   0.073622
    10  C   -0.314083   0.006672
    11  C    0.576991   0.042752
    12  C   -0.384101  -0.004830
    13  C   -0.447108   0.051375
    14  C    0.494517   0.006425
    15  C   -0.583444   0.004046
    16  C    0.268428   0.035920
    17  C   -1.032596   0.062332
    18  O   -0.339299   0.220211
    19  C    0.220377   0.073651
    20  C   -0.314076   0.006654
    21  H    0.133626   0.003844
    22  H    0.133583   0.003842
    23  H    0.143998   0.000116
    24  H    0.060430  -0.003686
    25  H    0.164977  -0.000369
    26  H    0.164999  -0.000370
    27  H    0.109450  -0.000711
    28  H    0.129281  -0.001226
    29  H    0.133540   0.003838
    30  H    0.144000   0.000116
    31  H    0.133667   0.003845
    32  H    0.060426  -0.003686
    33  H    0.109452  -0.000710
    34  H    0.164982  -0.000370
    35  H    0.164991  -0.000370
    36  H    0.129281  -0.001225
 Sum of Mulliken charges =  -1.00000   1.00000

 Dipole moment (field-independent basis, Debye):
    X=              0.0000    Y=              0.0017    Z=              0.0010  Tot=              0.0020
 Quadrupole moment (field-independent basis, Debye-Ang):
   XX=           -139.6225   YY=           -135.6095   ZZ=           -143.4142
   XY=             -0.7373   XZ=              0.7946   YZ=             13.3649

  Exact polarizability: 413.638  -7.684 179.516  14.229 -70.338 220.966
 Approx polarizability: 577.001  -9.655 308.518  17.977-135.094 387.949

                      1                      2                      3
                      A                      A                      A
 Frequencies --     33.7923                46.2296                71.7574
 Red. masses --      5.2777                 3.4295                 3.5222
 Frc consts  --      0.0036                 0.0043                 0.0107
 IR Inten    --      5.8115                 0.6695                 0.0000

                      4                      5                      6
                      A                      A                      A
 Frequencies --     90.0304                91.5272               138.2517
 Red. masses --      1.0564                 1.1590                 4.7826
 Frc consts  --      0.0050                 0.0057                 0.0539
 IR Inten    --      0.0053                 0.0000                 0.3510

                      7                      8                      9
                      A                      A                      A
 Frequencies --    159.0762               161.5239               192.5197
 Red. masses --      3.3306                 3.7468                 2.2556
 Frc consts  --      0.0497                 0.0576                 0.0493
 IR Inten    --      0.0000                 2.9193                 6.1165

                     10                     11                     12
                      A                      A                      A
 Frequencies --    193.9816               219.6615               229.8059
 Red. masses --      1.6149                 1.2341                 1.5975
 Frc consts  --      0.0358                 0.0351                 0.0497
 IR Inten    --      0.0002                 0.5977                 0.0000

                     13                     14                     15
                      A                      A                      A
 Frequencies --    238.2748               273.8014               294.9260
 Red. masses --      3.2855                 4.0363                 3.8637
 Frc consts  --      0.1099                 0.1783                 0.1980
 IR Inten    --      0.0000                 0.8259                 0.0000

                     16                     17                     18
                      A                      A                      A
 Frequencies --    303.7962               326.4548               336.8170
 Red. masses --      2.6669                 4.9576                 5.5168
 Frc consts  --      0.1450                 0.3113                 0.3687
 IR Inten    --      4.4920                 0.0000                 0.0000

                     19                     20                     21
                      A                      A                      A
 Frequencies --    376.8555               376.9979               428.7916
 Red. masses --      5.6800                 7.3528                 4.7286
 Frc consts  --      0.4753                 0.6157                 0.5122
 IR Inten    --      0.0000                 4.5000                 9.2164

                     22                     23                     24
                      A                      A                      A
 Frequencies --    454.1788               473.4753               494.9565
 Red. masses --      6.1796                 5.9612                 3.8757
 Frc consts  --      0.7510                 0.7874                 0.5594
 IR Inten    --      0.0000                 0.0000                 2.3225

                     25                     26                     27
                      A                      A                      A
 Frequencies --    508.5559               528.6521               552.9208
 Red. masses --      5.1327                 4.3730                 4.8843
 Frc consts  --      0.7821                 0.7201                 0.8798
 IR Inten    --      0.0000                 2.4593                 0.0002

                     28                     29                     30
                      A                      A                      A
 Frequencies --    553.8164               555.9616               572.4224
 Red. masses --      3.6111                 3.4970                 4.4353
 Frc consts  --      0.6526                 0.6368                 0.8563
 IR Inten    --      4.7055                 0.0000                 6.6563

                     31                     32                     33
                      A                      A                      A
 Frequencies --    650.0079               654.3668               677.1586
 Red. masses --      3.6846                 5.4089                 5.4291
 Frc consts  --      0.9172                 1.3646                 1.4668
 IR Inten    --      0.0000                 0.0000                 8.1703

                     34                     35                     36
                      A                      A                      A
 Frequencies --    729.5696               749.8968               800.2192
 Red. masses --      4.0858                 6.8831                 5.9428
 Frc consts  --      1.2813                 2.2805                 2.2421
 IR Inten    --     16.5870                 0.5483                 0.0000

                     37                     38                     39
                      A                      A                      A
 Frequencies --    811.1117               849.0868               849.1213
 Red. masses --      5.9798                 1.3139                 6.9956
 Frc consts  --      2.3179                 0.5581                 2.9718
 IR Inten    --      0.0000                 0.0000                19.0749

                     40                     41                     42
                      A                      A                      A
 Frequencies --    850.3209               929.2409               931.5734
 Red. masses --      1.3248                 1.3619                 1.3722
 Frc consts  --      0.5644                 0.6929                 0.7016
 IR Inten    --     23.7200                 0.0000                12.0473

                     43                     44                     45
                      A                      A                      A
 Frequencies --    944.6900               974.7945               987.0492
 Red. masses --      3.3002                 4.1839                 1.6481
 Frc consts  --      1.7353                 2.3424                 0.9461
 IR Inten    --      0.0000                26.3998                10.9898

                     46                     47                     48
                      A                      A                      A
 Frequencies --    993.6024              1029.1770              1035.9217
 Red. masses --      3.4405                 1.5529                 2.0754
 Frc consts  --      2.0012                 0.9691                 1.3122
 IR Inten    --      0.0000                 0.6940                 0.0000

                     49                     50                     51
                      A                      A                      A
 Frequencies --   1041.8684              1053.9515              1054.2769
 Red. masses --      1.4516                 1.5327                 1.5333
 Frc consts  --      0.9284                 1.0031                 1.0041
 IR Inten    --      0.0000                 0.0001                 4.8064

                     52                     53                     54
                      A                      A                      A
 Frequencies --   1056.7049              1057.2806              1077.2425
 Red. masses --      1.4941                 1.4975                 4.4687
 Frc consts  --      0.9829                 0.9862                 3.0553
 IR Inten    --      0.0001                 2.3318                 0.9682

                     55                     56                     57
                      A                      A                      A
 Frequencies --   1146.3138              1173.1939              1188.2619
 Red. masses --      1.8044                 1.5035                 4.7036
 Frc consts  --      1.3970                 1.2192                 3.9130
 IR Inten    --     15.0424                 0.0000               106.5950

                     58                     59                     60
                      A                      A                      A
 Frequencies --   1196.0528              1251.0767              1267.1567
 Red. masses --      2.9601                 1.7958                 3.8849
 Frc consts  --      2.4949                 1.6560                 3.6752
 IR Inten    --      0.0000                25.6723                17.5481

                     61                     62                     63
                      A                      A                      A
 Frequencies --   1275.5922              1323.0873              1350.4373
 Red. masses --      2.8861                 3.0897                 6.7453
 Frc consts  --      2.7668                 3.1867                 7.2477
 IR Inten    --      0.0000                 0.0000                29.7561

                     64                     65                     66
                      A                      A                      A
 Frequencies --   1366.8375              1393.4094              1402.2758
 Red. masses --      6.3938                 2.2685                 1.2768
 Frc consts  --      7.0379                 2.5951                 1.4793
 IR Inten    --      0.0000               236.7806                 0.0090

                     67                     68                     69
                      A                      A                      A
 Frequencies --   1402.7589              1414.7018              1414.8579
 Red. masses --      1.5526                 1.2713                 1.2683
 Frc consts  --      1.8000                 1.4991                 1.4959
 IR Inten    --     36.6296                 0.0015                11.0754

                     70                     71                     72
                      A                      A                      A
 Frequencies --   1422.2432              1425.1698              1460.4971
 Red. masses --      2.7317                 2.4166                 2.7990
 Frc consts  --      3.2556                 2.8919                 3.5176
 IR Inten    --     47.1731                 0.0000                 0.0000

                     73                     74                     75
                      A                      A                      A
 Frequencies --   1463.4399              1463.4466              1479.7522
 Red. masses --      1.0461                 1.0461                 1.2919
 Frc consts  --      1.3200                 1.3200                 1.6667
 IR Inten    --      7.1377                 2.6750                59.6466

                     76                     77                     78
                      A                      A                      A
 Frequencies --   1482.7894              1482.8061              1489.9835
 Red. masses --      1.0455                 1.0455                 1.5710
 Frc consts  --      1.3543                 1.3544                 2.0549
 IR Inten    --      0.1146                 9.2562                 0.0002

                     79                     80                     81
                      A                      A                      A
 Frequencies --   1491.0613              1495.7589              1528.8134
 Red. masses --      1.1840                 1.2043                 4.0540
 Frc consts  --      1.5509                 1.5874                 5.5826
 IR Inten    --     45.3709                 0.0000               478.3751

                     82                     83                     84
                      A                      A                      A
 Frequencies --   1533.7102              1564.1650              1607.6053
 Red. masses --      5.3628                 5.9289                 7.8701
 Frc consts  --      7.4324                 8.5466                11.9837
 IR Inten    --      0.0021               215.0425                 0.0000

                     85                     86                     87
                      A                      A                      A
 Frequencies --   1632.1911              1634.6990              2993.9650
 Red. masses --      5.7398                 5.8079                 1.0386
 Frc consts  --      9.0092                 9.1442                 5.4851
 IR Inten    --      0.0008                21.3316               317.7959

                     88                     89                     90
                      A                      A                      A
 Frequencies --   2994.7467              3012.0414              3012.4195
 Red. masses --      1.0386                 1.0442                 1.0441
 Frc consts  --      5.4880                 5.5818                 5.5827
 IR Inten    --      0.0275               194.6322                 0.1146

                     91                     92                     93
                      A                      A                      A
 Frequencies --   3030.5917              3030.6229              3084.1908
 Red. masses --      1.0997                 1.0997                 1.0971
 Frc consts  --      5.9507                 5.9508                 6.1484
 IR Inten    --     13.0181                66.7414                16.9842

                     94                     95                     96
                      A                      A                      A
 Frequencies --   3084.2381              3086.2498              3086.2799
 Red. masses --      1.0970                 1.0919                 1.0920
 Frc consts  --      6.1485                 6.1278                 6.1282
 IR Inten    --     31.8652                31.7341                 0.1315

                     97                     98                     99
                      A                      A                      A
 Frequencies --   3094.0121              3094.0430              3119.8921
 Red. masses --      1.0989                 1.0989                 1.0881
 Frc consts  --      6.1981                 6.1983                 6.2405
 IR Inten    --      3.1136                26.6084               119.6945

                    100                    101                    102
                      A                      A                      A
 Frequencies --   3120.2366              3176.4013              3176.6775
 Red. masses --      1.0882                 1.0893                 1.0893
 Frc consts  --      6.2419                 6.4755                 6.4767
 IR Inten    --      0.0005                26.0838                 0.0003

 - Thermochemistry -
 -------------------
 Temperature   298.150 Kelvin.  Pressure   1.00000 Atm.
 Atom     1 has atomic number  6 and mass  12.00000

 Molecular mass:   264.11503 amu.
 Principal axes and moments of inertia in atomic units:
                           1         2         3
     Eigenvalues --  2867.089937402.34328**********
           X            0.99592  -0.08988  -0.00828
           Y           -0.04730  -0.59779   0.80026
           Z            0.07688   0.79660   0.59960
 This molecule is an asymmetric top.
 Rotational symmetry number  1.
 Warning -- assumption of classical behavior for rotation
           may cause significant error
 Rotational temperatures (Kelvin)      0.03021     0.01170     0.00847
 Rotational constants (GHZ):           0.62947     0.24381     0.17650
 Zero-point vibrational energy     750589.7 (Joules/Mol)
                                  179.39525 (Kcal/Mol)
 Warning -- explicit consideration of  30 degrees of freedom as
           vibrations may cause significant error
 Vibrational temperatures:     48.62    66.51   103.24   129.53   131.69
          (Kelvin)            198.91   228.88   232.40   276.99   279.10
                              316.04   330.64   342.82   393.94   424.33
                              437.10   469.70   484.60   542.21   542.42
                              616.94   653.46   681.23   712.13   731.70
                              760.61   795.53   796.82   799.90   823.59
                              935.22   941.49   974.28  1049.69  1078.93
                             1151.34  1167.01  1221.65  1221.70  1223.42
                             1336.97  1340.33  1359.20  1402.51  1420.14
                             1429.57  1480.76  1490.46  1499.02  1516.40
                             1516.87  1520.36  1521.19  1549.91  1649.29
                             1687.96  1709.64  1720.85  1800.02  1823.16
                             1835.29  1903.63  1942.98  1966.57  2004.81
                             2017.56  2018.26  2035.44  2035.66  2046.29
                             2050.50  2101.33  2105.56  2105.57  2129.03
                             2133.40  2133.43  2143.75  2145.30  2152.06
                             2199.62  2206.67  2250.48  2312.99  2348.36
                             2351.97  4307.65  4308.77  4333.66  4334.20
                             4360.35  4360.39  4437.46  4437.53  4440.43
                             4440.47  4451.59  4451.64  4488.83  4489.32
                             4570.13  4570.53

 Zero-point correction=                           0.285885 (Hartree/Particle)
 Thermal correction to Energy=                    0.303925
 Thermal correction to Enthalpy=                  0.304869
 Thermal correction to Gibbs Free Energy=         0.239550
 Sum of electronic and zero-point Energies=           -846.030604
 Sum of electronic and thermal Energies=              -846.012564
 Sum of electronic and thermal Enthalpies=            -846.011620
 Sum of electronic and thermal Free Energies=         -846.076938

                     E (Thermal)             CV                S
                      KCal/Mol        Cal/Mol-Kelvin    Cal/Mol-Kelvin
 Total                  190.716             70.073            137.475
 Electronic               0.000              0.000              1.377
 Translational            0.889              2.981             42.613
 Rotational               0.889              2.981             33.739
 Vibrational            188.938             64.111             59.746
 Vibration     1          0.594              1.983              5.593
 Vibration     2          0.595              1.979              4.972
 Vibration     3          0.598              1.967              4.105
 Vibration     4          0.602              1.956              3.659
 Vibration     5          0.602              1.955              3.627
 Vibration     6          0.614              1.915              2.828
 Vibration     7          0.621              1.892              2.561
 Vibration     8          0.622              1.890              2.532
 Vibration     9          0.634              1.850              2.203
 Vibration    10          0.635              1.848              2.189
 Vibration    11          0.647              1.811              1.962
 Vibration    12          0.652              1.795              1.880
 Vibration    13          0.656              1.782              1.816
 Vibration    14          0.676              1.722              1.572
 Vibration    15          0.689              1.683              1.446
 Vibration    16          0.695              1.667              1.396
 Vibration    17          0.710              1.623              1.278
 Vibration    18          0.718              1.602              1.227
 Vibration    19          0.747              1.519              1.052
 Vibration    20          0.748              1.519              1.051
 Vibration    21          0.790              1.408              0.863
 Vibration    22          0.813              1.352              0.783
 Vibration    23          0.830              1.309              0.728
 Vibration    24          0.851              1.261              0.671
 Vibration    25          0.864              1.231              0.637
 Vibration    26          0.884              1.187              0.590
 Vibration    27          0.908              1.133              0.538
 Vibration    28          0.909              1.131              0.536
 Vibration    29          0.911              1.127              0.532
 Vibration    30          0.929              1.091              0.500

 Optimization completed.
    -- Stationary point found.
 Normal termination of Gaussian 16 at Thu Dec 21 11:22:13 2023.
