 Q-Chem 5.4, Q-Chem, Inc., Pleasanton, CA (2021)
 Q-Chem 5.4.0 for Intel X86 EM64T Linux

User input:
--------------------------------------------------------------
$molecule
-1 2
C                  4.8622850000     -2.8569540000     -0.3600190000
C                  5.5926090000     -1.9624130000     -1.1152680000
C                  5.0057840000     -0.7476230000     -1.5313360000
C                  3.5266920000     -2.5758870000      0.0057570000
C                  2.9350200000     -1.3560370000     -0.4120180000
C                  3.7018910000     -0.4557290000     -1.1821770000
C                  2.7796990000     -3.5265930000      0.8065650000
C                  1.4143420000     -3.1943860000      1.1529750000
C                  0.7935380000     -1.9736540000      0.7135530000
C                  1.5545590000     -1.0052610000     -0.0684480000
C                  0.6800710000     -4.1086700000      1.9655180000
C                 -0.6230030000     -3.8137890000      2.3362000000
C                 -0.5709940000     -1.6975300000      1.0737270000
C                 -1.2152370000     -2.6326260000      1.8876400000
O                  3.3237140000     -4.6195680000      1.1943080000
O                  1.0842740000      0.1077480000     -0.4486390000
O                  1.2307960000     -5.2652250000      2.3960730000
Br                -3.0427490000     -2.2942850000      2.4464800000
N                 -1.2179600000     -0.5789340000      0.5938100000
H                  5.2872040000     -3.7956900000     -0.0253750000
H                  6.6179220000     -2.1911630000     -1.3898460000
H                  5.5803940000     -0.0439550000     -2.1259620000
H                  3.2275600000      0.4689700000     -1.4879380000
H                 -1.1638280000     -4.5091410000      2.9639710000
H                  2.1666310000     -5.2571910000      2.0150360000
H                 -0.5862960000      0.1022030000      0.1721350000
H                 -2.0186440000     -0.2597910000      1.1146990000
$end
$rem
MAX_SCF_CYCLES=200
BASIS  =  6-311++G(d,p)
GUI  =  2
JOB_TYPE  =  SP
METHOD  =  B3LYP
SOLVENT_METHOD = COSMO
$end
$solvent
dielectric 37.219
opticaldielectric 1.43
$end

--------------------------------------------------------------

             Standard Nuclear Orientation (Angstroms)
    I     Atom           X                Y                Z
 ----------------------------------------------------------------
    1      C       4.1708354144    -0.8805264848    -0.0073055101
    2      C       5.1947987628     0.0442539575     0.0087566300
    3      C       4.8977099616     1.4243421802     0.0256577240
    4      C       2.8199061400    -0.4662937595    -0.0081699488
    5      C       2.5193654117     0.9200893229     0.0080457261
    6      C       3.5830827786     1.8474333838     0.0261804196
    7      C       1.7591572146    -1.4551625601    -0.0173408686
    8      C       0.3918059616    -0.9809256936    -0.0206667918
    9      C       0.0730984455     0.4215668500    -0.0314418011
   10      C       1.1404631303     1.4154484615     0.0059146017
   11      C      -0.6595470941    -1.9450320109     0.0005704888
   12      C      -1.9816851985    -1.5280040341     0.0205779425
   13      C      -1.3024958849     0.8403321308    -0.0485657702
   14      C      -2.2731290090    -0.1636655611    -0.0065191673
   15      O       2.0359033457    -2.7058830216    -0.0162404603
   16      O       0.9296744249     2.6638940988     0.0440436458
   17      O      -0.3975348534    -3.2707569229     0.0104772994
   18      Br     -4.1475050761     0.3389314967     0.0196999993
   19      N      -1.6358438795     2.1741866411    -0.1478310872
   20      H       4.3690624318    -1.9455823393    -0.0187124052
   21      H       6.2286095000    -0.2877426435     0.0086854640
   22      H       5.7035016591     2.1519790649     0.0378925229
   23      H       3.3272812219     2.9000226881     0.0391899264
   24      H      -2.7689681585    -2.2692118401     0.0505619763
   25      H       0.6111762131    -3.3294724790     0.0007122776
   26      H      -0.8470853248     2.8000650133     0.0161598663
   27      H      -2.5545322649     2.4368633346     0.1704220792
 ----------------------------------------------------------------

   10   -3393.2100761586      7.51e-06  Convergence criterion met
 Total energy in the final basis set =    -3393.2100761586
    4   -3393.2845192744      7.29e-06  Convergence criterion met
 Total energy in the final basis set =    -3393.2845192744

                    Orbital Energies (a.u.)
 --------------------------------------------------------------

 Alpha MOs
 -- Occupied --
******** -62.4869 -56.3072 -56.3036 -56.3034 -19.1327 -19.0945 -19.0869
-14.3095 -10.2376 -10.2366 -10.2357 -10.2277 -10.2264 -10.1858 -10.1828
-10.1789 -10.1784 -10.1779 -10.1760 -10.1755 -10.1738 -10.1731  -8.6955
 -6.5264  -6.5143  -6.5140  -2.6374  -2.6339  -2.6338  -2.6241  -2.6241
 -1.0579  -1.0152  -1.0098  -0.9246  -0.8655  -0.8486  -0.8150  -0.7767
 -0.7564  -0.7420  -0.7277  -0.6747  -0.6412  -0.6311  -0.5974  -0.5746
 -0.5537  -0.5313  -0.5197  -0.5071  -0.4837  -0.4691  -0.4599  -0.4529
 -0.4416  -0.4285  -0.4276  -0.4265  -0.4161  -0.4089  -0.4047  -0.3990
 -0.3800  -0.3695  -0.3656  -0.3573  -0.3550  -0.3417  -0.3165  -0.2998
 -0.2962  -0.2691  -0.2636  -0.2617  -0.2510  -0.2497  -0.2093  -0.1475

 Beta MOs
 -- Occupied --
******** -62.4869 -56.3072 -56.3035 -56.3034 -19.1322 -19.0898 -19.0823
-14.3090 -10.2360 -10.2352 -10.2343 -10.2275 -10.2249 -10.1855 -10.1828
-10.1784 -10.1777 -10.1769 -10.1757 -10.1749 -10.1736 -10.1731  -8.6955
 -6.5265  -6.5142  -6.5140  -2.6375  -2.6339  -2.6338  -2.6241  -2.6241
 -1.0559  -1.0072  -1.0021  -0.9231  -0.8633  -0.8469  -0.8131  -0.7741
 -0.7542  -0.7401  -0.7253  -0.6684  -0.6389  -0.6289  -0.5964  -0.5729
 -0.5519  -0.5298  -0.5185  -0.5056  -0.4808  -0.4679  -0.4589  -0.4514
 -0.4331  -0.4276  -0.4261  -0.4231  -0.4136  -0.4073  -0.3959  -0.3880
 -0.3782  -0.3650  -0.3561  -0.3556  -0.3464  -0.3407  -0.3128  -0.2996
 -0.2881  -0.2597  -0.2557  -0.2547  -0.2463  -0.2457  -0.1982

          Ground-State Mulliken Net Atomic Charges

     Atom                 Charge (a.u.)    Spin (a.u.)
  --------------------------------------------------------
      1 C                    -0.005002       0.043689
      2 C                    -0.524927       0.018058
      3 C                    -0.579791       0.046233
      4 C                     0.141249       0.003970
      5 C                    -0.045747       0.028884
      6 C                     0.094420       0.015583
      7 C                    -0.261601       0.138164
      8 C                     0.624271      -0.001854
      9 C                     0.538595       0.023507
     10 C                    -0.206113       0.088615
     11 C                    -0.331772       0.052325
     12 C                    -0.080276       0.071107
     13 C                    -0.464794       0.021392
     14 C                     0.130598       0.092773
     15 O                    -0.518071       0.165223
     16 O                    -0.473599       0.166128
     17 O                    -0.427733       0.018036
     18 Br                   -0.238191       0.003961
     19 N                    -0.369996       0.024645
     20 H                     0.187895      -0.001413
     21 H                     0.204762      -0.001877
     22 H                     0.204971      -0.003555
     23 H                     0.185238      -0.000283
     24 H                     0.243100      -0.006306
     25 H                     0.376905      -0.003691
     26 H                     0.333771      -0.002331
     27 H                     0.261836      -0.000984
  --------------------------------------------------------
  Sum of atomic charges =    -1.000000

                    Cartesian Multipole Moments
 -----------------------------------------------------------------
    Charge (ESU x 10^10)
                -4.8032
    Dipole Moment (Debye)
         X      -2.3633      Y       2.9166      Z       0.8184
       Tot       3.8421
    Quadrupole Moments (Debye-Ang)
        XX    -132.6771     XY       1.9163     YY    -157.4118
        XZ      -1.8764     YZ       2.0009     ZZ    -129.9792

 Total job time:  108.37s(wall), 832.89s(cpu)
        *  Thank you very much for using Q-Chem.  Have a nice day.  *
