 Gaussian 16, Revision A.03,
 Gaussian 16:  ES64L-G16RevA.03 25-Dec-2016

 ----------------------------------------------------------------
 #P UB3LYP/6-311++G(d,p) SCRF=(PCM,Solvent=n,n-DiMethylFormamide)
 ----------------------------------------------------------------

 ------------------
 Radical PCM in DMF
 ------------------
 Symbolic Z-matrix:
 Charge = -1 Multiplicity = 2

                         Standard orientation:
 ---------------------------------------------------------------------
 Center     Atomic      Atomic             Coordinates (Angstroms)
 Number     Number       Type             X           Y           Z
 ---------------------------------------------------------------------
      1          6           0        0.326218   -1.287543   -0.000370
      2          6           0       -0.926630   -0.709199   -0.000131
      3          6           0       -1.054263    0.696750   -0.000041
      4          6           0        1.489376   -0.496472   -0.000573
      5          6           0        1.359635    0.916667   -0.000542
      6          6           0        0.076413    1.488545   -0.000224
      7          6           0        2.805983   -1.152071   -0.001003
      8          6           0        3.954793   -0.269977   -0.000062
      9          6           0        3.809779    1.102177   -0.000174
     10          6           0        2.546558    1.789169   -0.000826
     11          8           0        2.920080   -2.406758    0.000575
     12          8           0        2.447366    3.043555   -0.000006
     13          1           0        0.447101   -2.363424   -0.000475
     14          1           0        0.005380    2.569012   -0.000162
     15         35           0       -2.463029   -1.872171   -0.000072
     16         35           0       -2.773367    1.566351    0.000332
     17          6           0        5.313623   -0.917661    0.001017
     18          1           0        4.690454    1.739725    0.000294
     19          1           0        5.436590   -1.568713   -0.870962
     20          1           0        5.438016   -1.563092    0.877047
     21          1           0        6.107855   -0.166492   -0.001799
 ---------------------------------------------------------------------

 SCF Done:  E(UB3LYP) =  -5721.82210416     A.U. after   19 cycles

 The electronic state is 2-A.
 Alpha  occ. eigenvalues -- -482.83776-482.83775 -62.49053 -62.49052 -56.31090
 Alpha  occ. eigenvalues --  -56.31090 -56.30705 -56.30705 -56.30684 -56.30684
 Alpha  occ. eigenvalues --  -19.08108 -19.08074 -10.24446 -10.24390 -10.22702
 Alpha  occ. eigenvalues --  -10.22496 -10.19029 -10.18991 -10.18530 -10.18460
 Alpha  occ. eigenvalues --  -10.17758 -10.16309 -10.15939  -8.70017  -8.70017
 Alpha  occ. eigenvalues --   -6.53158  -6.53158  -6.51878  -6.51878  -6.51826
 Alpha  occ. eigenvalues --   -6.51826  -2.64250  -2.64249  -2.63891  -2.63890
 Alpha  occ. eigenvalues --   -2.63854  -2.63853  -2.62835  -2.62835  -2.62834
 Alpha  occ. eigenvalues --   -2.62834  -1.00645  -1.00387  -0.89301  -0.83321
 Alpha  occ. eigenvalues --   -0.81341  -0.79959  -0.75224  -0.74152  -0.70130
 Alpha  occ. eigenvalues --   -0.66335  -0.62634  -0.60007  -0.56463  -0.51305
 Alpha  occ. eigenvalues --   -0.49344  -0.48396  -0.44832  -0.44435  -0.43467
 Alpha  occ. eigenvalues --   -0.43323  -0.41780  -0.40956  -0.39661  -0.38899
 Alpha  occ. eigenvalues --   -0.38619  -0.37860  -0.37429  -0.35911  -0.35471
 Alpha  occ. eigenvalues --   -0.32469  -0.31532  -0.31477  -0.28689  -0.27310
 Alpha  occ. eigenvalues --   -0.26202  -0.25005  -0.24776  -0.24186  -0.15726
 Alpha virt. eigenvalues --   -0.04770  -0.04163  -0.02794  -0.00345   0.00140
 Alpha virt. eigenvalues --    0.00703   0.01512   0.02959   0.03148   0.03501
 Alpha virt. eigenvalues --    0.04057   0.04128   0.04793   0.05075   0.05261

  Beta  occ. eigenvalues -- -482.83775-482.83774 -62.49052 -62.49052 -56.31091
  Beta  occ. eigenvalues --  -56.31090 -56.30703 -56.30702 -56.30684 -56.30684
  Beta  occ. eigenvalues --  -19.07471 -19.07458 -10.24405 -10.24339 -10.22560
  Beta  occ. eigenvalues --  -10.22327 -10.19039 -10.18988 -10.18466 -10.18386
  Beta  occ. eigenvalues --  -10.17606 -10.16199 -10.15949  -8.70016  -8.70015
  Beta  occ. eigenvalues --   -6.53159  -6.53159  -6.51874  -6.51873  -6.51826
  Beta  occ. eigenvalues --   -6.51825  -2.64250  -2.64249  -2.63888  -2.63888
  Beta  occ. eigenvalues --   -2.63854  -2.63854  -2.62832  -2.62832  -2.62832
  Beta  occ. eigenvalues --   -2.62831  -0.99560  -0.99274  -0.89171  -0.82920
  Beta  occ. eigenvalues --   -0.81279  -0.79724  -0.75064  -0.73970  -0.69750
  Beta  occ. eigenvalues --   -0.65677  -0.62523  -0.59698  -0.56138  -0.51162
  Beta  occ. eigenvalues --   -0.49066  -0.48129  -0.44727  -0.44383  -0.43029
  Beta  occ. eigenvalues --   -0.42480  -0.41203  -0.40650  -0.39436  -0.38769
  Beta  occ. eigenvalues --   -0.37789  -0.37190  -0.35730  -0.35330  -0.35251
  Beta  occ. eigenvalues --   -0.32244  -0.31524  -0.30699  -0.28675  -0.25652
  Beta  occ. eigenvalues --   -0.24842  -0.24422  -0.24245  -0.23618
  Beta virt. eigenvalues --   -0.09145  -0.04127  -0.04117  -0.01640  -0.00323
  Beta virt. eigenvalues --    0.00186   0.00708   0.01535   0.02970   0.03168
  Beta virt. eigenvalues --    0.03724   0.04148   0.04531   0.05158   0.05264

 Mulliken charges and spin densities:
               1          2
     1  C   -0.065981   0.020712
     2  C   -0.006611   0.021199
     3  C   -0.066459   0.034246
     4  C    0.237720   0.018702
     5  C    0.609114   0.071307
     6  C   -0.094273   0.008943
     7  C   -0.610293   0.111739
     8  C    0.762909   0.086660
     9  C   -0.402722   0.082489
    10  C   -0.884131   0.079368
    11  O   -0.457642   0.236489
    12  O   -0.478730   0.221395
    13  H    0.226667  -0.002231
    14  H    0.219398  -0.002371
    15  Br  -0.156039   0.001483
    16  Br  -0.161104   0.001903
    17  C   -0.319957   0.005863
    18  H    0.153951  -0.008331
    19  H    0.169467   0.005302
    20  H    0.169656   0.005374
    21  H    0.155059  -0.000243
 Sum of Mulliken charges =  -1.00000   1.00000

 Dipole moment (field-independent basis, Debye):
    X=             -7.7342    Y=             -1.6001    Z=             -0.0012  Tot=              7.8979
 Quadrupole moment (field-independent basis, Debye-Ang):
   XX=           -143.6031   YY=           -152.7438   ZZ=           -116.6069
   XY=             -2.1101   XZ=             -0.0006   YZ=              0.0042

 Normal termination of Gaussian 16 at Sun Jan 21 08:18:49 2024.
