 Q-Chem 5.4, Q-Chem, Inc., Pleasanton, CA (2021)
 Q-Chem 5.4.0 for Intel X86 EM64T Linux

User input:
--------------------------------------------------------------
$molecule
-1 2
C                 -3.4283940000     -2.7383470000     -0.3569740000
O                 -2.1388010000     -2.1983880000     -0.2002020000
C                 -1.9908230000     -0.8343750000     -0.2016110000
C                 -3.0783670000      0.0160410000     -0.3536250000
C                 -2.9178290000      1.4097220000     -0.3541690000
C                 -1.6639420000      1.9708790000     -0.2023000000
O                 -1.5423360000      3.3163850000     -0.2072650000
C                 -0.5173910000      1.1257250000     -0.0428300000
C                  0.7766220000      1.7592470000      0.1128030000
O                  0.9044770000      3.0374450000      0.1097550000
C                  1.9373530000      0.9096160000      0.2736540000
C                  3.2196880000      1.4861320000      0.4282570000
C                  4.3378890000      0.6929290000      0.5826660000
C                  4.2093820000     -0.7129990000      0.5876070000
C                  2.9631720000     -1.2910670000      0.4377590000
C                  1.8060220000     -0.5016080000      0.2784410000
C                  0.5023220000     -1.1768000000      0.1229370000
O                  0.4527750000     -2.4237830000      0.1365190000
C                 -0.6734270000     -0.3058660000     -0.0409860000
H                 -3.3001900000     -3.8212390000     -0.3244780000
H                 -4.1073640000     -2.4332470000      0.4516270000
H                 -3.8810260000     -2.4595630000     -1.3189150000
H                 -4.0747140000     -0.3867870000     -0.4750200000
H                 -3.7724040000      2.0661580000     -0.4735250000
H                 -0.5501900000      3.4825830000     -0.0829830000
H                  3.2882370000      2.5673690000      0.4206280000
H                  5.3167060000      1.1486030000      0.7004190000
H                  5.0891910000     -1.3378770000      0.7090780000
H                  2.8333620000     -2.3668880000      0.4376420000
$end
$rem
MAX_SCF_CYCLES=200
BASIS  =  6-311++G(d,p)
GUI  =  2
JOB_TYPE  =  SP
METHOD  =  B3LYP
SOLVENT_METHOD = COSMO
$end
$solvent
dielectric 37.219
opticaldielectric 1.43
$end

--------------------------------------------------------------

             Standard Nuclear Orientation (Angstroms)
    I     Atom           X                Y                Z
 ----------------------------------------------------------------
    1      C       3.9883755921     2.2359734479    -0.0007970573
    2      O       2.6148910537     1.9314682403    -0.0004993634
    3      C       2.2319698591     0.6139698038    -0.0000912961
    4      C       3.1643434522    -0.4154703420    -0.0003153040
    5      C       2.7638576880    -1.7599890711    -0.0001931232
    6      C       1.4221494663    -2.0916710756     0.0000831196
    7      O       1.0686639428    -3.3956062917     0.0000254747
    8      C       0.4302959822    -1.0570108533     0.0003082278
    9      C      -0.9637288050    -1.4529101987     0.0003258318
   10      O      -1.3117837160    -2.6894392505     0.0003641847
   11      C      -1.9688217794    -0.4113582915     0.0000573158
   12      C      -3.3413430627    -0.7531784458    -0.0003263630
   13      C      -4.3139653550     0.2252858170    -0.0007478037
   14      C      -3.9431689076     1.5875200106    -0.0007501250
   15      C      -2.6062506533     1.9372423717    -0.0002489119
   16      C      -1.5943214112     0.9555994197     0.0001801363
   17      C      -0.1835615743     1.3908643965     0.0008896393
   18      O       0.0812423945     2.6104888923     0.0018517134
   19      C       0.8328537801     0.3256498584     0.0003341846
   20      H       4.0485148696     3.3252532581    -0.0011159088
   21      H       4.4996422453     1.8489073129     0.8917879888
   22      H       4.4992962158     1.8483848614    -0.8933562640
   23      H       4.2230298721    -0.1943426146    -0.0005990042
   24      H       3.4985554559    -2.5572792501    -0.0004535652
   25      H       0.0551079770    -3.3843916993     0.0001401362
   26      H      -3.5964553040    -1.8061496515    -0.0002874153
   27      H      -5.3643214019    -0.0510099667    -0.0010601189
   28      H      -4.7082967641     2.3581501600    -0.0011124776
   29      H      -2.2912881943     2.9740837816    -0.0001302710
 ----------------------------------------------------------------

   11    -878.8251790140      4.30e-06  Convergence criterion met
 Total energy in the final basis set =     -878.8251790140
    5    -878.9102023705      4.77e-06  Convergence criterion met
 Total energy in the final basis set =     -878.9102023705

                    Orbital Energies (a.u.)
 --------------------------------------------------------------

 Alpha MOs
 -- Occupied --
-19.1485 -19.1284 -19.0921 -19.0779 -10.2341 -10.2340 -10.2332 -10.2305
-10.2122 -10.1827 -10.1816 -10.1762 -10.1752 -10.1740 -10.1733 -10.1719
-10.1717 -10.1706 -10.1673  -1.0668  -1.0542  -1.0096  -1.0061  -0.8638
 -0.8487  -0.7890  -0.7569  -0.7513  -0.7422  -0.6930  -0.6741  -0.6371
 -0.6279  -0.5858  -0.5715  -0.5413  -0.5348  -0.5179  -0.4971  -0.4768
 -0.4669  -0.4663  -0.4589  -0.4398  -0.4335  -0.4278  -0.4244  -0.4170
 -0.4108  -0.4017  -0.4002  -0.3862  -0.3856  -0.3627  -0.3574  -0.3551
 -0.3477  -0.3395  -0.3337  -0.3011  -0.2732  -0.2594  -0.2593  -0.2523
 -0.2364  -0.2161  -0.1452

 Beta MOs
 -- Occupied --
-19.1484 -19.1279 -19.0873 -19.0729 -10.2338 -10.2329 -10.2305 -10.2300
-10.2122 -10.1820 -10.1816 -10.1759 -10.1742 -10.1738 -10.1726 -10.1716
-10.1708 -10.1706 -10.1664  -1.0664  -1.0522  -1.0011  -0.9979  -0.8613
 -0.8472  -0.7850  -0.7545  -0.7499  -0.7405  -0.6914  -0.6673  -0.6351
 -0.6256  -0.5850  -0.5698  -0.5388  -0.5338  -0.5169  -0.4951  -0.4750
 -0.4655  -0.4651  -0.4573  -0.4389  -0.4263  -0.4239  -0.4217  -0.4159
 -0.4076  -0.4007  -0.3919  -0.3845  -0.3714  -0.3616  -0.3539  -0.3487
 -0.3384  -0.3379  -0.3331  -0.2961  -0.2557  -0.2555  -0.2525  -0.2475
 -0.2320  -0.2065

          Ground-State Mulliken Net Atomic Charges

     Atom                 Charge (a.u.)    Spin (a.u.)
  --------------------------------------------------------
      1 C                    -0.312100      -0.000752
      2 O                    -0.169244       0.004270
      3 C                    -0.350008       0.022421
      4 C                    -0.219859       0.085839
      5 C                    -0.215217       0.063198
      6 C                    -0.206496       0.049875
      7 O                    -0.440333       0.014604
      8 C                     0.841746      -0.019422
      9 C                    -0.235833       0.166319
     10 O                    -0.515499       0.174187
     11 C                     0.058956      -0.020063
     12 C                     0.048812       0.055729
     13 C                    -0.547176       0.006442
     14 C                    -0.525866       0.061360
     15 C                     0.080741       0.008603
     16 C                    -0.024190       0.056015
     17 C                    -0.226597       0.057423
     18 O                    -0.478181       0.186023
     19 C                     0.315530       0.048525
     20 H                     0.202989      -0.000242
     21 H                     0.162472       0.000837
     22 H                     0.162415       0.000838
     23 H                     0.225779      -0.005373
     24 H                     0.214904      -0.005290
     25 H                     0.385192      -0.003668
     26 H                     0.184971      -0.002122
     27 H                     0.202697      -0.001164
     28 H                     0.205533      -0.004360
     29 H                     0.173859      -0.000052
  --------------------------------------------------------
  Sum of atomic charges =    -1.000000

                    Cartesian Multipole Moments
 -----------------------------------------------------------------
    Charge (ESU x 10^10)
                -4.8032
    Dipole Moment (Debye)
         X       2.5701      Y       2.2668      Z      -0.0058
       Tot       3.4269
    Quadrupole Moments (Debye-Ang)
        XX     -97.4056     XY       0.2337     YY    -152.4135
        XZ      -0.0025     YZ      -0.0147     ZZ    -116.5599

 Total job time:  119.74s(wall), 884.63s(cpu)
        *  Thank you very much for using Q-Chem.  Have a nice day.  *
