 Q-Chem 5.4, Q-Chem, Inc., Pleasanton, CA (2021)
 Q-Chem 5.4.0 for Intel X86 EM64T Linux

User input:
--------------------------------------------------------------
$molecule
0 1
C                 -1.4191230000      1.9948810000     -4.7408910000
C                 -1.4900660000      0.6359580000     -5.0122710000
C                 -1.3955770000     -0.2937730000     -3.9698970000
C                 -1.2527220000      2.4423750000     -3.4235460000
C                 -1.1580580000      1.5116630000     -2.3800950000
C                 -1.2306610000      0.1411900000     -2.6626170000
C                 -1.1793630000      3.8990950000     -3.1542010000
C                 -0.9814300000      1.9562990000     -0.9761290000
C                 -1.0054040000      4.3482520000     -1.7715680000
C                 -0.9079930000      3.3921830000     -0.6997430000
C                 -0.9332020000      5.7431850000     -1.4960810000
C                 -0.7637870000      6.1449490000     -0.1417270000
C                 -0.6712990000      5.2373790000      0.8757160000
C                 -0.7387160000      3.8354320000      0.6425850000
O                 -1.2680720000      4.6891480000     -4.1109240000
O                 -0.9019750000      1.0952630000     -0.0818780000
H                 -1.4896650000      2.7328500000     -5.5297430000
H                 -1.6188870000      0.2940880000     -6.0332080000
H                 -1.4512620000     -1.3553020000     -4.1839940000
H                 -1.1550500000     -0.5582840000     -1.8398920000
H                 -0.5429630000      5.5997550000      1.8872190000
H                 -0.7059900000      7.1995090000      0.0938300000
N                 -1.0199920000      6.6847920000     -2.4730070000
N                 -0.6414280000      2.9723140000      1.6885780000
C                 -0.9530530000      8.1131480000     -2.2548430000
C                 -0.4683510000      3.3621970000      3.0707170000
H                 -1.1396000000      6.3101750000     -3.4105140000
H                 -0.6993000000      1.9903000000      1.4319210000
H                  0.0025240000      8.4220500000     -1.8138030000
H                 -1.7623950000      8.4732990000     -1.6080710000
H                 -1.0512610000      8.6086250000     -3.2204820000
H                 -1.3031090000      3.9712540000      3.4385310000
H                  0.4617190000      3.9208500000      3.2317780000
H                 -0.4233910000      2.4566790000      3.6753820000
$end

$rem
BASIS  =  6-311++G(d,p)
GUI  =  2
JOB_TYPE  =  SP
METHOD  =  B3LYP
SCF_CONVERGENCE  = 8
SOLVENT_METHOD = sm12
$end

$smx
solvent dimethylformamide
charges CM5
$end

--------------------------------------------------------------

             Standard Nuclear Orientation (Angstroms)
    I     Atom           X                Y                Z
 ----------------------------------------------------------------
    1      C      -1.4191230000     1.9948810000    -4.7408910000
    2      C      -1.4900660000     0.6359580000    -5.0122710000
    3      C      -1.3955770000    -0.2937730000    -3.9698970000
    4      C      -1.2527220000     2.4423750000    -3.4235460000
    5      C      -1.1580580000     1.5116630000    -2.3800950000
    6      C      -1.2306610000     0.1411900000    -2.6626170000
    7      C      -1.1793630000     3.8990950000    -3.1542010000
    8      C      -0.9814300000     1.9562990000    -0.9761290000
    9      C      -1.0054040000     4.3482520000    -1.7715680000
   10      C      -0.9079930000     3.3921830000    -0.6997430000
   11      C      -0.9332020000     5.7431850000    -1.4960810000
   12      C      -0.7637870000     6.1449490000    -0.1417270000
   13      C      -0.6712990000     5.2373790000     0.8757160000
   14      C      -0.7387160000     3.8354320000     0.6425850000
   15      O      -1.2680720000     4.6891480000    -4.1109240000
   16      O      -0.9019750000     1.0952630000    -0.0818780000
   17      H      -1.4896650000     2.7328500000    -5.5297430000
   18      H      -1.6188870000     0.2940880000    -6.0332080000
   19      H      -1.4512620000    -1.3553020000    -4.1839940000
   20      H      -1.1550500000    -0.5582840000    -1.8398920000
   21      H      -0.5429630000     5.5997550000     1.8872190000
   22      H      -0.7059900000     7.1995090000     0.0938300000
   23      N      -1.0199920000     6.6847920000    -2.4730070000
   24      N      -0.6414280000     2.9723140000     1.6885780000
   25      C      -0.9530530000     8.1131480000    -2.2548430000
   26      C      -0.4683510000     3.3621970000     3.0707170000
   27      H      -1.1396000000     6.3101750000    -3.4105140000
   28      H      -0.6993000000     1.9903000000     1.4319210000
   29      H       0.0025240000     8.4220500000    -1.8138030000
   30      H      -1.7623950000     8.4732990000    -1.6080710000
   31      H      -1.0512610000     8.6086250000    -3.2204820000
   32      H      -1.3031090000     3.9712540000     3.4385310000
   33      H       0.4617190000     3.9208500000     3.2317780000
   34      H      -0.4233910000     2.4566790000     3.6753820000
 ----------------------------------------------------------------

   15    -878.3459920515      3.70e-09  Convergence criterion met
 Total energy in the final basis set =     -878.3721047056

                    Orbital Energies (a.u.)
 --------------------------------------------------------------

 Alpha MOs
 -- Occupied --
-19.1104 -19.1104 -14.3358 -14.3358 -10.2634 -10.2633 -10.2386 -10.2386
-10.2010 -10.2010 -10.1973 -10.1971 -10.1968 -10.1964 -10.1955 -10.1951
-10.1909 -10.1904 -10.1884 -10.1884  -1.0443  -1.0423  -0.9548  -0.9483
 -0.8807  -0.8561  -0.8055  -0.7696  -0.7664  -0.7645  -0.7107  -0.6878
 -0.6810  -0.6514  -0.6389  -0.6070  -0.5906  -0.5545  -0.5489  -0.5291
 -0.5210  -0.4971  -0.4848  -0.4788  -0.4736  -0.4591  -0.4528  -0.4469
 -0.4425  -0.4407  -0.4382  -0.4345  -0.4267  -0.4027  -0.4027  -0.4012
 -0.3944  -0.3890  -0.3781  -0.3700  -0.3613  -0.3591  -0.3361  -0.2836
 -0.2755  -0.2722  -0.2702  -0.2628  -0.2614  -0.1933

          Ground-State Mulliken Net Atomic Charges

     Atom                 Charge (a.u.)
  ----------------------------------------
      1 C                    -0.041079
      2 C                     0.256738
      3 C                     0.256782
      4 C                    -0.492703
      5 C                    -0.493581
      6 C                    -0.040712
      7 C                    -1.350077
      8 C                    -1.352951
      9 C                    -0.162963
     10 C                    -0.158943
     11 C                    -0.929414
     12 C                     1.580311
     13 C                     1.578017
     14 C                    -0.931543
     15 O                    -0.291499
     16 O                    -0.291126
     17 H                     0.188393
     18 H                     0.314238
     19 H                     0.314246
     20 H                     0.188474
     21 H                     0.382741
     22 H                     0.382725
     23 N                    -0.358614
     24 N                    -0.357192
     25 C                    -0.112102
     26 C                    -0.112735
     27 H                     0.337414
     28 H                     0.337208
     29 H                     0.220603
     30 H                     0.220547
     31 H                     0.238824
     32 H                     0.220550
     33 H                     0.220580
     34 H                     0.238844
  ----------------------------------------
  Sum of atomic charges =     0.000000

                    Cartesian Multipole Moments
 -----------------------------------------------------------------
    Charge (ESU x 10^10)
                 0.0000
    Dipole Moment (Debye)
         X       0.4852      Y       3.6707      Z       3.2301
       Tot       4.9135
    Quadrupole Moments (Debye-Ang)
        XX    -122.3168     XY       0.1626     YY     -69.3841
        XZ      -0.9219     YZ      17.4095     ZZ    -108.3753

 Total job time:  994.89s(wall), 7802.99s(cpu)
        *  Thank you very much for using Q-Chem.  Have a nice day.  *
