 Q-Chem 5.4, Q-Chem, Inc., Pleasanton, CA (2021)
 Q-Chem 5.4.0 for Intel X86 EM64T Linux

User input:
--------------------------------------------------------------
$molecule
-2 1
C                 -7.1707500000      4.0854400000      0.7848400000
C                 -8.1555520000      3.3957530000      0.1027260000
C                 -7.8228460000      2.6310280000     -1.0350380000
C                 -5.8243800000      4.0384010000      0.3595660000
C                 -5.4859590000      3.2651600000     -0.7907060000
C                 -6.5070600000      2.5734490000     -1.4657300000
C                 -4.7961860000      4.7609800000      1.0737670000
C                 -3.4518030000      4.6480770000      0.5614480000
C                 -3.0892230000      3.9155950000     -0.5510920000
C                 -4.0954400000      3.1776490000     -1.2828450000
O                 -4.9871150000      5.4836800000      2.1104160000
O                 -3.8100420000      2.4905730000     -2.3003110000
O                 -2.5344930000      5.3550020000      1.2863060000
C                 -1.6592830000      3.8576410000     -1.0243860000
C                 -0.8708220000      2.6576640000     -0.4630220000
C                  0.5735160000      2.5992800000     -0.9739940000
C                  1.3836440000      1.4186880000     -0.4241760000
C                  2.8281490000      1.3701010000     -0.9377370000
C                  3.6479290000      0.1946110000     -0.3912770000
C                  5.0900210000      0.1569160000     -0.9118940000
C                  5.9184480000     -1.0135960000     -0.3675790000
C                  7.3587210000     -1.0336340000     -0.8986310000
C                  8.1795420000     -2.2013780000     -0.3491500000
S                  9.8900750000     -2.1654910000     -1.0222080000
C                 10.5922900000     -3.6468920000     -0.1871460000
C                 12.0548560000     -3.8509630000     -0.5851640000
C                 12.6843120000     -5.0780460000      0.0897750000
C                 14.1518590000     -5.2949800000     -0.2998150000
C                 14.7905380000     -6.5180920000      0.3694890000
C                 16.2580450000     -6.7349830000     -0.0193490000
C                 16.8967230000     -7.9579940000      0.6505360000
C                 18.3641040000     -8.1759720000      0.2629980000
C                 19.0013760000     -9.3994660000      0.9340700000
C                 20.4667340000     -9.6166300000      0.5470180000
H                 -7.4016980000      4.6796670000      1.6620270000
H                 -9.1865270000      3.4415000000      0.4428120000
H                 -8.5966610000      2.0885560000     -1.5705440000
H                 -6.2218170000      1.9928910000     -2.3360140000
H                 -3.1000470000      5.7584960000      1.9822450000
H                 -1.1442550000      4.7828410000     -0.7448520000
H                 -1.6659620000      3.7842070000     -2.1167210000
H                 -1.3966190000      1.7370210000     -0.7381030000
H                 -0.8702180000      2.7107250000      0.6323230000
H                  1.0861230000      3.5365920000     -0.7167520000
H                  0.5640210000      2.5490850000     -2.0710950000
H                  0.8753920000      0.4807620000     -0.6834140000
H                  1.3915610000      1.4658360000      0.6728700000
H                  3.3333230000      2.3108190000     -0.6808360000
H                  2.8184820000      1.3226770000     -2.0348140000
H                  3.1456310000     -0.7472100000     -0.6482820000
H                  3.6604750000      0.2413560000      0.7056310000
H                  5.5899570000      1.1005530000     -0.6568780000
H                  5.0761780000      0.1087770000     -2.0086240000
H                  5.4231110000     -1.9588860000     -0.6241660000
H                  5.9361010000     -0.9662110000      0.7289050000
H                  7.8548340000     -0.0909450000     -0.6404430000
H                  7.3423220000     -1.0873020000     -1.9932980000
H                  7.7180540000     -3.1554370000     -0.6220910000
H                  8.2344180000     -2.1499940000      0.7426690000
H                  9.9946360000     -4.5197020000     -0.4682070000
H                 10.5069900000     -3.5078700000      0.8951720000
H                 12.6299450000     -2.9556490000     -0.3222730000
H                 12.1223640000     -3.9592790000     -1.6738000000
H                 12.1041400000     -5.9731700000     -0.1693320000
H                 12.6104660000     -4.9711750000      1.1797780000
H                 14.7304940000     -4.3985980000     -0.0409940000
H                 14.2243220000     -5.4010820000     -1.3901340000
H                 14.2116260000     -7.4146600000      0.1114420000
H                 14.7170580000     -6.4126550000      1.4599180000
H                 16.8371550000     -5.8383910000      0.2385580000
H                 16.3318730000     -6.8407670000     -1.1098160000
H                 16.3174770000     -8.8544330000      0.3926870000
H                 16.8224270000     -7.8521560000      1.7408950000
H                 18.9451180000     -7.2808650000      0.5207320000
H                 18.4404220000     -8.2829290000     -0.8269370000
H                 18.4206760000    -10.2945040000      0.6770430000
H                 18.9247180000     -9.2933110000      2.0236630000
H                 20.5765520000     -9.7672430000     -0.5330670000
H                 20.8893710000    -10.4969250000      1.0434210000
H                 21.0854900000     -8.7562020000      0.8265360000
$end

$rem
MAX_SCF_CYCLES=200
BASIS  =  6-311++G(d,p)
GUI  =  2
JOB_TYPE  =  SP
METHOD  =  B3LYP
THRESH      14
SCF_CONVERGENCE  = 5
SOLVENT_METHOD = sm12
$end

$smx
solvent dimethylformamide
charges CM5
$end

--------------------------------------------------------------

             Standard Nuclear Orientation (Angstroms)
    I     Atom           X                Y                Z
 ----------------------------------------------------------------
    1      C      -7.1707500000     4.0854400000     0.7848400000
    2      C      -8.1555520000     3.3957530000     0.1027260000
    3      C      -7.8228460000     2.6310280000    -1.0350380000
    4      C      -5.8243800000     4.0384010000     0.3595660000
    5      C      -5.4859590000     3.2651600000    -0.7907060000
    6      C      -6.5070600000     2.5734490000    -1.4657300000
    7      C      -4.7961860000     4.7609800000     1.0737670000
    8      C      -3.4518030000     4.6480770000     0.5614480000
    9      C      -3.0892230000     3.9155950000    -0.5510920000
   10      C      -4.0954400000     3.1776490000    -1.2828450000
   11      O      -4.9871150000     5.4836800000     2.1104160000
   12      O      -3.8100420000     2.4905730000    -2.3003110000
   13      O      -2.5344930000     5.3550020000     1.2863060000
   14      C      -1.6592830000     3.8576410000    -1.0243860000
   15      C      -0.8708220000     2.6576640000    -0.4630220000
   16      C       0.5735160000     2.5992800000    -0.9739940000
   17      C       1.3836440000     1.4186880000    -0.4241760000
   18      C       2.8281490000     1.3701010000    -0.9377370000
   19      C       3.6479290000     0.1946110000    -0.3912770000
   20      C       5.0900210000     0.1569160000    -0.9118940000
   21      C       5.9184480000    -1.0135960000    -0.3675790000
   22      C       7.3587210000    -1.0336340000    -0.8986310000
   23      C       8.1795420000    -2.2013780000    -0.3491500000
   24      S       9.8900750000    -2.1654910000    -1.0222080000
   25      C      10.5922900000    -3.6468920000    -0.1871460000
   26      C      12.0548560000    -3.8509630000    -0.5851640000
   27      C      12.6843120000    -5.0780460000     0.0897750000
   28      C      14.1518590000    -5.2949800000    -0.2998150000
   29      C      14.7905380000    -6.5180920000     0.3694890000
   30      C      16.2580450000    -6.7349830000    -0.0193490000
   31      C      16.8967230000    -7.9579940000     0.6505360000
   32      C      18.3641040000    -8.1759720000     0.2629980000
   33      C      19.0013760000    -9.3994660000     0.9340700000
   34      C      20.4667340000    -9.6166300000     0.5470180000
   35      H      -7.4016980000     4.6796670000     1.6620270000
   36      H      -9.1865270000     3.4415000000     0.4428120000
   37      H      -8.5966610000     2.0885560000    -1.5705440000
   38      H      -6.2218170000     1.9928910000    -2.3360140000
   39      H      -3.1000470000     5.7584960000     1.9822450000
   40      H      -1.1442550000     4.7828410000    -0.7448520000
   41      H      -1.6659620000     3.7842070000    -2.1167210000
   42      H      -1.3966190000     1.7370210000    -0.7381030000
   43      H      -0.8702180000     2.7107250000     0.6323230000
   44      H       1.0861230000     3.5365920000    -0.7167520000
   45      H       0.5640210000     2.5490850000    -2.0710950000
   46      H       0.8753920000     0.4807620000    -0.6834140000
   47      H       1.3915610000     1.4658360000     0.6728700000
   48      H       3.3333230000     2.3108190000    -0.6808360000
   49      H       2.8184820000     1.3226770000    -2.0348140000
   50      H       3.1456310000    -0.7472100000    -0.6482820000
   51      H       3.6604750000     0.2413560000     0.7056310000
   52      H       5.5899570000     1.1005530000    -0.6568780000
   53      H       5.0761780000     0.1087770000    -2.0086240000
   54      H       5.4231110000    -1.9588860000    -0.6241660000
   55      H       5.9361010000    -0.9662110000     0.7289050000
   56      H       7.8548340000    -0.0909450000    -0.6404430000
   57      H       7.3423220000    -1.0873020000    -1.9932980000
   58      H       7.7180540000    -3.1554370000    -0.6220910000
   59      H       8.2344180000    -2.1499940000     0.7426690000
   60      H       9.9946360000    -4.5197020000    -0.4682070000
   61      H      10.5069900000    -3.5078700000     0.8951720000
   62      H      12.6299450000    -2.9556490000    -0.3222730000
   63      H      12.1223640000    -3.9592790000    -1.6738000000
   64      H      12.1041400000    -5.9731700000    -0.1693320000
   65      H      12.6104660000    -4.9711750000     1.1797780000
   66      H      14.7304940000    -4.3985980000    -0.0409940000
   67      H      14.2243220000    -5.4010820000    -1.3901340000
   68      H      14.2116260000    -7.4146600000     0.1114420000
   69      H      14.7170580000    -6.4126550000     1.4599180000
   70      H      16.8371550000    -5.8383910000     0.2385580000
   71      H      16.3318730000    -6.8407670000    -1.1098160000
   72      H      16.3174770000    -8.8544330000     0.3926870000
   73      H      16.8224270000    -7.8521560000     1.7408950000
   74      H      18.9451180000    -7.2808650000     0.5207320000
   75      H      18.4404220000    -8.2829290000    -0.8269370000
   76      H      18.4206760000   -10.2945040000     0.6770430000
   77      H      18.9247180000    -9.2933110000     2.0236630000
   78      H      20.5765520000    -9.7672430000    -0.5330670000
   79      H      20.8893710000   -10.4969250000     1.0434210000
   80      H      21.0854900000    -8.7562020000     0.8265360000
 ----------------------------------------------------------------

   10   -1795.1875465625      4.56e-06  Convergence criterion met
 Total energy in the final basis set =    -1795.4852896085

                    Orbital Energies (a.u.)
 --------------------------------------------------------------

 Alpha MOs
 -- Occupied --
-88.8268 -19.1209 -19.0286 -19.0226 -10.1920 -10.1918 -10.1854 -10.1818
-10.1702 -10.1698 -10.1692 -10.1689 -10.1654 -10.1653 -10.1649 -10.1649
-10.1647 -10.1642 -10.1638 -10.1635 -10.1631 -10.1631 -10.1626 -10.1626
-10.1625 -10.1620 -10.1618 -10.1616 -10.1602 -10.1573 -10.1570 -10.1441
-10.1420 -10.1325  -7.9132  -5.8771  -5.8738  -5.8666  -1.0365  -0.9522
 -0.9435  -0.8414  -0.8224  -0.8164  -0.8103  -0.8027  -0.7914  -0.7813
 -0.7704  -0.7560  -0.7427  -0.7385  -0.7262  -0.7094  -0.6915  -0.6708
 -0.6506  -0.6352  -0.6241  -0.6075  -0.5987  -0.5881  -0.5818  -0.5815
 -0.5768  -0.5765  -0.5752  -0.5710  -0.5681  -0.5495  -0.5178  -0.4900
 -0.4886  -0.4847  -0.4787  -0.4759  -0.4620  -0.4558  -0.4515  -0.4427
 -0.4406  -0.4392  -0.4331  -0.4291  -0.4284  -0.4242  -0.4224  -0.4217
 -0.4161  -0.4077  -0.4024  -0.3988  -0.3976  -0.3917  -0.3900  -0.3838
 -0.3757  -0.3727  -0.3714  -0.3663  -0.3662  -0.3622  -0.3592  -0.3566
 -0.3546  -0.3484  -0.3445  -0.3436  -0.3404  -0.3366  -0.3337  -0.3319
 -0.3300  -0.3292  -0.3265  -0.3254  -0.3253  -0.3244  -0.3237  -0.3232
 -0.3227  -0.3197  -0.3142  -0.3067  -0.3054  -0.2999  -0.2945  -0.2459
 -0.2348  -0.2164  -0.2142  -0.2017  -0.1979  -0.1076

          Ground-State Mulliken Net Atomic Charges

     Atom                 Charge (a.u.)
  ----------------------------------------
      1 C                    -0.194158
      2 C                     0.973093
      3 C                     0.996310
      4 C                    -2.180684
      5 C                    -1.999385
      6 C                    -0.488099
      7 C                    -1.892904
      8 C                    -0.205483
      9 C                     1.667939
     10 C                    -2.542191
     11 O                    -0.399519
     12 O                    -0.246747
     13 O                    -0.030196
     14 C                    -0.463480
     15 C                    -2.093312
     16 C                    -0.226029
     17 C                     0.422985
     18 C                     1.714857
     19 C                     0.886925
     20 C                     0.331257
     21 C                     0.107234
     22 C                    -0.110658
     23 C                    -0.362742
     24 S                    -0.478849
     25 C                    -0.607202
     26 C                    -0.255511
     27 C                     0.232883
     28 C                     0.017123
     29 C                     0.088823
     30 C                     0.117894
     31 C                    -0.044468
     32 C                    -0.269768
     33 C                    -0.217212
     34 C                    -0.572275
     35 H                     0.102027
     36 H                     0.372553
     37 H                     0.347262
     38 H                     0.071037
     39 H                     0.317872
     40 H                     0.189542
     41 H                     0.060575
     42 H                     0.032265
     43 H                     0.016687
     44 H                     0.234645
     45 H                     0.222927
     46 H                     0.112913
     47 H                     0.124089
     48 H                     0.092226
     49 H                     0.091129
     50 H                     0.121141
     51 H                     0.128056
     52 H                     0.138748
     53 H                     0.136940
     54 H                     0.122436
     55 H                     0.121353
     56 H                     0.084093
     57 H                     0.083660
     58 H                     0.189977
     59 H                     0.189370
     60 H                     0.164913
     61 H                     0.165641
     62 H                     0.110067
     63 H                     0.110430
     64 H                     0.123681
     65 H                     0.123869
     66 H                     0.108906
     67 H                     0.108753
     68 H                     0.112474
     69 H                     0.112288
     70 H                     0.115167
     71 H                     0.114816
     72 H                     0.113708
     73 H                     0.113480
     74 H                     0.105812
     75 H                     0.105502
     76 H                     0.126267
     77 H                     0.126110
     78 H                     0.141865
     79 H                     0.174343
     80 H                     0.141933
  ----------------------------------------
  Sum of atomic charges =    -2.000000

                    Cartesian Multipole Moments
 -----------------------------------------------------------------
    Charge (ESU x 10^10)
                -9.6064
    Dipole Moment (Debye)
         X      44.8285      Y     -37.9871      Z       2.7604
       Tot      58.8238
    Quadrupole Moments (Debye-Ang)
        XX    -506.9212     XY     166.6056     YY    -388.5162
        XZ      11.2130     YZ     -14.7500     ZZ    -268.6449

 Total job time:  5041.15s(wall), 26224.02s(cpu)
        *  Thank you very much for using Q-Chem.  Have a nice day.  *
