 Gaussian 16, Revision A.03,
 Gaussian 16:  ES64L-G16RevA.03 25-Dec-2016

 ----------------------------------------------------------------
 #P UB3LYP/6-311++G(d,p) SCRF=(PCM,Solvent=n,n-DiMethylFormamide)
 ----------------------------------------------------------------

 ------------------
 Radical PCM in DMF
 ------------------
 Symbolic Z-matrix:
 Charge = -1 Multiplicity = 2

                         Standard orientation:
 ---------------------------------------------------------------------
 Center     Atomic      Atomic             Coordinates (Angstroms)
 Number     Number       Type             X           Y           Z
 ---------------------------------------------------------------------
      1          6           0       -6.352417   -3.358785    0.654866
      2          6           0       -5.765146   -4.590260    0.877292
      3          6           0       -4.380438   -4.755706    0.677917
      4          6           0       -5.577761   -2.257798    0.231716
      5          6           0       -4.180785   -2.420043    0.030501
      6          6           0       -3.608754   -3.684124    0.258401
      7          6           0       -6.185686   -0.969543   -0.013098
      8          6           0       -5.301144    0.096375   -0.420747
      9          6           0       -3.927019   -0.005366   -0.583427
     10          6           0       -3.309311   -1.305164   -0.416877
     11          8           0       -7.426515   -0.707931    0.099509
     12          8           0       -2.090291   -1.536802   -0.642456
     13          8           0       -5.948030    1.270274   -0.648551
     14          1           0       -7.416088   -3.204881    0.796760
     15          1           0       -6.370319   -5.430700    1.204299
     16          1           0       -3.919076   -5.723105    0.851945
     17          1           0       -2.542536   -3.785653    0.093396
     18          1           0       -6.882196    1.033973   -0.450993
     19          6           0       -3.236120    2.418625   -0.060460
     20          6           0       -3.357662    2.223619    1.315990
     21          6           0       -3.108510    3.728333   -0.536226
     22          6           0       -3.097472    4.813397    0.336638
     23          6           0       -3.215982    4.605915    1.711716
     24          6           0       -3.347302    3.305952    2.196149
     25          1           0       -3.472986    1.215659    1.697551
     26          1           0       -3.011916    3.889823   -1.605040
     27          1           0       -3.002461    5.821575   -0.054918
     28          1           0       -3.447094    3.131400    3.262789
     29          1           0       -3.213450    5.448706    2.395549
     30          6           0       -3.197436    1.261776   -1.063599
     31          1           0       -3.783638    1.613683   -1.921985
     32          7           0       -1.815198    1.104173   -1.580767
     33          6           0       -0.735862    1.094849   -0.584962
     34          6           0        0.587334    0.731480   -1.258259
     35          6           0        1.776805    0.751102   -0.292526
     36          6           0        3.108916    0.376614   -0.952403
     37          6           0        4.301255    0.392867    0.011009
     38          6           0        5.633625    0.017293   -0.647685
     39          6           0        6.825358    0.033124    0.316488
     40          6           0        8.157726   -0.342015   -0.342384
     41          6           0        9.349043   -0.325824    0.622297
     42          6           0       10.681494   -0.699992   -0.036442
     43          6           0       11.873155   -0.684205    0.927752
     44          6           0       13.199767   -1.059035    0.260119
     45          1           0       -1.786053    0.194413   -2.032198
     46          1           0       -0.924649    0.378322    0.225930
     47          1           0       -0.656103    2.093537   -0.143868
     48          1           0        0.768139    1.426241   -2.088255
     49          1           0        0.493233   -0.270250   -1.695271
     50          1           0        1.579070    0.060206    0.536619
     51          1           0        1.865899    1.749659    0.156398
     52          1           0        3.307433    1.065583   -1.784365
     53          1           0        3.019952   -0.621671   -1.400239
     54          1           0        4.102296   -0.296383    0.842025
     55          1           0        4.389433    1.390954    0.460476
     56          1           0        5.832712    0.706312   -1.479223
     57          1           0        5.545480   -0.980754   -1.096567
     58          1           0        6.626514   -0.656348    1.147376
     59          1           0        6.913134    1.030993    0.766123
     60          1           0        8.356597    0.347321   -1.173534
     61          1           0        8.070155   -1.339948   -0.791562
     62          1           0        9.150490   -1.015712    1.452925
     63          1           0        9.436188    0.671956    1.072109
     64          1           0       10.881281   -0.010218   -0.867155
     65          1           0       10.595476   -1.697927   -0.486310
     66          1           0       11.674589   -1.374012    1.757202
     67          1           0       11.959872    0.312729    1.377164
     68          1           0       13.155872   -2.065416   -0.168660
     69          1           0       14.028445   -1.038348    0.974022
     70          1           0       13.443359   -0.366020   -0.551706
 ---------------------------------------------------------------------

 SCF Done:  E(UB3LYP) =  -1408.34125962     A.U. after   20 cycles

 The electronic state is 2-A.
 Alpha  occ. eigenvalues --  -19.14467 -19.08673 -19.07169 -14.28632 -10.22730
 Alpha  occ. eigenvalues --  -10.22363 -10.22105 -10.20442 -10.17980 -10.17471
 Alpha  occ. eigenvalues --  -10.17459 -10.17423 -10.17341 -10.17324 -10.17293
 Alpha  occ. eigenvalues --  -10.17222 -10.17198 -10.17132 -10.17105 -10.16992
 Alpha  occ. eigenvalues --  -10.16919 -10.16690 -10.16087 -10.15845 -10.15827
 Alpha  occ. eigenvalues --  -10.15812 -10.15796 -10.15776 -10.15754 -10.15738
 Alpha  occ. eigenvalues --  -10.15719 -10.15461 -10.15427  -1.06690  -0.99955
 Alpha  occ. eigenvalues --   -0.99744  -0.89904  -0.85917  -0.85481  -0.81188
 Alpha  occ. eigenvalues --   -0.80692  -0.79838  -0.78057  -0.76669  -0.75112
 Alpha  occ. eigenvalues --   -0.74887  -0.74675  -0.73875  -0.71876  -0.69024
 Alpha  occ. eigenvalues --   -0.67476  -0.65747  -0.63614  -0.61823  -0.60994
 Alpha  occ. eigenvalues --   -0.60621  -0.60043  -0.58099  -0.57636  -0.57358
 Alpha  occ. eigenvalues --   -0.57086  -0.56883  -0.56418  -0.53825  -0.51495
 Alpha  occ. eigenvalues --   -0.50611  -0.48629  -0.48423  -0.47694  -0.46826
 Alpha  occ. eigenvalues --   -0.46734  -0.45948  -0.45709  -0.45054  -0.44397
 Alpha  occ. eigenvalues --   -0.43903  -0.43707  -0.43206  -0.43021  -0.42630
 Alpha  occ. eigenvalues --   -0.41998  -0.41882  -0.41706  -0.41340  -0.40690
 Alpha  occ. eigenvalues --   -0.39970  -0.39733  -0.39306  -0.38972  -0.38837
 Alpha  occ. eigenvalues --   -0.38023  -0.37729  -0.37230  -0.36846  -0.36437
 Alpha  occ. eigenvalues --   -0.35925  -0.35739  -0.35035  -0.34554  -0.34348
 Alpha  occ. eigenvalues --   -0.34150  -0.34009  -0.33576  -0.33434  -0.33085
 Alpha  occ. eigenvalues --   -0.32558  -0.32380  -0.32275  -0.32015  -0.31950
 Alpha  occ. eigenvalues --   -0.31812  -0.31736  -0.29339  -0.26753  -0.26171
 Alpha  occ. eigenvalues --   -0.25777  -0.25686  -0.25076  -0.24420  -0.23119
 Alpha  occ. eigenvalues --   -0.21431  -0.15213
 Alpha virt. eigenvalues --   -0.03319  -0.01730  -0.01538  -0.00905  -0.00574
 Alpha virt. eigenvalues --   -0.00309   0.00145   0.00323   0.00597   0.01008
 Alpha virt. eigenvalues --    0.01112   0.01153   0.01477   0.01810   0.02068

  Beta  occ. eigenvalues --  -19.14400 -19.08041 -19.06638 -14.28633 -10.22605
  Beta  occ. eigenvalues --  -10.22240 -10.21816 -10.20448 -10.17973 -10.17471
  Beta  occ. eigenvalues --  -10.17456 -10.17423 -10.17341 -10.17328 -10.17222
  Beta  occ. eigenvalues --  -10.17180 -10.17109 -10.17105 -10.17077 -10.16992
  Beta  occ. eigenvalues --  -10.16950 -10.16619 -10.16087 -10.15845 -10.15827
  Beta  occ. eigenvalues --  -10.15812 -10.15796 -10.15776 -10.15754 -10.15738
  Beta  occ. eigenvalues --  -10.15719 -10.15461 -10.15427  -1.06439  -0.99036
  Beta  occ. eigenvalues --   -0.98671  -0.89885  -0.85701  -0.85470  -0.81175
  Beta  occ. eigenvalues --   -0.80438  -0.79763  -0.78007  -0.76584  -0.74924
  Beta  occ. eigenvalues --   -0.74861  -0.74669  -0.73757  -0.71860  -0.68863
  Beta  occ. eigenvalues --   -0.66957  -0.65420  -0.63570  -0.61715  -0.60839
  Beta  occ. eigenvalues --   -0.60602  -0.59927  -0.58078  -0.57635  -0.57258
  Beta  occ. eigenvalues --   -0.57057  -0.56879  -0.56285  -0.53648  -0.51414
  Beta  occ. eigenvalues --   -0.50469  -0.48553  -0.48231  -0.47640  -0.46789
  Beta  occ. eigenvalues --   -0.46643  -0.45833  -0.45675  -0.45026  -0.44333
  Beta  occ. eigenvalues --   -0.43818  -0.43449  -0.43151  -0.42575  -0.42449
  Beta  occ. eigenvalues --   -0.41926  -0.41731  -0.41377  -0.40999  -0.40583
  Beta  occ. eigenvalues --   -0.39860  -0.39583  -0.39200  -0.38790  -0.38166
  Beta  occ. eigenvalues --   -0.37751  -0.37580  -0.37087  -0.36453  -0.36170
  Beta  occ. eigenvalues --   -0.35726  -0.34996  -0.34928  -0.34527  -0.34079
  Beta  occ. eigenvalues --   -0.33942  -0.33561  -0.33381  -0.33073  -0.32760
  Beta  occ. eigenvalues --   -0.32518  -0.32375  -0.32269  -0.32013  -0.31946
  Beta  occ. eigenvalues --   -0.31812  -0.31733  -0.29337  -0.25755  -0.25543
  Beta  occ. eigenvalues --   -0.25209  -0.24982  -0.24840  -0.23959  -0.22278
  Beta  occ. eigenvalues --   -0.21166
  Beta virt. eigenvalues --   -0.08657  -0.02600  -0.01704  -0.01422  -0.00622
  Beta virt. eigenvalues --   -0.00318   0.00046   0.00216   0.00343   0.00613
  Beta virt. eigenvalues --    0.01016   0.01124   0.01165   0.01486   0.01814

 Mulliken charges and spin densities:
               1          2
     1  C   -0.030980   0.076438
     2  C   -0.455623  -0.005337
     3  C   -0.553640   0.072240
     4  C    0.108148  -0.004628
     5  C    0.457542   0.062012
     6  C   -0.029571  -0.005238
     7  C   -0.751993   0.177642
     8  C   -0.476974   0.053650
     9  C    0.994465   0.069716
    10  C   -0.569301   0.062517
    11  O   -0.519636   0.232651
    12  O   -0.418914   0.201609
    13  O   -0.241585   0.020966
    14  H    0.182300  -0.004085
    15  H    0.178520  -0.000099
    16  H    0.182222  -0.005376
    17  H    0.181623   0.000379
    18  H    0.302382  -0.003946
    19  C    0.072233  -0.017960
    20  C   -0.275252  -0.017547
    21  C    0.196644   0.008868
    22  C   -0.312309  -0.002070
    23  C   -0.448419  -0.002322
    24  C   -0.219860   0.005414
    25  H    0.162213   0.000062
    26  H    0.177235   0.000641
    27  H    0.205032  -0.000026
    28  H    0.207753   0.000254
    29  H    0.172781  -0.000024
    30  C    0.236678   0.019671
    31  H    0.226963   0.001178
    32  N    0.072008  -0.006692
    33  C   -0.705276   0.003325
    34  C   -0.246310   0.005017
    35  C   -0.048421  -0.001142
    36  C   -0.230741  -0.000515
    37  C   -0.420523  -0.000046
    38  C   -0.346835   0.000038
    39  C   -0.209319  -0.000016
    40  C   -0.062225  -0.000006
    41  C   -0.118746   0.000000
    42  C   -0.284997   0.000000
    43  C   -0.227939   0.000000
    44  C   -0.685831  -0.000000
    45  H    0.266389   0.001531
    46  H    0.206934   0.001030
    47  H    0.099932   0.000706
    48  H    0.152141  -0.000090
    49  H    0.141659  -0.000652
    50  H    0.114333   0.000334
    51  H    0.128905  -0.000087
    52  H    0.116679   0.000032
    53  H    0.125978   0.000015
    54  H    0.131983  -0.000034
    55  H    0.131260   0.000002
    56  H    0.131368  -0.000002
    57  H    0.131574  -0.000001
    58  H    0.128498   0.000002
    59  H    0.128295   0.000000
    60  H    0.127931   0.000000
    61  H    0.127745  -0.000000
    62  H    0.125672  -0.000000
    63  H    0.125460  -0.000000
    64  H    0.122137   0.000000
    65  H    0.122735   0.000000
    66  H    0.131024   0.000000
    67  H    0.130994  -0.000000
    68  H    0.140009   0.000000
    69  H    0.144947  -0.000000
    70  H    0.139894  -0.000000
 Sum of Mulliken charges =  -1.00000   1.00000

 Dipole moment (field-independent basis, Debye):
    X=             21.4706    Y=              2.4855    Z=              2.3948  Tot=             21.7463
 Quadrupole moment (field-independent basis, Debye-Ang):
   XX=           -340.7499   YY=           -212.7218   ZZ=           -210.4450
   XY=            -10.8937   XZ=             -3.6865   YZ=              0.1141

 Normal termination of Gaussian 16 at Thu Jan 25 06:11:15 2024.
