 Gaussian 16, Revision A.03,
 Gaussian 16:  ES64L-G16RevA.03 25-Dec-2016

 ----------------------------------------------------------------------
 #P UB3LYP/6-311++G(d,p) nosym opt freq SCRF=(PCM,Solvent=n,n-DiMethylF
 ormamide)
 ----------------------------------------------------------------------

 -------
 Reduced
 -------
 Symbolic Z-matrix:
 Charge = -2 Multiplicity = 1

 SCF Done:  E(UB3LYP) =  -989.111646311     A.U. after   17 cycles
 SCF Done:  E(UB3LYP) =  -989.112399905     A.U. after   15 cycles
 SCF Done:  E(UB3LYP) =  -989.111942564     A.U. after   15 cycles
 SCF Done:  E(UB3LYP) =  -989.112849455     A.U. after   14 cycles
 SCF Done:  E(UB3LYP) =  -989.112864359     A.U. after   13 cycles
 SCF Done:  E(UB3LYP) =  -989.112884080     A.U. after   12 cycles
 SCF Done:  E(UB3LYP) =  -989.112854082     A.U. after   11 cycles
 SCF Done:  E(UB3LYP) =  -989.112854557     A.U. after   11 cycles
 Optimization completed.
    -- Stationary point found.
 Normal termination of Gaussian 16 at Sun Feb 11 02:31:35 2024.

 ----------------------------------------------------------------------
 #P Geom=AllCheck Guess=TCheck SCRF=Check GenChk UB3LYP/6-311++G(d,p) F
 req
 ----------------------------------------------------------------------

 Structure from the checkpoint file:  "270-an.chk"
 -------
 Reduced
 -------
 Charge = -2 Multiplicity = 1

                          Input orientation:
 ---------------------------------------------------------------------
 Center     Atomic      Atomic             Coordinates (Angstroms)
 Number     Number       Type             X           Y           Z
 ---------------------------------------------------------------------
      1          6           0       -0.957993    3.985034   -0.133604
      2          6           0       -2.203318    3.397807   -0.217504
      3          6           0       -2.318328    1.984144   -0.223726
      4          6           0        0.237139    3.218370   -0.049676
      5          6           0        0.118124    1.775018   -0.059062
      6          6           0       -1.178600    1.208100   -0.148099
      7          6           0        1.517077    3.868320    0.020179
      8          6           0        2.641841    3.012486    0.090677
      9          6           0        2.513336    1.602643    0.128826
     10          6           0        1.282530    0.919264    0.024099
     11          8           0        1.671551    5.177901    0.009562
     12          8           0        1.208429   -0.384920    0.009837
     13          7           0        3.910466    3.650570    0.193031
     14         16           0        3.949103    0.519902    0.283984
     15          1           0       -0.860693    5.065135   -0.130438
     16          1           0       -3.094902    4.014906   -0.278961
     17          1           0       -3.296459    1.517435   -0.288932
     18          1           0       -1.250515    0.125755   -0.156327
     19          1           0        3.741564    4.645185    0.044879
     20          1           0        4.583036    3.315694   -0.490485
     21          1           0        4.811762    1.468412    0.705320
 ---------------------------------------------------------------------

 SCF Done:  E(UB3LYP) =  -989.112854557     A.U. after    1 cycles

 Alpha  occ. eigenvalues --  -88.83070 -19.01930 -19.01653 -14.28699 -10.17446
 Alpha  occ. eigenvalues --  -10.16533 -10.16366 -10.15686 -10.14802 -10.14637
 Alpha  occ. eigenvalues --  -10.14574 -10.14474 -10.13848 -10.13784  -7.91701
 Alpha  occ. eigenvalues --   -5.88043  -5.87698  -5.87163  -0.93228  -0.92620
 Alpha  occ. eigenvalues --   -0.87117  -0.82401  -0.77252  -0.73402  -0.72198
 Alpha  occ. eigenvalues --   -0.67517  -0.63676  -0.58051  -0.57069  -0.52794
 Alpha  occ. eigenvalues --   -0.50423  -0.47833  -0.45040  -0.43630  -0.41571
 Alpha  occ. eigenvalues --   -0.40496  -0.39516  -0.37771  -0.37540  -0.35972
 Alpha  occ. eigenvalues --   -0.35673  -0.33623  -0.32499  -0.32257  -0.31772
 Alpha  occ. eigenvalues --   -0.30028  -0.27669  -0.25619  -0.22737  -0.22133
 Alpha  occ. eigenvalues --   -0.20323  -0.19764  -0.18135  -0.11275
 Alpha virt. eigenvalues --   -0.00519  -0.00216   0.00701   0.01482   0.01710
 Alpha virt. eigenvalues --    0.02759   0.03069   0.04125   0.04288   0.05223
 Alpha virt. eigenvalues --    0.05681   0.05931   0.06332   0.06818   0.07717

  Beta  occ. eigenvalues --  -88.83070 -19.01930 -19.01653 -14.28699 -10.17446
  Beta  occ. eigenvalues --  -10.16533 -10.16366 -10.15686 -10.14802 -10.14637
  Beta  occ. eigenvalues --  -10.14574 -10.14474 -10.13848 -10.13784  -7.91701
  Beta  occ. eigenvalues --   -5.88043  -5.87698  -5.87163  -0.93228  -0.92620
  Beta  occ. eigenvalues --   -0.87117  -0.82401  -0.77252  -0.73402  -0.72198
  Beta  occ. eigenvalues --   -0.67517  -0.63676  -0.58051  -0.57069  -0.52794
  Beta  occ. eigenvalues --   -0.50423  -0.47833  -0.45040  -0.43630  -0.41571
  Beta  occ. eigenvalues --   -0.40496  -0.39516  -0.37771  -0.37540  -0.35972
  Beta  occ. eigenvalues --   -0.35673  -0.33623  -0.32499  -0.32257  -0.31772
  Beta  occ. eigenvalues --   -0.30028  -0.27669  -0.25619  -0.22737  -0.22133
  Beta  occ. eigenvalues --   -0.20323  -0.19764  -0.18135  -0.11275
  Beta virt. eigenvalues --   -0.00519  -0.00216   0.00701   0.01482   0.01710
  Beta virt. eigenvalues --    0.02759   0.03069   0.04125   0.04288   0.05223
  Beta virt. eigenvalues --    0.05681   0.05931   0.06332   0.06818   0.07717

 Mulliken charges and spin densities:
               1          2
     1  C    0.016621  -0.000000
     2  C   -0.376926  -0.000000
     3  C   -0.385081   0.000000
     4  C   -0.096481   0.000000
     5  C    0.632856   0.000000
     6  C    0.090403   0.000000
     7  C   -0.897047  -0.000000
     8  C    0.035052  -0.000000
     9  C    1.456760   0.000000
    10  C   -1.220661   0.000000
    11  O   -0.735558   0.000000
    12  O   -0.648054   0.000000
    13  N   -0.438573   0.000000
    14  S   -0.629575   0.000000
    15  H    0.148352   0.000000
    16  H    0.153070  -0.000000
    17  H    0.156782   0.000000
    18  H    0.139590   0.000000
    19  H    0.278691  -0.000000
    20  H    0.230227   0.000000
    21  H    0.089552  -0.000000
 Sum of Mulliken charges =  -2.00000  -0.00000

 Dipole moment (field-independent basis, Debye):
    X=            -12.4818    Y=            -20.7542    Z=             -1.3508  Tot=             24.2560
 Quadrupole moment (field-independent basis, Debye-Ang):
   XX=           -125.5029   YY=           -203.0898   ZZ=           -102.1925
   XY=            -23.3676   XZ=             -5.9797   YZ=             -3.9913

  Exact polarizability: 407.648 -17.387 306.186  18.767  -3.679 151.043
 Approx polarizability: 443.993  -8.244 350.488  20.588  -1.451 161.432

                      1                      2                      3
                      A                      A                      A
 Frequencies --     83.8216               110.4279               161.5079
 Red. masses --      7.4359                 5.1187                 4.8550
 Frc consts  --      0.0308                 0.0368                 0.0746
 IR Inten    --     21.8275                 5.8234                 0.8082

                      4                      5                      6
                      A                      A                      A
 Frequencies --    168.5399               182.7154               247.4119
 Red. masses --      4.2874                 7.4617                 2.3682
 Frc consts  --      0.0718                 0.1468                 0.0854
 IR Inten    --     11.5899                11.3507                54.8530

                      7                      8                      9
                      A                      A                      A
 Frequencies --    278.1598               302.8694               309.2522
 Red. masses --      2.2030                 3.7300                 5.7801
 Frc consts  --      0.1004                 0.2016                 0.3257
 IR Inten    --     29.2378                17.9987                 4.8858

                     10                     11                     12
                      A                      A                      A
 Frequencies --    349.5052               367.5664               379.5195
 Red. masses --      7.4275                 5.8997                 7.8195
 Frc consts  --      0.5346                 0.4696                 0.6636
 IR Inten    --      2.7455                 5.1457                 3.0450

                     13                     14                     15
                      A                      A                      A
 Frequencies --    419.8539               435.9019               463.0794
 Red. masses --      1.2341                 5.9478                 3.2384
 Frc consts  --      0.1282                 0.6659                 0.4092
 IR Inten    --    121.2932                 2.1667                12.1366

                     16                     17                     18
                      A                      A                      A
 Frequencies --    504.3070               529.6126               572.3826
 Red. masses --     11.3556                 4.3222                 7.4193
 Frc consts  --      1.7016                 0.7143                 1.4321
 IR Inten    --      5.3121                10.5394                17.3987

                     19                     20                     21
                      A                      A                      A
 Frequencies --    656.2215               669.6074               685.3033
 Red. masses --      6.5676                 5.4998                 3.9514
 Frc consts  --      1.6663                 1.4529                 1.0934
 IR Inten    --     34.2082                10.8817                30.4703

                     22                     23                     24
                      A                      A                      A
 Frequencies --    694.2899               764.9645               777.6528
 Red. masses --      3.3613                 1.8953                 3.7781
 Frc consts  --      0.9546                 0.6534                 1.3462
 IR Inten    --     81.8823                55.5413                12.1758

                     25                     26                     27
                      A                      A                      A
 Frequencies --    810.2810               838.6731               852.0933
 Red. masses --      6.6439                 2.6173                 1.5401
 Frc consts  --      2.5701                 1.0847                 0.6588
 IR Inten    --    195.6226               100.3740                 3.3125

                     28                     29                     30
                      A                      A                      A
 Frequencies --    879.7953               926.9851               966.0438
 Red. masses --      1.5161                 1.6139                 1.3404
 Frc consts  --      0.6914                 0.8171                 0.7370
 IR Inten    --    462.7911                 0.5588                 3.7509

                     31                     32                     33
                      A                      A                      A
 Frequencies --    980.8612              1008.2297              1029.4153
 Red. masses --      1.2535                 4.2325                 2.1233
 Frc consts  --      0.7105                 2.5349                 1.3257
 IR Inten    --      1.8114               120.6795                67.9741

                     34                     35                     36
                      A                      A                      A
 Frequencies --   1087.2092              1122.6364              1149.2844
 Red. masses --      3.1651                 1.6995                 1.3837
 Frc consts  --      2.2043                 1.2620                 1.0769
 IR Inten    --     91.5345                88.4237                38.3361

                     37                     38                     39
                      A                      A                      A
 Frequencies --   1164.0643              1192.1389              1241.9231
 Red. masses --      3.5524                 1.6444                 3.3404
 Frc consts  --      2.8361                 1.3769                 3.0356
 IR Inten    --     82.0437               276.5261               348.3715

                     40                     41                     42
                      A                      A                      A
 Frequencies --   1281.7815              1325.1043              1368.7277
 Red. masses --      2.1999                 5.7979                 9.3610
 Frc consts  --      2.1295                 5.9982                10.3325
 IR Inten    --      6.9024               417.7413              1801.2687

                     43                     44                     45
                      A                      A                      A
 Frequencies --   1407.1809              1433.1506              1441.3052
 Red. masses --      6.8033                 2.5988                 3.3108
 Frc consts  --      7.9372                 3.1449                 4.0522
 IR Inten    --     41.4126                89.1042                29.7975

                     46                     47                     48
                      A                      A                      A
 Frequencies --   1507.6696              1513.8055              1579.8891
 Red. masses --      3.6147                 5.5285                 7.4835
 Frc consts  --      4.8410                 7.4644                11.0054
 IR Inten    --     51.2815               209.4744                 8.8983

                     49                     50                     51
                      A                      A                      A
 Frequencies --   1601.4891              1605.7193              2648.8409
 Red. masses --      1.2262                 4.1061                 1.0374
 Frc consts  --      1.8529                 6.2376                 4.2887
 IR Inten    --     87.5471                24.4626                14.5188

                     52                     53                     54
                      A                      A                      A
 Frequencies --   3137.2427              3152.3169              3168.2202
 Red. masses --      1.0845                 1.0886                 1.0918
 Frc consts  --      6.2887                 6.3733                 6.4566
 IR Inten    --     16.2501                29.0685                52.1972

                     55                     56                     57
                      A                      A                      A
 Frequencies --   3173.7493              3438.6554              3535.9103
 Red. masses --      1.0938                 1.0505                 1.0919
 Frc consts  --      6.4915                 7.3183                 8.0435
 IR Inten    --     68.4388                37.1452                24.7932

 - Thermochemistry -
 -------------------
 Temperature   298.150 Kelvin.  Pressure   1.00000 Atm.
 Atom     1 has atomic number  6 and mass  12.00000

 Molecular mass:   205.01975 amu.
 Principal axes and moments of inertia in atomic units:
                           1         2         3
     Eigenvalues --  1797.153933410.001085201.00460
           X            0.95512   0.28736  -0.07187
           Y           -0.28705   0.95780   0.01478
           Z            0.07308   0.00651   0.99730
 This molecule is an asymmetric top.
 Rotational symmetry number  1.
 Warning -- assumption of classical behavior for rotation
           may cause significant error
 Rotational temperatures (Kelvin)      0.04820     0.02540     0.01665
 Rotational constants (GHZ):           1.00422     0.52925     0.34700
 Zero-point vibrational energy     380920.1 (Joules/Mol)
                                   91.04209 (Kcal/Mol)
 Warning -- explicit consideration of  18 degrees of freedom as
           vibrations may cause significant error
 Vibrational temperatures:    120.60   158.88   232.37   242.49   262.89
          (Kelvin)            355.97   400.21   435.76   444.94   502.86
                              528.85   546.04   604.08   627.17   666.27
                              725.59   761.99   823.53   944.16   963.42
                              986.00   998.93  1100.61  1118.87  1165.81
                             1206.66  1225.97  1265.83  1333.72  1389.92
                             1411.24  1450.62  1481.10  1564.25  1615.22
                             1653.56  1674.83  1715.22  1786.85  1844.20
                             1906.53  1969.29  2024.62  2061.98  2073.72
                             2169.20  2178.03  2273.11  2304.19  2310.27
                             3811.09  4513.79  4535.48  4558.36  4566.32
                             4947.46  5087.39

 Zero-point correction=                           0.145085 (Hartree/Particle)
 Thermal correction to Energy=                    0.156759
 Thermal correction to Enthalpy=                  0.157703
 Thermal correction to Gibbs Free Energy=         0.107766
 Sum of electronic and zero-point Energies=           -988.967770
 Sum of electronic and thermal Energies=              -988.956095
 Sum of electronic and thermal Enthalpies=            -988.955151
 Sum of electronic and thermal Free Energies=         -989.005088

                     E (Thermal)             CV                S
                      KCal/Mol        Cal/Mol-Kelvin    Cal/Mol-Kelvin
 Total                   98.368             46.229            105.101
 Electronic               0.000              0.000              0.000
 Translational            0.889              2.981             41.858
 Rotational               0.889              2.981             31.833
 Vibrational             96.590             40.268             31.410
 Vibration     1          0.601              1.960              3.799
 Vibration     2          0.606              1.941              3.261
 Vibration     3          0.622              1.890              2.532
 Vibration     4          0.625              1.881              2.452
 Vibration     5          0.630              1.863              2.300
 Vibration     6          0.661              1.767              1.749
 Vibration     7          0.679              1.714              1.545
 Vibration     8          0.694              1.668              1.401
 Vibration     9          0.699              1.656              1.366
 Vibration    10          0.727              1.576              1.168
 Vibration    11          0.740              1.539              1.090
 Vibration    12          0.750              1.514              1.041
 Vibration    13          0.783              1.427              0.892
 Vibration    14          0.796              1.392              0.840
 Vibration    15          0.821              1.332              0.757
 Vibration    16          0.860              1.240              0.647
 Vibration    17          0.885              1.184              0.588
 Vibration    18          0.929              1.091              0.500

 Optimization completed.
    -- Stationary point found.
 Normal termination of Gaussian 16 at Sun Feb 11 02:47:01 2024.
