 Gaussian 16, Revision A.03,
 Gaussian 16:  ES64L-G16RevA.03 25-Dec-2016

 --------------------------------------
 #P UB3LYP/6-311++G(d,p) nosym opt freq
 --------------------------------------

 -------
 Reduced
 -------
 Symbolic Z-matrix:
 Charge = -2 Multiplicity = 1

 SCF Done:  E(UB3LYP) =  -1505.78297039     A.U. after   37 cycles
 SCF Done:  E(UB3LYP) =  -1505.80962933     A.U. after   24 cycles
 SCF Done:  E(UB3LYP) =  -1505.81222788     A.U. after   19 cycles
 SCF Done:  E(UB3LYP) =  -1505.81361663     A.U. after   19 cycles
 SCF Done:  E(UB3LYP) =  -1505.81447583     A.U. after   17 cycles
 SCF Done:  E(UB3LYP) =  -1505.81583554     A.U. after   18 cycles
 SCF Done:  E(UB3LYP) =  -1505.81626235     A.U. after   18 cycles
 SCF Done:  E(UB3LYP) =  -1505.81657999     A.U. after   18 cycles
 SCF Done:  E(UB3LYP) =  -1505.81680979     A.U. after   17 cycles
 SCF Done:  E(UB3LYP) =  -1505.81698035     A.U. after   17 cycles
 SCF Done:  E(UB3LYP) =  -1505.81704259     A.U. after   15 cycles
 SCF Done:  E(UB3LYP) =  -1505.81707591     A.U. after   15 cycles
 SCF Done:  E(UB3LYP) =  -1505.81708652     A.U. after   14 cycles
 SCF Done:  E(UB3LYP) =  -1505.81708893     A.U. after   14 cycles
 SCF Done:  E(UB3LYP) =  -1505.81708954     A.U. after   13 cycles
 SCF Done:  E(UB3LYP) =  -1505.81708980     A.U. after   13 cycles
 SCF Done:  E(UB3LYP) =  -1505.81708985     A.U. after   13 cycles
 Optimization completed.
    -- Stationary point found.
 Normal termination of Gaussian 16 at Wed Dec 20 06:51:36 2023.

 ----------------------------------------------------------------------
 #P Geom=AllCheck Guess=TCheck SCRF=Check GenChk UB3LYP/6-311++G(d,p) F
 req
 ----------------------------------------------------------------------

 Structure from the checkpoint file:  "069-an.chk"
 -------
 Reduced
 -------
 Charge = -2 Multiplicity = 1

                          Input orientation:
 ---------------------------------------------------------------------
 Center     Atomic      Atomic             Coordinates (Angstroms)
 Number     Number       Type             X           Y           Z
 ---------------------------------------------------------------------
      1          6           0        1.056456    1.741037   -0.039186
      2          6           0       -0.171375    1.089463    0.416357
      3          6           0       -0.435021   -0.228466    0.234073
      4          6           0        0.508704   -1.173895   -0.361883
      5          6           0        1.740327   -0.587023   -0.833217
      6          6           0        1.921846    0.862686   -0.763382
      7          8           0        1.239250    2.975365    0.201186
      8          8           0        0.227364   -2.416057   -0.331964
      9         16           0        3.092637    1.653325   -1.824932
     10          6           0        4.465214    2.229917   -0.770729
     11          6           0        4.299065    3.388078   -0.008232
     12          6           0        5.657116    1.507746   -0.736166
     13          6           0        6.710241    1.969186    0.053583
     14          6           0        5.357572    3.836184    0.781081
     15          6           0        6.567003    3.135732    0.808758
     16          8           0        2.544077    2.888078   -2.430615
     17          8           0        3.685193    0.682313   -2.771978
     18          1           0       -0.888057    1.746270    0.907274
     19          1           0       -1.366824   -0.668153    0.586463
     20          1           0        3.331734    3.879031   -0.023477
     21          1           0        5.725676    0.590394   -1.306800
     22          1           0        7.641681    1.410696    0.086877
     23          1           0        5.236238    4.733508    1.381943
     24          1           0        7.389078    3.490398    1.425237
     25          6           0        2.877953   -1.476061   -1.024393
     26          6           0        2.693294   -2.806688   -1.728196
     27          6           0        1.750599   -2.989726   -2.746261
     28          6           0        3.583619   -3.849183   -1.451157
     29          6           0        1.702073   -4.178809   -3.467602
     30          6           0        2.583694   -5.223092   -3.170081
     31          6           0        3.522882   -5.053757   -2.152560
     32          8           0        4.032213   -1.218092   -0.641037
     33          1           0        1.060960   -2.183032   -2.960501
     34          1           0        4.328932   -3.687046   -0.680855
     35          1           0        0.967489   -4.299032   -4.259378
     36          1           0        2.539465   -6.155012   -3.728159
     37          1           0        4.214922   -5.857514   -1.912271
 ---------------------------------------------------------------------

 SCF Done:  E(UB3LYP) =  -1505.81708985     A.U. after    2 cycles

 Alpha  occ. eigenvalues --  -88.79686 -18.85961 -18.85787 -18.84927 -18.81105
 Alpha  occ. eigenvalues --  -18.80716 -10.00548  -9.99063  -9.98625  -9.98551
 Alpha  occ. eigenvalues --   -9.98509  -9.98434  -9.98141  -9.97791  -9.97744
 Alpha  occ. eigenvalues --   -9.97562  -9.97491  -9.97235  -9.96809  -9.96713
 Alpha  occ. eigenvalues --   -9.96640  -9.93332  -9.93263  -9.93151  -9.91841
 Alpha  occ. eigenvalues --   -7.85972  -5.82274  -5.82174  -5.82044  -0.85012
 Alpha  occ. eigenvalues --   -0.77741  -0.74346  -0.73295  -0.72904  -0.66311
 Alpha  occ. eigenvalues --   -0.65446  -0.57806  -0.56174  -0.55335  -0.55268
 Alpha  occ. eigenvalues --   -0.54631  -0.51802  -0.47345  -0.43118  -0.41803
 Alpha  occ. eigenvalues --   -0.41194  -0.40517  -0.39258  -0.36844  -0.33944
 Alpha  occ. eigenvalues --   -0.33059  -0.31026  -0.29200  -0.26623  -0.26088
 Alpha  occ. eigenvalues --   -0.25427  -0.24673  -0.24516  -0.23686  -0.23274
 Alpha  occ. eigenvalues --   -0.22816  -0.22415  -0.22101  -0.20650  -0.19635
 Alpha  occ. eigenvalues --   -0.18607  -0.17602  -0.17305  -0.17215  -0.15808
 Alpha  occ. eigenvalues --   -0.15316  -0.14817  -0.14415  -0.14128  -0.13520
 Alpha  occ. eigenvalues --   -0.12820  -0.11768  -0.10353  -0.08490  -0.07230
 Alpha  occ. eigenvalues --   -0.06592  -0.05993  -0.05564  -0.05458  -0.04444
 Alpha  occ. eigenvalues --   -0.04229  -0.01915  -0.01318  -0.00069   0.01706
 Alpha  occ. eigenvalues --    0.02541   0.08555
 Alpha virt. eigenvalues --    0.13621   0.13671   0.15467   0.15829   0.16290
 Alpha virt. eigenvalues --    0.17029   0.17053   0.17510   0.17587   0.18184
 Alpha virt. eigenvalues --    0.18816   0.19767   0.19951   0.20159   0.20910

  Beta  occ. eigenvalues --  -88.79686 -18.85961 -18.85787 -18.84927 -18.81105
  Beta  occ. eigenvalues --  -18.80716 -10.00548  -9.99063  -9.98625  -9.98551
  Beta  occ. eigenvalues --   -9.98509  -9.98434  -9.98141  -9.97791  -9.97744
  Beta  occ. eigenvalues --   -9.97562  -9.97491  -9.97235  -9.96809  -9.96713
  Beta  occ. eigenvalues --   -9.96640  -9.93332  -9.93263  -9.93151  -9.91841
  Beta  occ. eigenvalues --   -7.85972  -5.82274  -5.82174  -5.82044  -0.85012
  Beta  occ. eigenvalues --   -0.77741  -0.74346  -0.73295  -0.72904  -0.66311
  Beta  occ. eigenvalues --   -0.65446  -0.57806  -0.56174  -0.55335  -0.55268
  Beta  occ. eigenvalues --   -0.54631  -0.51802  -0.47345  -0.43118  -0.41803
  Beta  occ. eigenvalues --   -0.41194  -0.40517  -0.39258  -0.36844  -0.33944
  Beta  occ. eigenvalues --   -0.33059  -0.31026  -0.29200  -0.26623  -0.26088
  Beta  occ. eigenvalues --   -0.25427  -0.24673  -0.24516  -0.23686  -0.23274
  Beta  occ. eigenvalues --   -0.22816  -0.22415  -0.22101  -0.20650  -0.19635
  Beta  occ. eigenvalues --   -0.18607  -0.17602  -0.17305  -0.17215  -0.15808
  Beta  occ. eigenvalues --   -0.15316  -0.14817  -0.14415  -0.14128  -0.13520
  Beta  occ. eigenvalues --   -0.12820  -0.11768  -0.10353  -0.08490  -0.07230
  Beta  occ. eigenvalues --   -0.06592  -0.05993  -0.05564  -0.05458  -0.04444
  Beta  occ. eigenvalues --   -0.04229  -0.01915  -0.01318  -0.00069   0.01706
  Beta  occ. eigenvalues --    0.02541   0.08555
  Beta virt. eigenvalues --    0.13621   0.13671   0.15467   0.15829   0.16290
  Beta virt. eigenvalues --    0.17029   0.17053   0.17510   0.17587   0.18184
  Beta virt. eigenvalues --    0.18816   0.19767   0.19951   0.20159   0.20910

 Mulliken charges and spin densities:
               1          2
     1  C   -0.154168   0.000000
     2  C   -0.224258   0.000000
     3  C   -0.100153  -0.000000
     4  C   -0.752091   0.000000
     5  C    0.672531   0.000000
     6  C    0.063178  -0.000000
     7  O   -0.381564   0.000000
     8  O   -0.373683   0.000000
     9  S    0.078639  -0.000000
    10  C   -0.013075  -0.000000
    11  C    0.022790  -0.000000
    12  C    0.239498   0.000000
    13  C   -0.544268  -0.000000
    14  C   -0.539820   0.000000
    15  C   -0.164914  -0.000000
    16  O   -0.080590  -0.000000
    17  O   -0.183958   0.000000
    18  H    0.119378  -0.000000
    19  H    0.121121  -0.000000
    20  H    0.298332  -0.000000
    21  H    0.279056   0.000000
    22  H    0.127653   0.000000
    23  H    0.125541   0.000000
    24  H    0.102074  -0.000000
    25  C   -0.887427   0.000000
    26  C    1.228326  -0.000000
    27  C   -0.971420   0.000000
    28  C    0.586460   0.000000
    29  C   -0.564845   0.000000
    30  C   -0.334229  -0.000000
    31  C   -0.214350  -0.000000
    32  O   -0.248403  -0.000000
    33  H    0.172597   0.000000
    34  H    0.173300  -0.000000
    35  H    0.125158   0.000000
    36  H    0.087105  -0.000000
    37  H    0.110478   0.000000
 Sum of Mulliken charges =  -2.00000   0.00000

 Dipole moment (field-independent basis, Debye):
    X=            -21.5077    Y=             -1.8087    Z=              9.8272  Tot=             23.7155
 Quadrupole moment (field-independent basis, Debye-Ang):
   XX=           -242.3806   YY=           -238.7586   ZZ=           -191.5949
   XY=            -15.1165   XZ=             32.8704   YZ=             -1.0518

  Exact polarizability: 358.208  13.501 381.717  -3.290  75.480 232.782
 Approx polarizability: 622.247 -29.378 567.957 -17.777 100.686 380.893

                      1                      2                      3
                      A                      A                      A
 Frequencies --     18.9313                32.5737                41.8244
 Red. masses --      5.8751                 5.2593                 7.1154
 Frc consts  --      0.0012                 0.0033                 0.0073
 IR Inten    --      1.4717                 1.3878                 2.8815

                      4                      5                      6
                      A                      A                      A
 Frequencies --     42.8501                54.2264                73.0934
 Red. masses --      4.6809                 4.9871                 5.6037
 Frc consts  --      0.0051                 0.0086                 0.0176
 IR Inten    --      1.1496                 0.8866                 1.1930

                      7                      8                      9
                      A                      A                      A
 Frequencies --    109.5972               116.8786               150.1371
 Red. masses --      6.6362                 6.9190                 7.3125
 Frc consts  --      0.0470                 0.0557                 0.0971
 IR Inten    --      0.2542                 5.5771                 1.7522

                     10                     11                     12
                      A                      A                      A
 Frequencies --    160.7254               176.6126               194.2449
 Red. masses --      8.0110                 9.4313                 7.5731
 Frc consts  --      0.1219                 0.1733                 0.1684
 IR Inten    --      5.7713                 0.8626                 3.0787

                     13                     14                     15
                      A                      A                      A
 Frequencies --    204.4579               219.3165               256.6620
 Red. masses --      6.3291                 8.1974                 8.1061
 Frc consts  --      0.1559                 0.2323                 0.3146
 IR Inten    --      8.6039                 4.2594                 2.2493

                     16                     17                     18
                      A                      A                      A
 Frequencies --    282.7855               297.3683               309.7991
 Red. masses --     10.8305                 8.1485                 7.6766
 Frc consts  --      0.5103                 0.4245                 0.4341
 IR Inten    --      2.4201                 2.3456                 1.3914

                     19                     20                     21
                      A                      A                      A
 Frequencies --    315.8893               365.1657               400.1478
 Red. masses --      6.6612                 9.2740                 8.7342
 Frc consts  --      0.3916                 0.7286                 0.8240
 IR Inten    --      1.5136                 2.0160                 4.5934

                     22                     23                     24
                      A                      A                      A
 Frequencies --    409.3079               413.1165               415.0291
 Red. masses --      4.6734                 3.2872                 2.9307
 Frc consts  --      0.4613                 0.3305                 0.2974
 IR Inten    --      5.6857                 1.6132                 0.2110

                     25                     26                     27
                      A                      A                      A
 Frequencies --    439.0188               459.5204               463.6928
 Red. masses --      6.2547                10.1418                 6.2519
 Frc consts  --      0.7103                 1.2618                 0.7920
 IR Inten    --     13.2091                18.9498                 3.9396

                     28                     29                     30
                      A                      A                      A
 Frequencies --    493.9065               524.0057               559.8956
 Red. masses --      4.9161                 5.8993                 7.4438
 Frc consts  --      0.7066                 0.9544                 1.3749
 IR Inten    --      8.5097                29.6301                93.4216

                     31                     32                     33
                      A                      A                      A
 Frequencies --    585.3759               603.9118               627.5845
 Red. masses --      8.0512                 2.8120                 6.3574
 Frc consts  --      1.6255                 0.6042                 1.4753
 IR Inten    --     85.4418                28.4399                 0.6869

                     34                     35                     36
                      A                      A                      A
 Frequencies --    631.5239               632.0981               663.3449
 Red. masses --      6.3719                 4.9714                 5.5175
 Frc consts  --      1.4973                 1.1703                 1.4305
 IR Inten    --      0.4130                23.7459                27.5745

                     37                     38                     39
                      A                      A                      A
 Frequencies --    691.9070               692.4052               696.8284
 Red. masses --      1.8852                 1.6687                 3.7813
 Frc consts  --      0.5317                 0.4714                 1.0818
 IR Inten    --     25.8638                70.2466                20.6469

                     40                     41                     42
                      A                      A                      A
 Frequencies --    710.9633               733.5150               749.3197
 Red. masses --      5.0533                 5.8801                 2.0448
 Frc consts  --      1.5049                 1.8640                 0.6764
 IR Inten    --     13.1761                27.0095                 8.8318

                     43                     44                     45
                      A                      A                      A
 Frequencies --    763.1937               791.1754               831.0752
 Red. masses --      4.3407                 4.1418                 1.3101
 Frc consts  --      1.4896                 1.5275                 0.5331
 IR Inten    --     31.3026                 4.4011                 6.0527

                     46                     47                     48
                      A                      A                      A
 Frequencies --    833.2441               838.7394               848.7037
 Red. masses --      2.9828                 1.2658                 3.1386
 Frc consts  --      1.2202                 0.5246                 1.3320
 IR Inten    --     52.3491                 1.1986                46.6620

                     49                     50                     51
                      A                      A                      A
 Frequencies --    884.3140               909.3103               911.0051
 Red. masses --      8.1821                 1.5311                 1.4400
 Frc consts  --      3.7699                 0.7459                 0.7041
 IR Inten    --     48.1835                 4.5287                 2.5631

                     52                     53                     54
                      A                      A                      A
 Frequencies --    961.5588               969.3725               970.1260
 Red. masses --      1.2950                 1.3085                 1.3186
 Frc consts  --      0.7055                 0.7245                 0.7312
 IR Inten    --      1.8572                 2.5109                 2.7735

                     55                     56                     57
                      A                      A                      A
 Frequencies --    970.4737               980.4909              1010.7980
 Red. masses --      1.3327                 1.3880                 4.9974
 Frc consts  --      0.7395                 0.7862                 3.0083
 IR Inten    --      1.7396                 4.5684                22.7728

                     58                     59                     60
                      A                      A                      A
 Frequencies --   1013.1582              1023.8289              1035.3514
 Red. masses --      6.1951                 5.3320                 5.9337
 Frc consts  --      3.7467                 3.2930                 3.7476
 IR Inten    --     14.3296                43.3840                89.2629

                     61                     62                     63
                      A                      A                      A
 Frequencies --   1045.5971              1050.1435              1079.1533
 Red. masses --      2.0981                 3.1678                 2.2438
 Frc consts  --      1.3515                 2.0583                 1.5396
 IR Inten    --      5.3818                73.4142                22.6028

                     64                     65                     66
                      A                      A                      A
 Frequencies --   1088.3019              1090.3148              1098.7215
 Red. masses --      1.6036                 1.7900                 3.5953
 Frc consts  --      1.1191                 1.2537                 2.5572
 IR Inten    --     22.3139                15.1917                64.5544

                     67                     68                     69
                      A                      A                      A
 Frequencies --   1136.2859              1163.2750              1166.6580
 Red. masses --      1.6811                 1.0955                 1.1061
 Frc consts  --      1.2788                 0.8735                 0.8870
 IR Inten    --     86.7876                 1.2302                 0.3500

                     70                     71                     72
                      A                      A                      A
 Frequencies --   1180.7703              1192.6897              1198.6409
 Red. masses --      1.1779                 1.1925                11.5437
 Frc consts  --      0.9675                 0.9994                 9.7717
 IR Inten    --     15.1004                 1.8292                98.9117

                     73                     74                     75
                      A                      A                      A
 Frequencies --   1207.0558              1246.0035              1294.3715
 Red. masses --      3.2276                 9.6767                 3.4742
 Frc consts  --      2.7707                 8.8515                 3.4295
 IR Inten    --     52.1499                31.9988               114.3269

                     76                     77                     78
                      A                      A                      A
 Frequencies --   1325.1146              1328.1539              1341.9082
 Red. masses --      1.9072                 2.7678                 2.8156
 Frc consts  --      1.9732                 2.8766                 2.9872
 IR Inten    --     17.9358                 1.1615                30.8903

                     79                     80                     81
                      A                      A                      A
 Frequencies --   1346.0730              1349.3440              1409.5660
 Red. masses --      2.9911                 2.0245                 4.8685
 Frc consts  --      3.1932                 2.1718                 5.6993
 IR Inten    --     92.3061                42.5865                60.9320

                     82                     83                     84
                      A                      A                      A
 Frequencies --   1463.1109              1464.2560              1480.5747
 Red. masses --      2.2568                 2.1951                 9.7183
 Frc consts  --      2.8464                 2.7730                12.5516
 IR Inten    --      1.3304                 5.2537               172.5986

                     85                     86                     87
                      A                      A                      A
 Frequencies --   1500.2181              1507.7648              1511.4600
 Red. masses --      2.2028                 2.2890                 5.2281
 Frc consts  --      2.9210                 3.0659                 7.0369
 IR Inten    --    139.5055                 4.4007               512.1078

                     88                     89                     90
                      A                      A                      A
 Frequencies --   1574.0052              1608.7969              1610.5392
 Red. masses --      8.4310                 5.7519                 5.1716
 Frc consts  --     12.3067                 8.7713                 7.9034
 IR Inten    --    393.1681                36.1041                57.9365

                     91                     92                     93
                      A                      A                      A
 Frequencies --   1616.4341              1625.2743              1634.2269
 Red. masses --      6.2857                 5.8328                 7.3581
 Frc consts  --      9.6765                 9.0779                11.5782
 IR Inten    --     79.5045                34.3601                28.7465

                     94                     95                     96
                      A                      A                      A
 Frequencies --   3099.0818              3112.9395              3119.0445
 Red. masses --      1.0836                 1.0828                 1.0832
 Frc consts  --      6.1320                 6.1822                 6.2090
 IR Inten    --     26.3334                 6.5233                 2.1217

                     97                     98                     99
                      A                      A                      A
 Frequencies --   3126.9182              3129.4483              3137.2173
 Red. masses --      1.0951                 1.0888                 1.0892
 Frc consts  --      6.3086                 6.2828                 6.3159
 IR Inten    --    134.8104                65.5309                59.8935

                    100                    101                    102
                      A                      A                      A
 Frequencies --   3146.4214              3150.8256              3175.5887
 Red. masses --      1.0947                 1.0951                 1.0939
 Frc consts  --      6.3854                 6.4056                 6.4997
 IR Inten    --    118.5862                87.9685                26.6547

                    103                    104                    105
                      A                      A                      A
 Frequencies --   3179.2236              3195.7739              3205.3017
 Red. masses --      1.0910                 1.0923                 1.0922
 Frc consts  --      6.4972                 6.5724                 6.6116
 IR Inten    --     17.5646                 6.1827                 8.4966

 - Thermochemistry -
 -------------------
 Temperature   298.150 Kelvin.  Pressure   1.00000 Atm.
 Atom     1 has atomic number  6 and mass  12.00000

 Molecular mass:   352.04055 amu.
 Principal axes and moments of inertia in atomic units:
                           1         2         3
     Eigenvalues --  5111.98710********************
           X            0.31467   0.94229   0.11433
           Y            0.91334  -0.26778  -0.30676
           Z            0.25844  -0.20095   0.94490
 This molecule is an asymmetric top.
 Rotational symmetry number  1.
 Warning -- assumption of classical behavior for rotation
           may cause significant error
 Rotational temperatures (Kelvin)      0.01694     0.00746     0.00602
 Rotational constants (GHZ):           0.35304     0.15539     0.12554
 Zero-point vibrational energy     683534.6 (Joules/Mol)
                                  163.36870 (Kcal/Mol)
 Warning -- explicit consideration of  32 degrees of freedom as
           vibrations may cause significant error
 Vibrational temperatures:     27.24    46.87    60.18    61.65    78.02
          (Kelvin)            105.17   157.69   168.16   216.01   231.25
                              254.11   279.48   294.17   315.55   369.28
                              406.87   427.85   445.73   454.49   525.39
                              575.72   588.90   594.38   597.13   631.65
                              661.15   667.15   710.62   753.93   805.56
                              842.23   868.89   902.95   908.62   909.45
                              954.41   995.50   996.22  1002.58  1022.92
                             1055.36  1078.10  1098.07  1138.33  1195.73
                             1198.85  1206.76  1221.10  1272.33  1308.29
                             1310.73  1383.47  1394.71  1395.79  1396.30
                             1410.71  1454.31  1457.71  1473.06  1489.64
                             1504.38  1510.92  1552.66  1565.82  1568.72
                             1580.82  1634.86  1673.69  1678.56  1698.87
                             1716.01  1724.58  1736.68  1792.72  1862.31
                             1906.54  1910.92  1930.71  1936.70  1941.41
                             2028.05  2105.09  2106.74  2130.22  2158.48
                             2169.34  2174.65  2264.64  2314.70  2317.21
                             2325.69  2338.41  2351.29  4458.89  4478.83
                             4487.61  4498.94  4502.58  4513.76  4527.00
                             4533.34  4568.96  4574.19  4598.01  4611.71

 Zero-point correction=                           0.260345 (Hartree/Particle)
 Thermal correction to Energy=                    0.281210
 Thermal correction to Enthalpy=                  0.282155
 Thermal correction to Gibbs Free Energy=         0.208855
 Sum of electronic and zero-point Energies=          -1505.556745
 Sum of electronic and thermal Energies=             -1505.535879
 Sum of electronic and thermal Enthalpies=           -1505.534935
 Sum of electronic and thermal Free Energies=        -1505.608235

                     E (Thermal)             CV                S
                      KCal/Mol        Cal/Mol-Kelvin    Cal/Mol-Kelvin
 Total                  176.462             80.928            154.271
 Electronic               0.000              0.000              0.000
 Translational            0.889              2.981             43.470
 Rotational               0.889              2.981             35.100
 Vibrational            174.685             74.966             75.702
 Vibration     1          0.593              1.986              6.743
 Vibration     2          0.594              1.983              5.666
 Vibration     3          0.594              1.980              5.171
 Vibration     4          0.595              1.980              5.123
 Vibration     5          0.596              1.976              4.657
 Vibration     6          0.599              1.967              4.068
 Vibration     7          0.606              1.942              3.276
 Vibration     8          0.608              1.935              3.151
 Vibration     9          0.618              1.903              2.670
 Vibration    10          0.622              1.891              2.541
 Vibration    11          0.628              1.871              2.364
 Vibration    12          0.635              1.848              2.187
 Vibration    13          0.640              1.834              2.093
 Vibration    14          0.647              1.812              1.965
 Vibration    15          0.666              1.752              1.684
 Vibration    16          0.682              1.706              1.517
 Vibration    17          0.691              1.679              1.432
 Vibration    18          0.699              1.655              1.363
 Vibration    19          0.703              1.643              1.331
 Vibration    20          0.738              1.544              1.100
 Vibration    21          0.766              1.470              0.962
 Vibration    22          0.774              1.450              0.929
 Vibration    23          0.777              1.442              0.916
 Vibration    24          0.778              1.438              0.909
 Vibration    25          0.799              1.385              0.830
 Vibration    26          0.817              1.340              0.768
 Vibration    27          0.821              1.331              0.755
 Vibration    28          0.850              1.264              0.674
 Vibration    29          0.879              1.197              0.601
 Vibration    30          0.916              1.118              0.524
 Vibration    31          0.942              1.063              0.476
 Vibration    32          0.962              1.024              0.443

 Optimization completed.
    -- Stationary point found.
 Normal termination of Gaussian 16 at Wed Dec 20 11:45:16 2023.
