 Gaussian 16, Revision A.03,
 Gaussian 16:  ES64L-G16RevA.03 25-Dec-2016

 ----------------------------------------------------------------------
 #P UB3LYP/6-311++G(d,p) nosym opt freq SCRF=(PCM,Solvent=n,n-DiMethylF
 ormamide)
 ----------------------------------------------------------------------

 --------
 Oxidized
 --------
 Symbolic Z-matrix:
 Charge = -1 Multiplicity = 1

 SCF Done:  E(UB3LYP) =  -1158.72997979     A.U. after   16 cycles
 SCF Done:  E(UB3LYP) =  -1158.73102232     A.U. after   13 cycles
 SCF Done:  E(UB3LYP) =  -1158.73155661     A.U. after   12 cycles
 SCF Done:  E(UB3LYP) =  -1158.73155956     A.U. after   12 cycles
 SCF Done:  E(UB3LYP) =  -1158.73154090     A.U. after   12 cycles
 SCF Done:  E(UB3LYP) =  -1158.73157838     A.U. after   11 cycles
 SCF Done:  E(UB3LYP) =  -1158.73157950     A.U. after   10 cycles
 SCF Done:  E(UB3LYP) =  -1158.73157976     A.U. after   10 cycles
 SCF Done:  E(UB3LYP) =  -1158.73157997     A.U. after    9 cycles
 Optimization completed.
    -- Stationary point found.
 Normal termination of Gaussian 16 at Sun Feb 11 15:16:47 2024.

 ----------------------------------------------------------------------
 #P Geom=AllCheck Guess=TCheck SCRF=Check GenChk UB3LYP/6-311++G(d,p) F
 req
 ----------------------------------------------------------------------

 Structure from the checkpoint file:  "315.chk"
 --------
 Oxidized
 --------
 Charge = -1 Multiplicity = 1

                          Input orientation:
 ---------------------------------------------------------------------
 Center     Atomic      Atomic             Coordinates (Angstroms)
 Number     Number       Type             X           Y           Z
 ---------------------------------------------------------------------
      1          6           0       -5.047460   -0.091195   -3.953197
      2          6           0       -4.483835   -0.057097   -5.225673
      3          6           0       -3.097305    0.010210   -5.377990
      4          6           0       -4.228925   -0.056108   -2.821801
      5          6           0       -2.832311    0.012630   -2.976620
      6          6           0       -2.273892    0.044503   -4.256505
      7          6           0       -4.859323   -0.094303   -1.467210
      8          6           0       -3.937325   -0.033048   -0.291674
      9          6           0       -2.607927    0.031705   -0.450140
     10          6           0       -1.954538    0.052120   -1.779550
     11          8           0       -6.068538   -0.172446   -1.333528
     12          8           0       -0.733628    0.102504   -1.859124
     13         16           0       -4.634069   -0.049366    1.399362
     14          8           0       -5.511630    1.146751    1.469131
     15          8           0       -5.355559   -1.342649    1.511204
     16          8           0       -3.448158    0.039510    2.290632
     17          1           0       -6.120964   -0.144043   -3.823690
     18          1           0       -5.124304   -0.083035   -6.099296
     19          1           0       -2.661202    0.036165   -6.369502
     20          1           0       -1.197217    0.096632   -4.358636
     21          1           0       -1.949801    0.072530    0.409756
 ---------------------------------------------------------------------

 SCF Done:  E(UB3LYP) =  -1158.73157997     A.U. after    2 cycles

 Alpha  occ. eigenvalues --  -89.05381 -19.13989 -19.13909 -19.09589 -19.09587
 Alpha  occ. eigenvalues --  -19.09521 -10.29292 -10.28846 -10.23095 -10.21555
 Alpha  occ. eigenvalues --  -10.21219 -10.21083 -10.20082 -10.20048 -10.20002
 Alpha  occ. eigenvalues --  -10.19961  -8.11235  -6.07489  -6.07481  -6.07456
 Alpha  occ. eigenvalues --   -1.11627  -1.07247  -1.06946  -0.97835  -0.97788
 Alpha  occ. eigenvalues --   -0.89391  -0.84822  -0.78277  -0.78130  -0.70998
 Alpha  occ. eigenvalues --   -0.66590  -0.65065  -0.60500  -0.58447  -0.54834
 Alpha  occ. eigenvalues --   -0.53112  -0.51225  -0.49595  -0.46965  -0.46545
 Alpha  occ. eigenvalues --   -0.46264  -0.45441  -0.45316  -0.45159  -0.44939
 Alpha  occ. eigenvalues --   -0.43105  -0.42319  -0.38665  -0.38445  -0.37262
 Alpha  occ. eigenvalues --   -0.33944  -0.33938  -0.32958  -0.31728  -0.30181
 Alpha  occ. eigenvalues --   -0.29410  -0.29196  -0.28139  -0.27987  -0.27228
 Alpha  occ. eigenvalues --   -0.25923
 Alpha virt. eigenvalues --   -0.13195  -0.06056  -0.03981  -0.00282   0.00984
 Alpha virt. eigenvalues --    0.01531   0.01857   0.02546   0.03311   0.04200
 Alpha virt. eigenvalues --    0.04365   0.04917   0.05433   0.06009   0.06166

  Beta  occ. eigenvalues --  -89.05381 -19.13989 -19.13909 -19.09589 -19.09587
  Beta  occ. eigenvalues --  -19.09521 -10.29292 -10.28846 -10.23095 -10.21555
  Beta  occ. eigenvalues --  -10.21219 -10.21083 -10.20082 -10.20048 -10.20002
  Beta  occ. eigenvalues --  -10.19961  -8.11235  -6.07489  -6.07481  -6.07456
  Beta  occ. eigenvalues --   -1.11627  -1.07247  -1.06946  -0.97835  -0.97788
  Beta  occ. eigenvalues --   -0.89391  -0.84822  -0.78277  -0.78130  -0.70998
  Beta  occ. eigenvalues --   -0.66590  -0.65065  -0.60500  -0.58447  -0.54834
  Beta  occ. eigenvalues --   -0.53112  -0.51225  -0.49595  -0.46965  -0.46545
  Beta  occ. eigenvalues --   -0.46264  -0.45441  -0.45316  -0.45159  -0.44939
  Beta  occ. eigenvalues --   -0.43105  -0.42319  -0.38665  -0.38445  -0.37262
  Beta  occ. eigenvalues --   -0.33944  -0.33938  -0.32958  -0.31728  -0.30181
  Beta  occ. eigenvalues --   -0.29410  -0.29196  -0.28139  -0.27987  -0.27228
  Beta  occ. eigenvalues --   -0.25923
  Beta virt. eigenvalues --   -0.13195  -0.06056  -0.03981  -0.00282   0.00984
  Beta virt. eigenvalues --    0.01531   0.01857   0.02546   0.03311   0.04200
  Beta virt. eigenvalues --    0.04365   0.04917   0.05433   0.06009   0.06166

 Mulliken charges and spin densities:
               1          2
     1  C    0.183509  -0.000000
     2  C   -0.376490   0.000000
     3  C   -0.350718  -0.000000
     4  C    0.024628   0.000000
     5  C    0.601764  -0.000000
     6  C    0.147924  -0.000000
     7  C   -0.554421  -0.000000
     8  C   -0.356705  -0.000000
     9  C    0.095669  -0.000000
    10  C   -0.545353   0.000000
    11  O   -0.224831  -0.000000
    12  O   -0.282636  -0.000000
    13  S    0.661676  -0.000000
    14  O   -0.358041  -0.000000
    15  O   -0.354285  -0.000000
    16  O   -0.376157   0.000000
    17  H    0.186701   0.000000
    18  H    0.209310  -0.000000
    19  H    0.212077   0.000000
    20  H    0.182080   0.000000
    21  H    0.274299   0.000000
 Sum of Mulliken charges =  -1.00000   0.00000

 Dipole moment (field-independent basis, Debye):
    X=             23.3349    Y=              0.3417    Z=            -12.3989  Tot=             26.4266
 Quadrupole moment (field-independent basis, Debye-Ang):
   XX=           -236.2800   YY=           -109.1999   ZZ=            -91.7063
   XY=             -2.3098   XZ=             58.0190   YZ=              0.5608

  Exact polarizability: 267.982   7.202 121.232 -15.927  -0.954 265.724
 Approx polarizability: 356.887  10.562 145.155 -14.694  -1.194 277.653

                      1                      2                      3
                      A                      A                      A
 Frequencies --     36.9917                63.4515               113.3336
 Red. masses --     10.0388                11.9150                 5.5906
 Frc consts  --      0.0081                 0.0283                 0.0423
 IR Inten    --      0.7288                 2.2690                 4.3175

                      4                      5                      6
                      A                      A                      A
 Frequencies --    125.1072               136.7499               185.1697
 Red. masses --      7.8632                10.0199                 6.5990
 Frc consts  --      0.0725                 0.1104                 0.1333
 IR Inten    --      9.9103                 3.4103                 0.0180

                      7                      8                      9
                      A                      A                      A
 Frequencies --    224.4536               229.8041               269.4462
 Red. masses --      6.2900                11.7579                 7.4201
 Frc consts  --      0.1867                 0.3658                 0.3174
 IR Inten    --      2.0906                 5.3712                 0.2366

                     10                     11                     12
                      A                      A                      A
 Frequencies --    297.6517               376.2948               388.8220
 Red. masses --     13.6486                10.8660                 5.3217
 Frc consts  --      0.7125                 0.9065                 0.4740
 IR Inten    --      2.6203                28.7725                 1.4334

                     13                     14                     15
                      A                      A                      A
 Frequencies --    430.0304               458.6132               475.0077
 Red. masses --      4.1817                10.2769                 4.7977
 Frc consts  --      0.4556                 1.2735                 0.6378
 IR Inten    --      7.3888                13.5941                 6.4983

                     16                     17                     18
                      A                      A                      A
 Frequencies --    479.3979               489.7959               519.5985
 Red. masses --      9.5124                16.4631                 8.6469
 Frc consts  --      1.2880                 2.3270                 1.3755
 IR Inten    --     18.6211                32.7305                27.4332

                     19                     20                     21
                      A                      A                      A
 Frequencies --    568.5229               626.8147               673.5408
 Red. masses --     10.9225                 9.5942                 6.1288
 Frc consts  --      2.0800                 2.2210                 1.6381
 IR Inten    --    249.3209               107.1806                 6.6932

                     22                     23                     24
                      A                      A                      A
 Frequencies --    684.5998               716.0052               717.8346
 Red. masses --      3.7622                 6.6951                 3.1869
 Frc consts  --      1.0389                 2.0223                 0.9675
 IR Inten    --     13.4112                 3.2583                81.8733

                     25                     26                     27
                      A                      A                      A
 Frequencies --    791.3861               806.0823               811.1640
 Red. masses --      1.9783                 3.0840                 5.7407
 Frc consts  --      0.7300                 1.1806                 2.2255
 IR Inten    --     45.3158                 6.8177                 5.8960

                     28                     29                     30
                      A                      A                      A
 Frequencies --    832.1496               913.8122               939.0039
 Red. masses --      7.6069                 1.3812                 1.4611
 Frc consts  --      3.1036                 0.6795                 0.7590
 IR Inten    --      1.3903                 0.1099                24.5379

                     31                     32                     33
                      A                      A                      A
 Frequencies --    980.0378              1001.6911              1024.7123
 Red. masses --     15.1414                 1.3895                 1.3366
 Frc consts  --      8.5684                 0.8214                 0.8269
 IR Inten    --    299.8715                 1.0083                 0.0048

                     34                     35                     36
                      A                      A                      A
 Frequencies --   1042.0876              1079.2148              1095.0895
 Red. masses --      3.4787                 3.0668                 3.1048
 Frc consts  --      2.2257                 2.1045                 2.1937
 IR Inten    --     69.1831                51.2205                33.0264

                     37                     38                     39
                      A                      A                      A
 Frequencies --   1131.1447              1139.1668              1142.8864
 Red. masses --      2.6087                20.0592                 3.8832
 Frc consts  --      1.9666                15.3370                 2.9884
 IR Inten    --    109.9896               557.9975               442.7271

                     40                     41                     42
                      A                      A                      A
 Frequencies --   1183.1395              1228.2734              1265.7818
 Red. masses --      1.1228                 2.2014                 2.2222
 Frc consts  --      0.9260                 1.9568                 2.0977
 IR Inten    --     12.1505               150.7557               221.7850

                     43                     44                     45
                      A                      A                      A
 Frequencies --   1309.4490              1334.2615              1359.3453
 Red. masses --      2.4750                 2.4757                 7.5036
 Frc consts  --      2.5003                 2.5967                 8.1692
 IR Inten    --    306.0571                30.2796                19.6471

                     46                     47                     48
                      A                      A                      A
 Frequencies --   1481.3169              1503.9780              1609.9246
 Red. masses --      2.3211                 2.6328                 6.5293
 Frc consts  --      3.0008                 3.5087                 9.9708
 IR Inten    --      1.9157                 6.1272                 3.0344

                     49                     50                     51
                      A                      A                      A
 Frequencies --   1620.7525              1653.2662              1695.2720
 Red. masses --      5.8401                 9.5977                10.9281
 Frc consts  --      9.0386                15.4562                18.5044
 IR Inten    --    240.4845                84.8224               553.5334

                     52                     53                     54
                      A                      A                      A
 Frequencies --   1709.0984              3180.1507              3191.9422
 Red. masses --     12.5220                 1.0875                 1.0911
 Frc consts  --     21.5505                 6.4799                 6.5496
 IR Inten    --    426.9862                 2.8737                 8.3688

                     55                     56                     57
                      A                      A                      A
 Frequencies --   3196.8748              3202.7511              3206.2355
 Red. masses --      1.0912                 1.0928                 1.0958
 Frc consts  --      6.5709                 6.6047                 6.6372
 IR Inten    --      3.7692                 4.0193                17.6618

 - Thermochemistry -
 -------------------
 Temperature   298.150 Kelvin.  Pressure   1.00000 Atm.
 Atom     1 has atomic number  6 and mass  12.00000

 Molecular mass:   236.98577 amu.
 Principal axes and moments of inertia in atomic units:
                           1         2         3
     Eigenvalues --  1751.567935463.870666859.66551
           X           -0.24376   0.96864  -0.04810
           Y           -0.00844   0.04748   0.99884
           Z            0.96980   0.24388  -0.00339
 This molecule is an asymmetric top.
 Rotational symmetry number  1.
 Warning -- assumption of classical behavior for rotation
           may cause significant error
 Rotational temperatures (Kelvin)      0.04945     0.01585     0.01263
 Rotational constants (GHZ):           1.03036     0.33030     0.26309
 Zero-point vibrational energy     352590.2 (Joules/Mol)
                                   84.27108 (Kcal/Mol)
 Warning -- explicit consideration of  19 degrees of freedom as
           vibrations may cause significant error
 Vibrational temperatures:     53.22    91.29   163.06   180.00   196.75
          (Kelvin)            266.42   322.94   330.64   387.67   428.25
                              541.40   559.43   618.72   659.84   683.43
                              689.75   704.71   747.59   817.98   901.85
                              969.07   984.99  1030.17  1032.80  1138.63
                             1159.77  1167.08  1197.28  1314.77  1351.02
                             1410.06  1441.21  1474.33  1499.33  1552.75
                             1575.59  1627.46  1639.01  1644.36  1702.27
                             1767.21  1821.18  1884.01  1919.70  1955.79
                             2131.28  2163.89  2316.32  2331.90  2378.68
                             2439.12  2459.01  4575.53  4592.49  4599.59
                             4608.04  4613.06

 Zero-point correction=                           0.134295 (Hartree/Particle)
 Thermal correction to Energy=                    0.147018
 Thermal correction to Enthalpy=                  0.147962
 Thermal correction to Gibbs Free Energy=         0.094131
 Sum of electronic and zero-point Energies=          -1158.597285
 Sum of electronic and thermal Energies=             -1158.584562
 Sum of electronic and thermal Enthalpies=           -1158.583618
 Sum of electronic and thermal Free Energies=        -1158.637449

                     E (Thermal)             CV                S
                      KCal/Mol        Cal/Mol-Kelvin    Cal/Mol-Kelvin
 Total                   92.255             48.409            113.296
 Electronic               0.000              0.000              0.000
 Translational            0.889              2.981             42.290
 Rotational               0.889              2.981             32.551
 Vibrational             90.478             42.448             38.455
 Vibration     1          0.594              1.982              5.414
 Vibration     2          0.597              1.972              4.347
 Vibration     3          0.607              1.938              3.211
 Vibration     4          0.610              1.928              3.020
 Vibration     5          0.614              1.917              2.849
 Vibration     6          0.631              1.860              2.276
 Vibration     7          0.649              1.804              1.923
 Vibration     8          0.652              1.795              1.880
 Vibration     9          0.674              1.729              1.600
 Vibration    10          0.691              1.678              1.430
 Vibration    11          0.747              1.521              1.054
 Vibration    12          0.757              1.494              1.005
 Vibration    13          0.791              1.405              0.859
 Vibration    14          0.817              1.342              0.770
 Vibration    15          0.832              1.305              0.724
 Vibration    16          0.836              1.296              0.712
 Vibration    17          0.846              1.273              0.684
 Vibration    18          0.875              1.207              0.611
 Vibration    19          0.925              1.099              0.507

 Optimization completed.
    -- Stationary point found.
 Normal termination of Gaussian 16 at Sun Feb 11 15:35:17 2024.
