 Gaussian 16, Revision A.03,
 Gaussian 16:  ES64L-G16RevA.03 25-Dec-2016

 --------------------------------------
 #P UB3LYP/6-311++G(d,p) nosym opt freq
 --------------------------------------

 -------
 Radical
 -------
 Symbolic Z-matrix:
 Charge = -1 Multiplicity = 2

 SCF Done:  E(UB3LYP) =  -1055.12025519     A.U. after   23 cycles
 SCF Done:  E(UB3LYP) =  -1055.13160348     A.U. after   18 cycles
 SCF Done:  E(UB3LYP) =  -1055.13338469     A.U. after   18 cycles
 SCF Done:  E(UB3LYP) =  -1055.13315988     A.U. after   17 cycles
 SCF Done:  E(UB3LYP) =  -1055.13321575     A.U. after   17 cycles
 SCF Done:  E(UB3LYP) =  -1055.13362280     A.U. after   18 cycles
 SCF Done:  E(UB3LYP) =  -1055.13359842     A.U. after   16 cycles
 SCF Done:  E(UB3LYP) =  -1055.13365797     A.U. after   17 cycles
 SCF Done:  E(UB3LYP) =  -1055.13366859     A.U. after   16 cycles
 SCF Done:  E(UB3LYP) =  -1055.13367022     A.U. after   14 cycles
 SCF Done:  E(UB3LYP) =  -1055.13367003     A.U. after   13 cycles
 SCF Done:  E(UB3LYP) =  -1055.13367046     A.U. after   12 cycles
 SCF Done:  E(UB3LYP) =  -1055.13367053     A.U. after   10 cycles
 SCF Done:  E(UB3LYP) =  -1055.13367143     A.U. after   14 cycles
 SCF Done:  E(UB3LYP) =  -1055.13367182     A.U. after   13 cycles
 Optimization completed.
    -- Stationary point found.
 Normal termination of Gaussian 16 at Wed Dec 20 03:55:13 2023.

 ----------------------------------------------------------------------
 #P Geom=AllCheck Guess=TCheck SCRF=Check GenChk UB3LYP/6-311++G(d,p) F
 req
 ----------------------------------------------------------------------

 Structure from the checkpoint file:  "103-rad.chk"
 -------
 Radical
 -------
 Charge = -1 Multiplicity = 2

                          Input orientation:
 ---------------------------------------------------------------------
 Center     Atomic      Atomic             Coordinates (Angstroms)
 Number     Number       Type             X           Y           Z
 ---------------------------------------------------------------------
      1          6           0       -0.144394    1.836757    4.993695
      2          6           0        1.054235    1.255194    4.419551
      3          6           0        1.398769    1.283850    3.091048
      4          6           0        0.486375    1.937760    2.144235
      5          6           0       -0.725396    2.496480    2.700026
      6          6           0       -1.042758    2.469634    4.036687
      7          8           0       -0.370295    1.776110    6.233883
      8          8           0        0.711564    2.013548    0.899729
      9         16           0       -2.509314    3.334462    4.592953
     10          6           0       -3.395600    2.056204    5.608967
     11          6           0       -4.544109    2.761424    6.330768
     12          6           0       -3.879288    0.884305    4.757283
     13          6           0        2.701440    0.653059    2.568313
     14          6           0        3.537881    0.012413    3.692158
     15          6           0        3.572061    1.740121    1.891866
     16          6           0        2.369231   -0.452774    1.536892
     17          1           0        1.695800    0.784253    5.155220
     18          1           0       -1.398825    2.957806    1.985206
     19          1           0       -2.652626    1.714630    6.330437
     20          1           0       -4.174112    3.564084    6.973578
     21          1           0       -5.089710    2.046408    6.956899
     22          1           0       -5.256741    3.193887    5.619128
     23          1           0       -3.048229    0.419352    4.223062
     24          1           0       -4.617658    1.212170    4.017904
     25          1           0       -4.343135    0.119200    5.393589
     26          1           0        2.994301   -0.791178    4.197638
     27          1           0        3.836677    0.745764    4.446848
     28          1           0        4.449858   -0.418202    3.264416
     29          1           0        3.844591    2.515888    2.615006
     30          1           0        3.028590    2.205004    1.069784
     31          1           0        4.498216    1.296968    1.504500
     32          1           0        1.780612   -1.248268    2.005853
     33          1           0        3.293562   -0.898885    1.148554
     34          1           0        1.797567   -0.038757    0.706765
 ---------------------------------------------------------------------

 SCF Done:  E(UB3LYP) =  -1055.13367182     A.U. after    1 cycles

 Alpha  occ. eigenvalues --  -88.71540 -18.94365 -18.94244 -10.09204 -10.08951
 Alpha  occ. eigenvalues --  -10.08642 -10.07450 -10.06765 -10.06484 -10.05768
 Alpha  occ. eigenvalues --  -10.05224 -10.04796 -10.04098 -10.04071 -10.03674
 Alpha  occ. eigenvalues --  -10.03433  -7.80145  -5.76530  -5.76173  -5.75535
 Alpha  occ. eigenvalues --   -0.86711  -0.86387  -0.71779  -0.70817  -0.68345
 Alpha  occ. eigenvalues --   -0.62930  -0.58907  -0.57894  -0.57345  -0.57004
 Alpha  occ. eigenvalues --   -0.54396  -0.48068  -0.46033  -0.44270  -0.40406
 Alpha  occ. eigenvalues --   -0.36028  -0.35458  -0.35014  -0.33926  -0.32786
 Alpha  occ. eigenvalues --   -0.31687  -0.31275  -0.30660  -0.29815  -0.29146
 Alpha  occ. eigenvalues --   -0.29052  -0.27456  -0.26729  -0.26564  -0.25568
 Alpha  occ. eigenvalues --   -0.25087  -0.24838  -0.23667  -0.23371  -0.23173
 Alpha  occ. eigenvalues --   -0.22020  -0.21722  -0.21153  -0.19720  -0.15015
 Alpha  occ. eigenvalues --   -0.13671  -0.10919  -0.10293  -0.09610  -0.03029
 Alpha virt. eigenvalues --    0.07537   0.07876   0.09597   0.10141   0.10230
 Alpha virt. eigenvalues --    0.10466   0.10985   0.11194   0.12079   0.12271
 Alpha virt. eigenvalues --    0.12753   0.13015   0.13255   0.13517   0.13913

  Beta  occ. eigenvalues --  -88.71540 -18.93665 -18.93509 -10.09094 -10.08835
  Beta  occ. eigenvalues --  -10.08636 -10.07457 -10.06765 -10.06365 -10.05767
  Beta  occ. eigenvalues --  -10.05224 -10.04695 -10.04093 -10.04065 -10.03535
  Beta  occ. eigenvalues --  -10.03332  -7.80145  -5.76533  -5.76175  -5.75528
  Beta  occ. eigenvalues --   -0.85500  -0.85107  -0.71508  -0.70759  -0.67990
  Beta  occ. eigenvalues --   -0.62726  -0.58902  -0.57777  -0.57106  -0.56984
  Beta  occ. eigenvalues --   -0.53581  -0.47845  -0.45764  -0.44092  -0.40158
  Beta  occ. eigenvalues --   -0.35944  -0.35298  -0.34851  -0.33844  -0.32739
  Beta  occ. eigenvalues --   -0.31614  -0.31195  -0.30437  -0.29535  -0.29111
  Beta  occ. eigenvalues --   -0.28512  -0.27174  -0.26182  -0.25718  -0.25198
  Beta  occ. eigenvalues --   -0.24977  -0.24653  -0.23355  -0.23021  -0.22134
  Beta  occ. eigenvalues --   -0.21570  -0.21047  -0.20599  -0.19380  -0.13551
  Beta  occ. eigenvalues --   -0.11447  -0.10238  -0.09668  -0.09094
  Beta virt. eigenvalues --    0.04138   0.07537   0.07877   0.09619   0.10146
  Beta virt. eigenvalues --    0.10303   0.10469   0.11008   0.12033   0.12132
  Beta virt. eigenvalues --    0.12317   0.12790   0.13121   0.13332   0.13684

 Mulliken charges and spin densities:
               1          2
     1  C   -0.954439   0.102138
     2  C   -0.413548   0.035200
     3  C    1.127754   0.115600
     4  C   -1.013234   0.063554
     5  C   -0.578867   0.091328
     6  C    1.803734   0.092722
     7  O   -0.365125   0.252770
     8  O   -0.361268   0.266664
     9  S   -0.518240   0.006823
    10  C    0.265741   0.008633
    11  C   -0.649815   0.000862
    12  C   -0.726115  -0.003059
    13  C    0.655152  -0.035594
    14  C   -0.553164  -0.000568
    15  C   -0.702639   0.012950
    16  C   -0.691919   0.012329
    17  H    0.178973  -0.008481
    18  H    0.189699  -0.010775
    19  H    0.265485  -0.001729
    20  H    0.155630   0.000453
    21  H    0.117327   0.000121
    22  H    0.125244   0.000079
    23  H    0.159559   0.000608
    24  H    0.139682  -0.000336
    25  H    0.103335   0.000481
    26  H    0.121822  -0.000424
    27  H    0.123685  -0.000376
    28  H    0.143067  -0.000001
    29  H    0.113824   0.001287
    30  H    0.197445  -0.002627
    31  H    0.116261   0.000318
    32  H    0.114425   0.001108
    33  H    0.114025   0.000198
    34  H    0.196503  -0.002257
 Sum of Mulliken charges =  -1.00000   1.00000

 Dipole moment (field-independent basis, Debye):
    X=              0.2726    Y=            -10.3560    Z=            -17.1311  Tot=             20.0199
 Quadrupole moment (field-independent basis, Debye-Ang):
   XX=           -125.6658   YY=           -139.3953   ZZ=           -204.9124
   XY=              7.1405   XZ=              9.1569   YZ=            -38.6591

  Exact polarizability: 246.567 -30.127 163.562 -50.541   4.630 227.904
 Approx polarizability: 303.423 -28.376 242.610 -51.633  -9.113 401.036

                      1                      2                      3
                      A                      A                      A
 Frequencies --     35.1224                36.5490                51.8322
 Red. masses --      3.0038                 3.5966                 4.0456
 Frc consts  --      0.0022                 0.0028                 0.0064
 IR Inten    --      0.9878                 1.4388                 1.8670

                      4                      5                      6
                      A                      A                      A
 Frequencies --     76.2459               107.1950               163.1935
 Red. masses --      3.9511                 4.1969                 5.0120
 Frc consts  --      0.0135                 0.0284                 0.0786
 IR Inten    --      0.1943                 3.4402                 6.2781

                      7                      8                      9
                      A                      A                      A
 Frequencies --    182.1879               204.1868               223.5735
 Red. masses --      4.6211                 4.6002                 1.2513
 Frc consts  --      0.0904                 0.1130                 0.0369
 IR Inten    --      2.1843                 0.2946                 0.1206

                     10                     11                     12
                      A                      A                      A
 Frequencies --    233.7750               234.7937               241.2030
 Red. masses --      1.7024                 1.1313                 3.4290
 Frc consts  --      0.0548                 0.0367                 0.1175
 IR Inten    --      0.1608                 0.2204                 0.1615

                     13                     14                     15
                      A                      A                      A
 Frequencies --    260.0320               270.0811               291.1542
 Red. masses --      1.5740                 1.1159                 3.3094
 Frc consts  --      0.0627                 0.0480                 0.1653
 IR Inten    --      0.0980                 0.5688                 0.3760

                     16                     17                     18
                      A                      A                      A
 Frequencies --    297.5089               326.1685               328.2155
 Red. masses --      2.9824                 1.0485                 2.9900
 Frc consts  --      0.1555                 0.0657                 0.1898
 IR Inten    --      2.5009                 0.0704                 5.9170

                     19                     20                     21
                      A                      A                      A
 Frequencies --    339.6321               368.2321               383.8175
 Red. masses --      3.1734                 4.8599                 2.6649
 Frc consts  --      0.2157                 0.3883                 0.2313
 IR Inten    --      2.1843                 5.2055                 1.3350

                     22                     23                     24
                      A                      A                      A
 Frequencies --    413.7061               416.3399               437.0005
 Red. masses --      2.5957                 2.7717                 4.1041
 Frc consts  --      0.2617                 0.2831                 0.4618
 IR Inten    --      1.3307                 1.1127                 4.8209

                     25                     26                     27
                      A                      A                      A
 Frequencies --    469.9773               497.7857               507.7372
 Red. masses --      4.2138                 4.8503                 4.7833
 Frc consts  --      0.5484                 0.7081                 0.7265
 IR Inten    --      1.7880                 0.9226                 0.3292

                     28                     29                     30
                      A                      A                      A
 Frequencies --    603.6446               615.3667               639.9619
 Red. masses --      4.9870                 3.9663                 4.5138
 Frc consts  --      1.0707                 0.8849                 1.0892
 IR Inten    --      3.7064                 1.8659                 0.5183

                     31                     32                     33
                      A                      A                      A
 Frequencies --    691.3407               711.7872               754.5395
 Red. masses --      6.5540                 6.2978                 3.2097
 Frc consts  --      1.8456                 1.8799                 1.0767
 IR Inten    --      1.6948                 3.5217                 0.6760

                     34                     35                     36
                      A                      A                      A
 Frequencies --    812.9007               843.0821               871.0387
 Red. masses --      3.3433                 4.1236                 1.6141
 Frc consts  --      1.3017                 1.7269                 0.7215
 IR Inten    --      5.7297                47.5741                 0.3840

                     37                     38                     39
                      A                      A                      A
 Frequencies --    882.2839               898.6632               925.5319
 Red. masses --      2.6351                 1.5363                 1.7601
 Frc consts  --      1.2086                 0.7310                 0.8883
 IR Inten    --      1.1854                28.5147                 0.8648

                     40                     41                     42
                      A                      A                      A
 Frequencies --    933.2563               940.8922               958.3392
 Red. masses --      1.7470                 1.2094                 1.2048
 Frc consts  --      0.8965                 0.6308                 0.6519
 IR Inten    --      1.9901                 2.6785                 0.2737

                     43                     44                     45
                      A                      A                      A
 Frequencies --    959.9677               973.8958              1037.0557
 Red. masses --      1.3839                 4.9337                 1.5949
 Frc consts  --      0.7514                 2.7571                 1.0106
 IR Inten    --      1.3886                 2.5791                40.7016

                     46                     47                     48
                      A                      A                      A
 Frequencies --   1049.0653              1068.7458              1079.5218
 Red. masses --      1.3795                 1.7668                 1.5721
 Frc consts  --      0.8945                 1.1890                 1.0794
 IR Inten    --      0.1287                91.9846                 5.0882

                     49                     50                     51
                      A                      A                      A
 Frequencies --   1127.8266              1172.6200              1175.1103
 Red. masses --      2.4865                 8.1041                 1.8641
 Frc consts  --      1.8635                 6.5655                 1.5166
 IR Inten    --      1.9709                 3.3783                15.2970

                     52                     53                     54
                      A                      A                      A
 Frequencies --   1215.0973              1223.7682              1241.2029
 Red. masses --      2.6789                 2.5248                 1.4320
 Frc consts  --      2.3304                 2.2278                 1.2998
 IR Inten    --      4.5186                12.2376                 2.9983

                     55                     56                     57
                      A                      A                      A
 Frequencies --   1258.8185              1269.5778              1309.8210
 Red. masses --      1.3076                 2.2744                 2.1401
 Frc consts  --      1.2208                 2.1599                 2.1632
 IR Inten    --      6.3267                21.1964                17.7290

                     58                     59                     60
                      A                      A                      A
 Frequencies --   1374.7400              1378.1258              1380.3690
 Red. masses --      1.2101                 1.2285                 1.2774
 Frc consts  --      1.3474                 1.3747                 1.4341
 IR Inten    --     11.7581                 3.0598                28.1975

                     61                     62                     63
                      A                      A                      A
 Frequencies --   1394.7549              1402.8724              1408.7565
 Red. masses --      1.2994                 4.0984                 1.2405
 Frc consts  --      1.4893                 4.7522                 1.4505
 IR Inten    --      7.0652                 1.2662                 9.0895

                     64                     65                     66
                      A                      A                      A
 Frequencies --   1410.4652              1471.4242              1475.3663
 Red. masses --      1.3288                 1.0467                 3.8875
 Frc consts  --      1.5575                 1.3352                 4.9856
 IR Inten    --     27.4354                 0.1896               106.8969

                     67                     68                     69
                      A                      A                      A
 Frequencies --   1480.7913              1486.9341              1491.4193
 Red. masses --      1.0526                 1.0448                 1.3064
 Frc consts  --      1.3599                 1.3610                 1.7120
 IR Inten    --      5.8760                 4.9752                12.5435

                     70                     71                     72
                      A                      A                      A
 Frequencies --   1493.8099              1495.2344              1497.0973
 Red. masses --      1.0689                 1.0465                 1.2024
 Frc consts  --      1.4054                 1.3785                 1.5878
 IR Inten    --      7.9378                 1.0967                 6.7943

                     73                     74                     75
                      A                      A                      A
 Frequencies --   1505.2689              1505.8063              1511.0085
 Red. masses --      4.2374                 1.0535                 1.0515
 Frc consts  --      5.6568                 1.4075                 1.4145
 IR Inten    --     52.4297                 6.5904                 3.6427

                     76                     77                     78
                      A                      A                      A
 Frequencies --   1519.6098              1531.5389              1622.7730
 Red. masses --      2.9584                 1.1817                 7.1144
 Frc consts  --      4.0251                 1.6331                11.0383
 IR Inten    --    270.9947                35.5627                 3.0114

                     79                     80                     81
                      A                      A                      A
 Frequencies --   2993.3129              2993.9110              2998.0800
 Red. masses --      1.0425                 1.0421                 1.0414
 Frc consts  --      5.5032                 5.5032                 5.5151
 IR Inten    --     41.8651                64.6380               105.2053

                     82                     83                     84
                      A                      A                      A
 Frequencies --   3005.0696              3011.8862              3050.2704
 Red. masses --      1.0368                 1.0363                 1.0945
 Frc consts  --      5.5166                 5.5386                 5.9999
 IR Inten    --    103.0855                97.7067                41.5339

                     85                     86                     87
                      A                      A                      A
 Frequencies --   3052.9672              3053.4194              3055.3522
 Red. masses --      1.0968                 1.0995                 1.0967
 Frc consts  --      6.0229                 6.0397                 6.0323
 IR Inten    --     31.6919                12.9287                25.3331

                     88                     89                     90
                      A                      A                      A
 Frequencies --   3067.5842              3080.8836              3083.2049
 Red. masses --      1.0993                 1.1015                 1.0954
 Frc consts  --      6.0949                 6.1603                 6.1353
 IR Inten    --     98.9241                41.7796                40.2032

                     91                     92                     93
                      A                      A                      A
 Frequencies --   3091.8425              3101.4624              3120.2432
 Red. masses --      1.0935                 1.0963                 1.0974
 Frc consts  --      6.1589                 6.2133                 6.2952
 IR Inten    --     30.7114                 8.2348                 0.0982

                     94                     95                     96
                      A                      A                      A
 Frequencies --   3122.8287              3164.5961              3175.8606
 Red. masses --      1.0968                 1.0895                 1.0877
 Frc consts  --      6.3017                 6.4285                 6.4635
 IR Inten    --     10.9842                11.6766                11.5587

 - Thermochemistry -
 -------------------
 Temperature   298.150 Kelvin.  Pressure   1.00000 Atm.
 Atom     1 has atomic number  6 and mass  12.00000

 Molecular mass:   238.10275 amu.
 Principal axes and moments of inertia in atomic units:
                           1         2         3
     Eigenvalues --  1679.392757596.626208199.50882
           X            0.85969   0.35226   0.36993
           Y           -0.23851  -0.36359   0.90051
           Z           -0.45172   0.86239   0.22856
 This molecule is an asymmetric top.
 Rotational symmetry number  1.
 Warning -- assumption of classical behavior for rotation
           may cause significant error
 Rotational temperatures (Kelvin)      0.05157     0.01140     0.01056
 Rotational constants (GHZ):           1.07464     0.23757     0.22010
 Zero-point vibrational energy     733926.4 (Joules/Mol)
                                  175.41262 (Kcal/Mol)
 Warning -- explicit consideration of  29 degrees of freedom as
           vibrations may cause significant error
 Vibrational temperatures:     50.53    52.59    74.57   109.70   154.23
          (Kelvin)            234.80   262.13   293.78   321.67   336.35
                              337.82   347.04   374.13   388.59   418.91
                              428.05   469.28   472.23   488.65   529.80
                              552.23   595.23   599.02   628.75   676.19
                              716.20   730.52   868.51   885.38   920.76
                              994.69  1024.10  1085.61  1169.58  1213.01
                             1253.23  1269.41  1292.98  1331.63  1342.75
                             1353.73  1378.84  1381.18  1401.22  1492.09
                             1509.37  1537.69  1553.19  1622.69  1687.14
                             1690.72  1748.25  1760.73  1785.81  1811.16
                             1826.64  1884.54  1977.94  1982.82  1986.04
                             2006.74  2018.42  2026.89  2029.34  2117.05
                             2122.72  2130.53  2139.37  2145.82  2149.26
                             2151.31  2153.99  2165.75  2166.52  2174.00
                             2186.38  2203.54  2334.81  4306.71  4307.57
                             4313.57  4323.62  4333.43  4388.66  4392.54
                             4393.19  4395.97  4413.57  4432.70  4436.04
                             4448.47  4462.31  4489.33  4493.05  4553.15
                             4569.36

 Zero-point correction=                           0.279538 (Hartree/Particle)
 Thermal correction to Energy=                    0.297126
 Thermal correction to Enthalpy=                  0.298070
 Thermal correction to Gibbs Free Energy=         0.233780
 Sum of electronic and zero-point Energies=          -1054.854134
 Sum of electronic and thermal Energies=             -1054.836546
 Sum of electronic and thermal Enthalpies=           -1054.835602
 Sum of electronic and thermal Free Energies=        -1054.899892

                     E (Thermal)             CV                S
                      KCal/Mol        Cal/Mol-Kelvin    Cal/Mol-Kelvin
 Total                  186.449             66.914            135.309
 Electronic               0.000              0.000              1.377
 Translational            0.889              2.981             42.304
 Rotational               0.889              2.981             33.014
 Vibrational            184.672             60.953             58.614
 Vibration     1          0.594              1.982              5.517
 Vibration     2          0.594              1.982              5.438
 Vibration     3          0.596              1.977              4.746
 Vibration     4          0.599              1.965              3.985
 Vibration     5          0.606              1.943              3.319
 Vibration     6          0.623              1.888              2.512
 Vibration     7          0.630              1.864              2.306
 Vibration     8          0.640              1.834              2.095
 Vibration     9          0.649              1.805              1.930
 Vibration    10          0.654              1.789              1.850
 Vibration    11          0.655              1.788              1.842
 Vibration    12          0.658              1.777              1.794
 Vibration    13          0.668              1.746              1.662
 Vibration    14          0.674              1.728              1.596
 Vibration    15          0.687              1.690              1.467
 Vibration    16          0.691              1.678              1.431
 Vibration    17          0.710              1.623              1.279
 Vibration    18          0.711              1.619              1.269
 Vibration    19          0.720              1.596              1.214
 Vibration    20          0.741              1.538              1.087
 Vibration    21          0.753              1.505              1.024
 Vibration    22          0.777              1.440              0.914
 Vibration    23          0.780              1.435              0.904
 Vibration    24          0.797              1.390              0.836
 Vibration    25          0.827              1.317              0.738
 Vibration    26          0.853              1.255              0.664
 Vibration    27          0.863              1.233              0.639
 Vibration    28          0.962              1.024              0.443
 Vibration    29          0.975              0.999              0.424

 Optimization completed.
    -- Stationary point found.
 Normal termination of Gaussian 16 at Wed Dec 20 05:25:39 2023.
