 Gaussian 16, Revision A.03,
 Gaussian 16:  ES64L-G16RevA.03 25-Dec-2016

 --------------------------------------
 #P UB3LYP/6-311++G(d,p) nosym opt freq
 --------------------------------------

 -------
 Radical
 -------
 Symbolic Z-matrix:
 Charge = -1 Multiplicity = 2

 SCF Done:  E(UB3LYP) =  -610.721643889     A.U. after   20 cycles
 SCF Done:  E(UB3LYP) =  -610.742927199     A.U. after   18 cycles
 SCF Done:  E(UB3LYP) =  -610.745126389     A.U. after   17 cycles
 SCF Done:  E(UB3LYP) =  -610.745552439     A.U. after   16 cycles
 SCF Done:  E(UB3LYP) =  -610.745627752     A.U. after   16 cycles
 SCF Done:  E(UB3LYP) =  -610.745785709     A.U. after   15 cycles
 SCF Done:  E(UB3LYP) =  -610.745831286     A.U. after   15 cycles
 SCF Done:  E(UB3LYP) =  -610.745837935     A.U. after   13 cycles
 SCF Done:  E(UB3LYP) =  -610.745839829     A.U. after   12 cycles
 SCF Done:  E(UB3LYP) =  -610.745802543     A.U. after   13 cycles
 SCF Done:  E(UB3LYP) =  -610.745802933     A.U. after   11 cycles
 Optimization completed.
    -- Stationary point found.
 Normal termination of Gaussian 16 at Wed Dec 20 02:03:07 2023.

 ----------------------------------------------------------------------
 #P Geom=AllCheck Guess=TCheck SCRF=Check GenChk UB3LYP/6-311++G(d,p) F
 req
 ----------------------------------------------------------------------

 Structure from the checkpoint file:  "084-rad.chk"
 -------
 Radical
 -------
 Charge = -1 Multiplicity = 2

                          Input orientation:
 ---------------------------------------------------------------------
 Center     Atomic      Atomic             Coordinates (Angstroms)
 Number     Number       Type             X           Y           Z
 ---------------------------------------------------------------------
      1          6           0        2.834941   -0.417555    0.416003
      2          8           0        1.656539    0.283751    0.803535
      3          6           0        0.468698   -0.298004    0.414012
      4          6           0       -0.368851    0.406318   -0.425122
      5          8           0        0.080495    1.592838   -0.964955
      6          6           0       -0.675808    2.747908   -0.612303
      7          6           0       -1.680870   -0.103907   -0.818737
      8          8           0       -2.443323    0.533865   -1.601028
      9          6           0       -2.032831   -1.389564   -0.263961
     10          6           0       -1.195237   -2.095304    0.558503
     11          6           0        0.100309   -1.602080    0.961992
     12          8           0        0.860544   -2.241433    1.745202
     13          1           0        2.921094   -0.447837   -0.678668
     14          1           0        3.675917    0.149426    0.822700
     15          1           0        2.836004   -1.430949    0.822961
     16          1           0       -0.216487    3.587289   -1.140104
     17          1           0       -0.615737    2.930519    0.469218
     18          1           0       -1.718087    2.639150   -0.919588
     19          1           0       -3.005205   -1.781081   -0.548861
     20          1           0       -1.482105   -3.063350    0.959202
 ---------------------------------------------------------------------

 SCF Done:  E(UB3LYP) =  -610.745802933     A.U. after    1 cycles

 Alpha  occ. eigenvalues --  -19.00430 -19.00425 -18.93572 -18.93571 -10.08810
 Alpha  occ. eigenvalues --  -10.08807 -10.08220 -10.08219 -10.08065 -10.08006
 Alpha  occ. eigenvalues --  -10.02845 -10.02780  -0.92861  -0.90997  -0.85464
 Alpha  occ. eigenvalues --   -0.85240  -0.68426  -0.61999  -0.58158  -0.54343
 Alpha  occ. eigenvalues --   -0.53470  -0.45588  -0.43866  -0.37757  -0.36578
 Alpha  occ. eigenvalues --   -0.35234  -0.34011  -0.32220  -0.31760  -0.31252
 Alpha  occ. eigenvalues --   -0.29831  -0.26842  -0.26261  -0.24946  -0.24457
 Alpha  occ. eigenvalues --   -0.23050  -0.22091  -0.21922  -0.15759  -0.15655
 Alpha  occ. eigenvalues --   -0.13982  -0.09979  -0.09626  -0.09579  -0.02200
 Alpha virt. eigenvalues --    0.09176   0.09851   0.10685   0.12293   0.12859
 Alpha virt. eigenvalues --    0.12917   0.13375   0.13754   0.14885   0.15043
 Alpha virt. eigenvalues --    0.16396   0.17730   0.18712   0.18901   0.19277

  Beta  occ. eigenvalues --  -19.00417 -19.00412 -18.92851 -18.92849 -10.08806
  Beta  occ. eigenvalues --  -10.08803 -10.08095 -10.08094 -10.07982 -10.07922
  Beta  occ. eigenvalues --  -10.02711 -10.02645  -0.92780  -0.90910  -0.84236
  Beta  occ. eigenvalues --   -0.83995  -0.67844  -0.61790  -0.57981  -0.54197
  Beta  occ. eigenvalues --   -0.52510  -0.45249  -0.43564  -0.37664  -0.36399
  Beta  occ. eigenvalues --   -0.34892  -0.33794  -0.32114  -0.31690  -0.31020
  Beta  occ. eigenvalues --   -0.29683  -0.26177  -0.25011  -0.24372  -0.23874
  Beta  occ. eigenvalues --   -0.22139  -0.21371  -0.20208  -0.15451  -0.15438
  Beta  occ. eigenvalues --   -0.10837  -0.09232  -0.09014  -0.08796
  Beta virt. eigenvalues --    0.05082   0.09209   0.09864   0.10698   0.12298
  Beta virt. eigenvalues --    0.12878   0.12926   0.13675   0.14718   0.14915
  Beta virt. eigenvalues --    0.15168   0.17280   0.18396   0.18751   0.19319

 Mulliken charges and spin densities:
               1          2
     1  C   -0.269358   0.000272
     2  O   -0.151970  -0.000296
     3  C    0.044722   0.076553
     4  C    0.043491   0.076720
     5  O   -0.151631  -0.000324
     6  C   -0.269752   0.000286
     7  C   -0.341526   0.073829
     8  O   -0.425776   0.259281
     9  C    0.101553   0.098005
    10  C    0.101400   0.097826
    11  C   -0.343538   0.073957
    12  O   -0.425746   0.259280
    13  H    0.112129   0.001412
    14  H    0.108372   0.000614
    15  H    0.176759  -0.000721
    16  H    0.108462   0.000627
    17  H    0.112332   0.001404
    18  H    0.176547  -0.000728
    19  H    0.146757  -0.009004
    20  H    0.146772  -0.008991
 Sum of Mulliken charges =  -1.00000   1.00000

 Dipole moment (field-independent basis, Debye):
    X=              2.5318    Y=              2.7283    Z=             -0.2254  Tot=              3.7289
 Quadrupole moment (field-independent basis, Debye-Ang):
   XX=            -87.9814   YY=            -85.1721   ZZ=            -90.4818
   XY=              4.0886   XZ=            -13.0983   YZ=             11.4446

  Exact polarizability: 146.161  -7.095 139.438  31.816 -31.719 108.817
 Approx polarizability: 217.352 -27.567 202.038  64.891 -59.952 183.114

                      1                      2                      3
                      A                      A                      A
 Frequencies --     76.6405                86.7207                89.0895
 Red. masses --      2.7783                 2.6696                 4.5423
 Frc consts  --      0.0096                 0.0118                 0.0212
 IR Inten    --      8.6993                 0.6465                 1.7546

                      4                      5                      6
                      A                      A                      A
 Frequencies --    126.5343               153.9504               157.9693
 Red. masses --      5.4163                 1.2123                 1.1215
 Frc consts  --      0.0511                 0.0169                 0.0165
 IR Inten    --     11.8925                 0.6632                 0.7031

                      7                      8                      9
                      A                      A                      A
 Frequencies --    209.5749               265.5991               318.7679
 Red. masses --      3.2389                 4.7686                 9.1287
 Frc consts  --      0.0838                 0.1982                 0.5465
 IR Inten    --      3.0520                 7.8985                 1.0114

                     10                     11                     12
                      A                      A                      A
 Frequencies --    336.2367               345.5916               377.7754
 Red. masses --      6.1780                 5.2045                10.1379
 Frc consts  --      0.4115                 0.3662                 0.8524
 IR Inten    --      3.5608                 1.8826                 4.4545

                     13                     14                     15
                      A                      A                      A
 Frequencies --    402.8301               473.9107               476.6623
 Red. masses --      5.8418                11.4561                 5.1897
 Frc consts  --      0.5585                 1.5159                 0.6947
 IR Inten    --      3.1833                 1.0943                 1.8093

                     16                     17                     18
                      A                      A                      A
 Frequencies --    587.4894               630.0730               659.5183
 Red. masses --      6.2502                 3.3136                 2.8028
 Frc consts  --      1.2710                 0.7750                 0.7183
 IR Inten    --      1.7112                 2.7349                 7.8535

                     19                     20                     21
                      A                      A                      A
 Frequencies --    659.7478               763.4339               777.6449
 Red. masses --      6.4104                 7.2608                 9.3166
 Frc consts  --      1.6440                 2.4933                 3.3195
 IR Inten    --     13.3305                18.9214                 1.6137

                     22                     23                     24
                      A                      A                      A
 Frequencies --    818.7131               927.3520               940.1445
 Red. masses --      2.2210                 1.2558                 7.2746
 Frc consts  --      0.8771                 0.6363                 3.7883
 IR Inten    --     39.7036                 0.0872                32.8196

                     25                     26                     27
                      A                      A                      A
 Frequencies --    996.8884              1071.8636              1077.1701
 Red. masses --      5.5458                 5.5780                 2.3211
 Frc consts  --      3.2472                 3.7758                 1.5868
 IR Inten    --      8.9243                83.2964                63.0226

                     28                     29                     30
                      A                      A                      A
 Frequencies --   1160.2769              1164.1913              1168.4598
 Red. masses --      1.4084                 1.2755                 1.9222
 Frc consts  --      1.1171                 1.0186                 1.5463
 IR Inten    --     91.4891                12.0912                77.8522

                     31                     32                     33
                      A                      A                      A
 Frequencies --   1174.9581              1214.7054              1227.3762
 Red. masses --      2.1565                 1.9418                 1.7718
 Frc consts  --      1.7541                 1.6881                 1.5726
 IR Inten    --    133.9957                 0.0674                62.7095

                     34                     35                     36
                      A                      A                      A
 Frequencies --   1241.1011              1335.1809              1417.1458
 Red. masses --      3.1967                 2.3328                 3.5553
 Frc consts  --      2.9011                 2.4502                 4.2069
 IR Inten    --    129.5919                17.4056                70.8944

                     37                     38                     39
                      A                      A                      A
 Frequencies --   1442.3729              1454.7878              1476.7257
 Red. masses --      1.2901                 1.3276                 1.1097
 Frc consts  --      1.5814                 1.6555                 1.4258
 IR Inten    --      0.0349               133.9813                 0.0203

                     40                     41                     42
                      A                      A                      A
 Frequencies --   1479.8278              1486.3035              1514.3156
 Red. masses --      1.0826                 4.7040                 1.0552
 Frc consts  --      1.3968                 6.1225                 1.4257
 IR Inten    --      2.5325                 8.2864                 4.5932

                     43                     44                     45
                      A                      A                      A
 Frequencies --   1514.5952              1530.0845              1536.3964
 Red. masses --      1.0509                 5.4143                 6.8565
 Frc consts  --      1.4203                 7.4683                 9.5359
 IR Inten    --      6.4554               430.5054                28.2249

                     46                     47                     48
                      A                      A                      A
 Frequencies --   1634.6085              2980.3128              2981.1476
 Red. masses --      7.7099                 1.0428                 1.0436
 Frc consts  --     12.1374                 5.4575                 5.4646
 IR Inten    --     16.6258               170.4819                76.6610

                     49                     50                     51
                      A                      A                      A
 Frequencies --   3061.7053              3062.0909              3098.1949
 Red. masses --      1.0878                 1.0870                 1.1057
 Frc consts  --      6.0077                 6.0053                 6.2533
 IR Inten    --    102.5127                45.4181                 5.4827

                     52                     53                     54
                      A                      A                      A
 Frequencies --   3098.4376              3137.5984              3159.3328
 Red. masses --      1.1057                 1.0850                 1.0945
 Frc consts  --      6.2543                 6.2935                 6.4369
 IR Inten    --     35.5924                18.9190                37.1356

 - Thermochemistry -
 -------------------
 Temperature   298.150 Kelvin.  Pressure   1.00000 Atm.
 Atom     1 has atomic number  6 and mass  12.00000

 Molecular mass:   168.04226 amu.
 Principal axes and moments of inertia in atomic units:
                           1         2         3
     Eigenvalues --  1384.343002011.807593193.17710
           X            0.65741   0.67795  -0.32892
           Y           -0.56628   0.73247   0.37790
           Z            0.49713  -0.06218   0.86545
 This molecule is an asymmetric top.
 Rotational symmetry number  1.
 Warning -- assumption of classical behavior for rotation
           may cause significant error
 Rotational temperatures (Kelvin)      0.06257     0.04305     0.02712
 Rotational constants (GHZ):           1.30368     0.89707     0.56519
 Zero-point vibrational energy     386155.3 (Joules/Mol)
                                   92.29333 (Kcal/Mol)
 Warning -- explicit consideration of  16 degrees of freedom as
           vibrations may cause significant error
 Vibrational temperatures:    110.27   124.77   128.18   182.05   221.50
          (Kelvin)            227.28   301.53   382.14   458.64   483.77
                              497.23   543.53   579.58   681.85   685.81
                              845.27   906.53   948.90   949.23  1098.41
                             1118.86  1177.95  1334.25  1352.66  1434.30
                             1542.17  1549.81  1669.38  1675.01  1681.15
                             1690.50  1747.69  1765.92  1785.67  1921.03
                             2038.96  2075.25  2093.12  2124.68  2129.14
                             2138.46  2178.76  2179.16  2201.45  2210.53
                             2351.84  4288.01  4289.21  4405.11  4405.67
                             4457.61  4457.96  4514.30  4545.58

 Zero-point correction=                           0.147079 (Hartree/Particle)
 Thermal correction to Energy=                    0.158628
 Thermal correction to Enthalpy=                  0.159572
 Thermal correction to Gibbs Free Energy=         0.108817
 Sum of electronic and zero-point Energies=           -610.598724
 Sum of electronic and thermal Energies=              -610.587175
 Sum of electronic and thermal Enthalpies=            -610.586231
 Sum of electronic and thermal Free Energies=         -610.636985

                     E (Thermal)             CV                S
                      KCal/Mol        Cal/Mol-Kelvin    Cal/Mol-Kelvin
 Total                   99.540             41.748            106.821
 Electronic               0.000              0.000              1.377
 Translational            0.889              2.981             41.265
 Rotational               0.889              2.981             30.565
 Vibrational             97.763             35.787             33.614
 Vibration     1          0.599              1.965              3.975
 Vibration     2          0.601              1.958              3.733
 Vibration     3          0.602              1.957              3.680
 Vibration     4          0.611              1.927              2.998
 Vibration     5          0.619              1.898              2.623
 Vibration     6          0.621              1.894              2.574
 Vibration     7          0.642              1.826              2.047
 Vibration     8          0.671              1.736              1.625
 Vibration     9          0.705              1.638              1.316
 Vibration    10          0.717              1.603              1.230
 Vibration    11          0.724              1.584              1.186
 Vibration    12          0.748              1.518              1.048
 Vibration    13          0.768              1.464              0.952
 Vibration    14          0.831              1.308              0.727
 Vibration    15          0.833              1.302              0.719
 Vibration    16          0.945              1.058              0.472

                           ! Non-Optimized Parameters !
 Normal termination of Gaussian 16 at Wed Dec 20 02:22:39 2023.
