 Gaussian 16, Revision A.03,
 Gaussian 16:  ES64L-G16RevA.03 25-Dec-2016

 ----------------------------------------------------------------
 #P UB3LYP/6-311++G(d,p) SCRF=(PCM,Solvent=n,n-DiMethylFormamide)
 ----------------------------------------------------------------

 ------------------
 Quinone PCM in DMF
 ------------------
 Symbolic Z-matrix:
 Charge =  0 Multiplicity = 1

                         Standard orientation:
 ---------------------------------------------------------------------
 Center     Atomic      Atomic             Coordinates (Angstroms)
 Number     Number       Type             X           Y           Z
 ---------------------------------------------------------------------
      1          6           0       -4.063240   -0.577089   -0.146610
      2          6           0       -2.785047   -0.022190    0.404773
      3          8           0       -2.417733   -0.038690    1.544147
      4          8           0       -2.042098    0.554770   -0.611231
      5          6           0       -0.742873    0.942919   -0.345133
      6          6           0       -0.494472    2.311319   -0.303575
      7          6           0        0.798609    2.783744   -0.109242
      8          6           0        1.849590    1.886241    0.043930
      9          6           0        1.607518    0.514811   -0.004429
     10          6           0        2.773225   -0.411184    0.149617
     11          8           0        3.905544    0.002826    0.335607
     12          6           0        2.507780   -1.862792    0.061394
     13          6           0        1.273835   -2.337910   -0.143613
     14          6           0        0.083155   -1.461902   -0.282864
     15          8           0       -1.010694   -1.975625   -0.458463
     16          6           0        0.301035    0.012719   -0.203010
     17          1           0       -4.522593    0.123694   -0.845245
     18          1           0       -4.742927   -0.807231    0.671205
     19          1           0       -3.823315   -1.491902   -0.694278
     20          1           0       -1.330243    2.989498   -0.424600
     21          1           0        0.982986    3.851076   -0.074568
     22          1           0        2.865657    2.226176    0.198852
     23          1           0        3.371095   -2.509750    0.171928
     24          1           0        1.064488   -3.399925   -0.211205
 ---------------------------------------------------------------------

 SCF Done:  E(UB3LYP) =  -763.210393261     A.U. after   16 cycles

 The electronic state is 1-A.
 Alpha  occ. eigenvalues --  -19.19112 -19.14281 -19.14239 -19.13695 -10.32785
 Alpha  occ. eigenvalues --  -10.29430 -10.29080 -10.27229 -10.22272 -10.21897
 Alpha  occ. eigenvalues --  -10.21690 -10.21541 -10.20777 -10.20608 -10.20377
 Alpha  occ. eigenvalues --  -10.18535  -1.13531  -1.07632  -1.07439  -1.05522
 Alpha  occ. eigenvalues --   -0.89992  -0.84786  -0.80060  -0.78803  -0.75756
 Alpha  occ. eigenvalues --   -0.70940  -0.67029  -0.65820  -0.63394  -0.56702
 Alpha  occ. eigenvalues --   -0.54876  -0.54727  -0.51812  -0.51069  -0.50300
 Alpha  occ. eigenvalues --   -0.49627  -0.48526  -0.47175  -0.46242  -0.45728
 Alpha  occ. eigenvalues --   -0.43999  -0.43424  -0.43064  -0.42406  -0.41924
 Alpha  occ. eigenvalues --   -0.40165  -0.39454  -0.39078  -0.38129  -0.34547
 Alpha  occ. eigenvalues --   -0.31470  -0.30835  -0.29501  -0.29092  -0.28337
 Alpha  occ. eigenvalues --   -0.27740
 Alpha virt. eigenvalues --   -0.13396  -0.06358  -0.04320  -0.01675  -0.00568
 Alpha virt. eigenvalues --    0.00355   0.00625   0.01660   0.02134   0.02728
 Alpha virt. eigenvalues --    0.03039   0.03362   0.04546   0.04876   0.05206

  Beta  occ. eigenvalues --  -19.19112 -19.14281 -19.14239 -19.13695 -10.32785
  Beta  occ. eigenvalues --  -10.29430 -10.29080 -10.27229 -10.22272 -10.21897
  Beta  occ. eigenvalues --  -10.21690 -10.21541 -10.20777 -10.20608 -10.20377
  Beta  occ. eigenvalues --  -10.18535  -1.13531  -1.07632  -1.07439  -1.05522
  Beta  occ. eigenvalues --   -0.89992  -0.84786  -0.80060  -0.78803  -0.75756
  Beta  occ. eigenvalues --   -0.70940  -0.67029  -0.65820  -0.63394  -0.56702
  Beta  occ. eigenvalues --   -0.54876  -0.54727  -0.51812  -0.51069  -0.50300
  Beta  occ. eigenvalues --   -0.49627  -0.48526  -0.47175  -0.46242  -0.45728
  Beta  occ. eigenvalues --   -0.43999  -0.43424  -0.43064  -0.42406  -0.41924
  Beta  occ. eigenvalues --   -0.40165  -0.39454  -0.39078  -0.38129  -0.34547
  Beta  occ. eigenvalues --   -0.31470  -0.30835  -0.29501  -0.29092  -0.28337
  Beta  occ. eigenvalues --   -0.27740
  Beta virt. eigenvalues --   -0.13396  -0.06358  -0.04320  -0.01675  -0.00568
  Beta virt. eigenvalues --    0.00355   0.00625   0.01660   0.02134   0.02728
  Beta virt. eigenvalues --    0.03039   0.03362   0.04546   0.04876   0.05206

 Mulliken charges and spin densities:
               1          2
     1  C   -0.483676  -0.000000
     2  C    0.044881   0.000000
     3  O   -0.264780  -0.000000
     4  O   -0.003227   0.000000
     5  C   -0.114510  -0.000000
     6  C    0.198433   0.000000
     7  C   -0.566723   0.000000
     8  C    0.147197  -0.000000
     9  C    0.319724   0.000000
    10  C   -0.392343   0.000000
    11  O   -0.284803  -0.000000
    12  C   -0.047268  -0.000000
    13  C   -0.121173  -0.000000
    14  C   -0.248172   0.000000
    15  O   -0.281179  -0.000000
    16  C    0.416701   0.000000
    17  H    0.185474   0.000000
    18  H    0.175493  -0.000000
    19  H    0.200889  -0.000000
    20  H    0.224031  -0.000000
    21  H    0.224104  -0.000000
    22  H    0.194344  -0.000000
    23  H    0.238906   0.000000
    24  H    0.237677  -0.000000
 Sum of Mulliken charges =  -0.00000   0.00000

 Dipole moment (field-independent basis, Debye):
    X=             -1.2004    Y=              1.4730    Z=             -2.2707  Tot=              2.9609
 Quadrupole moment (field-independent basis, Debye-Ang):
   XX=            -94.7912   YY=            -75.4474   ZZ=            -98.4330
   XY=             -6.4166   XZ=              2.8637   YZ=             -1.0177

 Normal termination of Gaussian 16 at Sun Jan 21 08:02:54 2024.
