 Gaussian 16, Revision A.03,
 Gaussian 16:  ES64L-G16RevA.03 25-Dec-2016

 ----------------------------------------------------------------------
 #P UB3LYP/6-311++G(d,p) nosym opt freq SCRF=(PCM,Solvent=n,n-DiMethylF
 ormamide)
 ----------------------------------------------------------------------

 -------
 Radical
 -------
 Symbolic Z-matrix:
 Charge = -1 Multiplicity = 2

 SCF Done:  E(UB3LYP) =  -846.390802075     A.U. after   17 cycles
 SCF Done:  E(UB3LYP) =  -846.391083506     A.U. after   14 cycles
 SCF Done:  E(UB3LYP) =  -846.391113456     A.U. after   13 cycles
 SCF Done:  E(UB3LYP) =  -846.391115962     A.U. after   10 cycles
 SCF Done:  E(UB3LYP) =  -846.391116576     A.U. after   10 cycles
 SCF Done:  E(UB3LYP) =  -846.391116652     A.U. after    8 cycles
 Optimization completed.
    -- Stationary point found.
 Normal termination of Gaussian 16 at Sat Feb 10 17:16:29 2024.

 ----------------------------------------------------------------------
 #P Geom=AllCheck Guess=TCheck SCRF=Check GenChk UB3LYP/6-311++G(d,p) F
 req
 ----------------------------------------------------------------------

 Structure from the checkpoint file:  "126-rad.chk"
 -------
 Radical
 -------
 Charge = -1 Multiplicity = 2

                          Input orientation:
 ---------------------------------------------------------------------
 Center     Atomic      Atomic             Coordinates (Angstroms)
 Number     Number       Type             X           Y           Z
 ---------------------------------------------------------------------
      1          6           0       -3.942218    0.961102    0.926446
      2          6           0       -3.280562   -0.076705   -0.011380
      3          6           0       -3.477569   -1.473572    0.604529
      4          6           0       -3.994867   -0.049623   -1.383684
      5          6           0       -1.796022    0.276306   -0.199968
      6          6           0       -1.438867    1.537061   -0.751964
      7          6           0       -0.120844    1.893158   -0.935658
      8          6           0        0.935767    1.022445   -0.584933
      9          6           0        2.320129    1.434734   -0.791505
     10          8           0        2.613503    2.563320   -1.280607
     11          6           0        3.350834    0.474840   -0.402609
     12          6           0        4.714565    0.806661   -0.573735
     13          6           0        5.717854   -0.073093   -0.219416
     14          6           0        5.387923   -1.333076    0.325759
     15          6           0        4.063722   -1.680822    0.503159
     16          6           0        3.016992   -0.798166    0.148849
     17          6           0        1.629101   -1.206554    0.354224
     18          8           0        1.335934   -2.335816    0.843058
     19          6           0        0.599954   -0.244848   -0.033568
     20          6           0       -0.764210   -0.580430    0.143494
     21          1           0       -5.001795    0.723901    1.063937
     22          1           0       -3.463175    0.957895    1.909856
     23          1           0       -3.877171    1.974339    0.522975
     24          1           0       -3.057777   -2.259876   -0.028713
     25          1           0       -4.546393   -1.674670    0.718699
     26          1           0       -3.017870   -1.549941    1.593668
     27          1           0       -3.929987    0.933029   -1.856826
     28          1           0       -5.055110   -0.292603   -1.262216
     29          1           0       -3.554541   -0.782584   -2.065919
     30          1           0       -2.213374    2.240158   -1.037157
     31          1           0        0.132630    2.858705   -1.357004
     32          1           0        4.951572    1.776863   -0.993626
     33          1           0        6.758024    0.201114   -0.358991
     34          1           0        6.175216   -2.025362    0.604316
     35          1           0        3.795292   -2.643875    0.920372
     36          1           0       -0.966661   -1.554014    0.567628
 ---------------------------------------------------------------------

 SCF Done:  E(UB3LYP) =  -846.391116652     A.U. after    1 cycles

 Alpha  occ. eigenvalues --  -19.07389 -19.07364 -10.22238 -10.22173 -10.18852
 Alpha  occ. eigenvalues --  -10.17771 -10.17230 -10.17206 -10.17186 -10.17158
 Alpha  occ. eigenvalues --  -10.17061 -10.16951 -10.16939 -10.16928 -10.16858
 Alpha  occ. eigenvalues --  -10.16782 -10.16385 -10.15579 -10.15576 -10.15400
 Alpha  occ. eigenvalues --   -0.99780  -0.99511  -0.86260  -0.85297  -0.81733
 Alpha  occ. eigenvalues --   -0.77676  -0.74996  -0.74565  -0.73212  -0.68561
 Alpha  occ. eigenvalues --   -0.68414  -0.66466  -0.63748  -0.61639  -0.58719
 Alpha  occ. eigenvalues --   -0.55980  -0.55392  -0.52888  -0.50898  -0.47381
 Alpha  occ. eigenvalues --   -0.46727  -0.45903  -0.45436  -0.43883  -0.42852
 Alpha  occ. eigenvalues --   -0.42703  -0.42216  -0.41989  -0.41558  -0.40863
 Alpha  occ. eigenvalues --   -0.40131  -0.39358  -0.38752  -0.37729  -0.37510
 Alpha  occ. eigenvalues --   -0.36533  -0.36153  -0.35935  -0.34867  -0.34008
 Alpha  occ. eigenvalues --   -0.33569  -0.32538  -0.32165  -0.31698  -0.26447
 Alpha  occ. eigenvalues --   -0.25708  -0.25272  -0.24454  -0.24230  -0.23591
 Alpha  occ. eigenvalues --   -0.14134
 Alpha virt. eigenvalues --   -0.05219  -0.02000  -0.00627  -0.00184   0.00139
 Alpha virt. eigenvalues --    0.01102   0.01641   0.02014   0.02066   0.03174
 Alpha virt. eigenvalues --    0.03292   0.03859   0.04047   0.04826   0.04949

  Beta  occ. eigenvalues --  -19.06839 -19.06803 -10.22059 -10.21988 -10.18855
  Beta  occ. eigenvalues --  -10.17722 -10.17160 -10.17150 -10.17113 -10.17102
  Beta  occ. eigenvalues --  -10.16986 -10.16949 -10.16934 -10.16865 -10.16825
  Beta  occ. eigenvalues --  -10.16767 -10.16376 -10.15576 -10.15574 -10.15399
  Beta  occ. eigenvalues --   -0.98808  -0.98511  -0.86041  -0.85159  -0.81613
  Beta  occ. eigenvalues --   -0.77344  -0.74749  -0.74405  -0.73046  -0.68524
  Beta  occ. eigenvalues --   -0.68407  -0.65745  -0.63585  -0.61405  -0.58648
  Beta  occ. eigenvalues --   -0.55873  -0.55147  -0.52716  -0.50746  -0.47146
  Beta  occ. eigenvalues --   -0.46605  -0.45791  -0.45325  -0.43838  -0.42798
  Beta  occ. eigenvalues --   -0.42650  -0.42176  -0.41385  -0.40758  -0.40359
  Beta  occ. eigenvalues --   -0.39912  -0.39244  -0.38587  -0.37495  -0.36513
  Beta  occ. eigenvalues --   -0.35867  -0.35838  -0.35358  -0.34791  -0.33570
  Beta  occ. eigenvalues --   -0.33449  -0.32100  -0.31732  -0.31652  -0.25297
  Beta  occ. eigenvalues --   -0.24450  -0.24351  -0.23942  -0.23626  -0.23078
  Beta virt. eigenvalues --   -0.08222  -0.04272  -0.00990  -0.00620   0.00046
  Beta virt. eigenvalues --    0.00143   0.01108   0.01654   0.02021   0.02063
  Beta virt. eigenvalues --    0.03177   0.03297   0.03864   0.04156   0.04943

 Mulliken charges and spin densities:
               1          2
     1  C   -0.679680  -0.000535
     2  C    0.570650   0.000742
     3  C   -0.522081  -0.000008
     4  C   -0.681173  -0.000533
     5  C    0.173537   0.025288
     6  C   -0.580579   0.034296
     7  C   -0.109654   0.024936
     8  C    0.240716   0.030344
     9  C   -0.756054   0.097516
    10  O   -0.465248   0.203799
    11  C    0.160355   0.033713
    12  C    0.081236   0.028561
    13  C   -0.466678   0.041383
    14  C   -0.486667   0.034607
    15  C    0.074732   0.026989
    16  C    0.397891   0.035664
    17  C   -0.609747   0.106753
    18  O   -0.465395   0.209465
    19  C    0.510033   0.055244
    20  C    0.058889   0.026739
    21  H    0.163484  -0.000175
    22  H    0.148197  -0.000077
    23  H    0.147469  -0.000343
    24  H    0.142761   0.000571
    25  H    0.170984  -0.000096
    26  H    0.142868   0.000586
    27  H    0.148351  -0.000342
    28  H    0.163433  -0.000161
    29  H    0.148082  -0.000083
    30  H    0.163990  -0.002595
    31  H    0.179002  -0.001662
    32  H    0.164473  -0.001371
    33  H    0.181523  -0.003283
    34  H    0.181927  -0.003068
    35  H    0.164206  -0.001777
    36  H    0.144168  -0.001086
 Sum of Mulliken charges =  -1.00000   1.00000

 Dipole moment (field-independent basis, Debye):
    X=            -10.2988    Y=             -0.5815    Z=              1.0863  Tot=             10.3722
 Quadrupole moment (field-independent basis, Debye-Ang):
   XX=           -136.4370   YY=           -150.3203   ZZ=           -131.4006
   XY=             -9.5306   XZ=              5.5830   YZ=             10.3722

  Exact polarizability: 534.371 -19.667 369.404   0.615 -77.308 220.976
 Approx polarizability: 534.467 -11.460 433.545  -2.321 -95.272 251.279

                      1                      2                      3
                      A                      A                      A
 Frequencies --     36.7868                44.7396                82.6313
 Red. masses --      3.3326                 4.6913                 5.2596
 Frc consts  --      0.0027                 0.0055                 0.0212
 IR Inten    --      2.3729                 5.3495                 7.4935

                      4                      5                      6
                      A                      A                      A
 Frequencies --    125.1185               128.5442               160.3893
 Red. masses --      4.3915                 4.1730                 5.4155
 Frc consts  --      0.0405                 0.0406                 0.0821
 IR Inten    --      3.2889                 0.1796                 1.8326

                      7                      8                      9
                      A                      A                      A
 Frequencies --    177.6120               224.6014               237.3414
 Red. masses --      4.2989                 1.7369                 4.1314
 Frc consts  --      0.0799                 0.0516                 0.1371
 IR Inten    --      3.6388                 0.1303                 3.6872

                     10                     11                     12
                      A                      A                      A
 Frequencies --    244.5012               247.2905               273.2880
 Red. masses --      1.7964                 2.4703                 1.2789
 Frc consts  --      0.0633                 0.0890                 0.0563
 IR Inten    --      0.4520                 4.5600                 2.0826

                     13                     14                     15
                      A                      A                      A
 Frequencies --    301.0666               318.6446               344.9938
 Red. masses --      4.0089                 1.0484                 2.9231
 Frc consts  --      0.2141                 0.0627                 0.2050
 IR Inten    --      0.2301                 0.0153                 0.1287

                     16                     17                     18
                      A                      A                      A
 Frequencies --    354.5296               380.2541               398.6602
 Red. masses --      2.8176                10.4296                 2.9106
 Frc consts  --      0.2087                 0.8885                 0.2725
 IR Inten    --      0.7071                20.0949                 0.3448

                     19                     20                     21
                      A                      A                      A
 Frequencies --    410.4466               420.2567               443.2861
 Red. masses --      5.2203                 3.7492                 4.3018
 Frc consts  --      0.5182                 0.3901                 0.4980
 IR Inten    --      7.9018                 1.8392                 0.9927

                     22                     23                     24
                      A                      A                      A
 Frequencies --    456.2252               470.1500               474.0270
 Red. masses --      4.2404                 3.1598                 3.7969
 Frc consts  --      0.5200                 0.4115                 0.5027
 IR Inten    --      1.5864                 0.0153                 2.1441

                     25                     26                     27
                      A                      A                      A
 Frequencies --    495.3981               563.8274               570.6210
 Red. masses --      7.8061                 3.6120                 4.3550
 Frc consts  --      1.1287                 0.6765                 0.8355
 IR Inten    --      0.3931                10.8370                12.4670

                     28                     29                     30
                      A                      A                      A
 Frequencies --    640.0233               657.7320               668.2083
 Red. masses --      6.9557                 6.0004                 3.3249
 Frc consts  --      1.6787                 1.5294                 0.8747
 IR Inten    --     19.5155                15.3310                41.2824

                     31                     32                     33
                      A                      A                      A
 Frequencies --    698.6929               708.5156               711.1134
 Red. masses --      6.6066                 2.8243                 6.4142
 Frc consts  --      1.9002                 0.8353                 1.9110
 IR Inten    --      3.2857                88.0744                 2.6533

                     34                     35                     36
                      A                      A                      A
 Frequencies --    743.4373               787.7962               803.6286
 Red. masses --      3.8411                 1.7737                 3.9066
 Frc consts  --      1.2508                 0.6486                 1.4865
 IR Inten    --      0.4735                31.0808                 0.1135

                     37                     38                     39
                      A                      A                      A
 Frequencies --    808.2196               849.7270               856.4851
 Red. masses --      3.8969                 1.6191                 3.5891
 Frc consts  --      1.4998                 0.6888                 1.5512
 IR Inten    --      0.7203                35.1149                20.7755

                     40                     41                     42
                      A                      A                      A
 Frequencies --    884.9492               921.5037               934.8336
 Red. masses --      1.4818                 1.8177                 6.8643
 Frc consts  --      0.6837                 0.9094                 3.5344
 IR Inten    --      0.1509                 0.5214                42.2957

                     43                     44                     45
                      A                      A                      A
 Frequencies --    937.3023               937.6165               959.4518
 Red. masses --      1.7083                 1.4354                 1.1989
 Frc consts  --      0.8843                 0.7435                 0.6503
 IR Inten    --      1.1876                15.0058                 0.3773

                     46                     47                     48
                      A                      A                      A
 Frequencies --    978.7364               989.1700               997.2320
 Red. masses --      4.1852                 1.3616                 1.3240
 Frc consts  --      2.3621                 0.7849                 0.7758
 IR Inten    --      2.7487                 2.5244                 1.1591

                     49                     50                     51
                      A                      A                      A
 Frequencies --   1000.7848              1038.0561              1040.4979
 Red. masses --      1.2854                 1.7704                 1.5841
 Frc consts  --      0.7585                 1.1240                 1.0105
 IR Inten    --      0.0311                18.0587                18.7184

                     52                     53                     54
                      A                      A                      A
 Frequencies --   1044.4372              1097.3801              1113.3754
 Red. masses --      1.3941                 2.3679                 2.0545
 Frc consts  --      0.8960                 1.6801                 1.5005
 IR Inten    --      0.0019                10.0684                32.7444

                     55                     56                     57
                      A                      A                      A
 Frequencies --   1136.3871              1151.9359              1181.2404
 Red. masses --      1.8344                 1.3586                 3.0480
 Frc consts  --      1.3957                 1.0622                 2.5058
 IR Inten    --     38.4959                10.2174                 8.5407

                     58                     59                     60
                      A                      A                      A
 Frequencies --   1201.1661              1213.6276              1216.4125
 Red. masses --      1.9508                 2.4334                 2.7272
 Frc consts  --      1.6583                 2.1117                 2.3776
 IR Inten    --      4.2911                13.6385                 7.5871

                     61                     62                     63
                      A                      A                      A
 Frequencies --   1226.9383              1236.9714              1262.5145
 Red. masses --      1.7743                 2.5638                 2.0905
 Frc consts  --      1.5737                 2.3113                 1.9632
 IR Inten    --     16.5157                21.7300               263.3725

                     64                     65                     66
                      A                      A                      A
 Frequencies --   1283.9844              1339.2511              1357.7609
 Red. masses --      2.9179                 2.2388                10.4357
 Frc consts  --      2.8343                 2.3658                11.3350
 IR Inten    --    148.8540                42.1576                13.6055

                     67                     68                     69
                      A                      A                      A
 Frequencies --   1366.4357              1391.4895              1393.6628
 Red. masses --      6.9314                 1.2062                 1.3078
 Frc consts  --      7.6252                 1.3760                 1.4966
 IR Inten    --      7.2611                 9.5040               126.2371

                     70                     71                     72
                      A                      A                      A
 Frequencies --   1407.5649              1421.4187              1457.5766
 Red. masses --      2.6835                 1.2290                 3.4267
 Frc consts  --      3.1325                 1.4630                 4.2893
 IR Inten    --    967.2066                 5.3843               509.2638

                     73                     74                     75
                      A                      A                      A
 Frequencies --   1471.1784              1477.3566              1479.9952
 Red. masses --      2.9624                 1.0476                 1.0459
 Frc consts  --      3.7777                 1.3472                 1.3498
 IR Inten    --    170.5070                 0.0042                 0.2482

                     76                     77                     78
                      A                      A                      A
 Frequencies --   1483.4184              1492.5947              1496.4184
 Red. masses --      1.1054                 1.6122                 1.6474
 Frc consts  --      1.4331                 2.1162                 2.1735
 IR Inten    --     16.2786                42.3771               106.6663

                     79                     80                     81
                      A                      A                      A
 Frequencies --   1497.7655              1500.0252              1510.6687
 Red. masses --      1.0548                 3.8470                 1.1272
 Frc consts  --      1.3941                 5.1001                 1.5156
 IR Inten    --     15.0959               666.5679                23.5549

                     82                     83                     84
                      A                      A                      A
 Frequencies --   1522.1545              1552.9715              1605.1083
 Red. masses --      3.9087                 5.2645                 8.4490
 Frc consts  --      5.3358                 7.4805                12.8252
 IR Inten    --     72.2878               105.8425                 3.6559

                     85                     86                     87
                      A                      A                      A
 Frequencies --   1623.1442              1634.9703              3016.1988
 Red. masses --      5.6120                 6.2910                 1.0348
 Frc consts  --      8.7113                 9.9081                 5.5465
 IR Inten    --      9.5119                16.3519                59.1856

                     88                     89                     90
                      A                      A                      A
 Frequencies --   3017.8112              3025.7427              3077.9808
 Red. masses --      1.0346                 1.0358                 1.1022
 Frc consts  --      5.5517                 5.5870                 6.1524
 IR Inten    --     52.3048                56.2337                17.1479

                     91                     92                     93
                      A                      A                      A
 Frequencies --   3079.1099              3086.0904              3088.3101
 Red. masses --      1.1020                 1.1012                 1.1024
 Frc consts  --      6.1558                 6.1792                 6.1951
 IR Inten    --     30.1030               153.0358                44.4344

                     94                     95                     96
                      A                      A                      A
 Frequencies --   3091.6135              3093.4157              3158.0954
 Red. masses --      1.1014                 1.1008                 1.0859
 Frc consts  --      6.2023                 6.2061                 6.3809
 IR Inten    --     24.6848                90.0111                13.4349

                     97                     98                     99
                      A                      A                      A
 Frequencies --   3166.3863              3172.0137              3187.1611
 Red. masses --      1.0866                 1.0901                 1.0929
 Frc consts  --      6.4185                 6.4621                 6.5410
 IR Inten    --     16.0213                20.7733                32.2734

                    100                    101                    102
                      A                      A                      A
 Frequencies --   3187.8193              3191.3435              3210.3212
 Red. masses --      1.0919                 1.0946                 1.0881
 Frc consts  --      6.5378                 6.5682                 6.6074
 IR Inten    --     24.0863                45.2833                 7.1966

 - Thermochemistry -
 -------------------
 Temperature   298.150 Kelvin.  Pressure   1.00000 Atm.
 Atom     1 has atomic number  6 and mass  12.00000

 Molecular mass:   264.11503 amu.
 Principal axes and moments of inertia in atomic units:
                           1         2         3
     Eigenvalues --  2185.387379295.95125**********
           X            0.99920   0.03392   0.02128
           Y           -0.03956   0.91836   0.39377
           Z           -0.00618  -0.39429   0.91896
 This molecule is an asymmetric top.
 Rotational symmetry number  1.
 Warning -- assumption of classical behavior for rotation
           may cause significant error
 Rotational temperatures (Kelvin)      0.03963     0.00932     0.00782
 Rotational constants (GHZ):           0.82582     0.19414     0.16285
 Zero-point vibrational energy     757461.4 (Joules/Mol)
                                  181.03762 (Kcal/Mol)
 Warning -- explicit consideration of  27 degrees of freedom as
           vibrations may cause significant error
 Vibrational temperatures:     52.93    64.37   118.89   180.02   184.95
          (Kelvin)            230.76   255.54   323.15   341.48   351.78
                              355.80   393.20   433.17   458.46   496.37
                              510.09   547.10   573.58   590.54   604.66
                              637.79   656.41   676.44   682.02   712.77
                              811.22   821.00   920.85   946.33   961.40
                             1005.26  1019.40  1023.13  1069.64  1133.46
                             1156.24  1162.85  1222.57  1232.29  1273.24
                             1325.84  1345.02  1348.57  1349.02  1380.44
                             1408.18  1423.20  1434.79  1439.91  1493.53
                             1497.04  1502.71  1578.89  1601.90  1635.01
                             1657.38  1699.54  1728.21  1746.14  1750.15
                             1765.29  1779.73  1816.48  1847.37  1926.88
                             1953.52  1966.00  2002.04  2005.17  2025.17
                             2045.10  2097.13  2116.70  2125.59  2129.38
                             2134.31  2147.51  2153.01  2154.95  2158.20
                             2173.52  2190.04  2234.38  2309.39  2335.34
                             2352.36  4339.64  4341.96  4353.37  4428.53
                             4430.15  4440.20  4443.39  4448.14  4450.74
                             4543.79  4555.72  4563.82  4585.61  4586.56
                             4591.63  4618.94

 Zero-point correction=                           0.288502 (Hartree/Particle)
 Thermal correction to Energy=                    0.305305
 Thermal correction to Enthalpy=                  0.306249
 Thermal correction to Gibbs Free Energy=         0.244093
 Sum of electronic and zero-point Energies=           -846.102615
 Sum of electronic and thermal Energies=              -846.085811
 Sum of electronic and thermal Enthalpies=            -846.084867
 Sum of electronic and thermal Free Energies=         -846.147023

                     E (Thermal)             CV                S
                      KCal/Mol        Cal/Mol-Kelvin    Cal/Mol-Kelvin
 Total                  191.582             68.240            130.818
 Electronic               0.000              0.000              1.377
 Translational            0.889              2.981             42.613
 Rotational               0.889              2.981             33.776
 Vibrational            189.804             62.279             53.052
 Vibration     1          0.594              1.982              5.425
 Vibration     2          0.595              1.980              5.037
 Vibration     3          0.600              1.961              3.827
 Vibration     4          0.610              1.928              3.020
 Vibration     5          0.611              1.925              2.968
 Vibration     6          0.622              1.891              2.545
 Vibration     7          0.628              1.870              2.353
 Vibration     8          0.649              1.804              1.922
 Vibration     9          0.656              1.784              1.823
 Vibration    10          0.660              1.772              1.770
 Vibration    11          0.661              1.767              1.750
 Vibration    12          0.676              1.723              1.575
 Vibration    13          0.693              1.672              1.411
 Vibration    14          0.705              1.638              1.317
 Vibration    15          0.723              1.585              1.189
 Vibration    16          0.730              1.566              1.146
 Vibration    17          0.750              1.512              1.038
 Vibration    18          0.765              1.473              0.968
 Vibration    19          0.775              1.448              0.925
 Vibration    20          0.783              1.426              0.891
 Vibration    21          0.803              1.376              0.816
 Vibration    22          0.814              1.347              0.777
 Vibration    23          0.827              1.316              0.737
 Vibration    24          0.831              1.308              0.726
 Vibration    25          0.851              1.260              0.670
 Vibration    26          0.920              1.110              0.516
 Vibration    27          0.927              1.095              0.503

 Optimization completed.
    -- Stationary point found.
 Normal termination of Gaussian 16 at Sat Feb 10 20:28:02 2024.
