 Q-Chem 5.4, Q-Chem, Inc., Pleasanton, CA (2021)
 Q-Chem 5.4.0 for Intel X86 EM64T Linux

User input:
--------------------------------------------------------------
$molecule
-2 1
C                 -1.3185050000      1.9303960000     -4.2342790000
C                 -1.2309680000      0.5565970000     -4.3195750000
C                 -0.9456720000     -0.2036510000     -3.1514990000
C                 -1.1377030000      2.6200220000     -3.0075380000
C                 -0.8497530000      1.8519130000     -1.8274230000
C                 -0.7594140000      0.4404890000     -1.9465200000
C                 -1.2330810000      4.0576350000     -2.9776590000
C                 -0.6374080000      2.4736920000     -0.5461420000
C                 -1.0616110000      4.6894880000     -1.6904670000
C                 -0.7737230000      3.9083210000     -0.4928070000
C                 -1.1271350000      6.1366700000     -1.5782580000
C                 -0.8239210000      6.7521700000     -0.3744920000
C                 -0.5482160000      5.9927430000      0.7899600000
C                 -0.5743670000      4.6083770000      0.7662160000
O                 -1.4492740000      4.7117010000     -4.0848970000
O                 -0.3205960000      1.7377670000      0.4841390000
H                 -1.5301690000      2.5398540000     -5.1064720000
H                 -1.3782590000      0.0552980000     -5.2744650000
H                 -0.8744020000     -1.2881880000     -3.2104940000
H                 -0.5353000000     -0.1093240000     -1.0386130000
H                 -0.3578710000      6.5161770000      1.7209050000
H                 -0.8352130000      7.8346770000     -0.3005310000
N                 -1.5102350000      6.8745170000     -2.6976850000
C                 -1.1879950000      8.2648750000     -2.8179780000
H                 -1.5037430000      6.2656080000     -3.5384460000
H                 -0.1209590000      8.4931480000     -2.6175800000
H                 -1.7751100000      8.8949930000     -2.1288660000
H                 -1.4198010000      8.5950930000     -3.8362960000
N                 -0.4374860000      3.8508260000      1.9312240000
C                  0.1467240000      4.3966550000      3.1209160000
C                  0.3117570000      3.3089370000      4.1794620000
O                  0.8432010000      3.8172130000      5.4164430000
H                 -0.2589080000      2.8563380000      1.6714070000
H                 -0.4757520000      5.1998430000      3.5426030000
H                  1.1470360000      4.8544930000      2.9381780000
H                  0.9542450000      2.5076800000      3.7915800000
H                 -0.6570010000      2.8708430000      4.4268100000
H                  1.6739180000      4.2650830000      5.2098710000
$end
$rem
MAX_SCF_CYCLES=200
BASIS  =  6-311++G(d,p)
GUI  =  2
JOB_TYPE  =  SP
METHOD  =  B3LYP
SOLVENT_METHOD = COSMO
$end
$solvent
dielectric 37.219
opticaldielectric 1.43
$end

--------------------------------------------------------------

             Standard Nuclear Orientation (Angstroms)
    I     Atom           X                Y                Z
 ----------------------------------------------------------------
    1      C       3.8261401058     1.2527924206    -0.0506195230
    2      C       4.1336506392     2.5970409410    -0.0769826315
    3      C       3.0852897996     3.5585591732    -0.0630323679
    4      C       2.4858830254     0.7894573570    -0.0037319831
    5      C       1.4267790576     1.7608842459     0.0106428723
    6      C       1.7729481802     3.1369148638    -0.0235567657
    7      C       2.2220607300    -0.6271488495     0.0148558513
    8      C       0.0396324559     1.3759073772     0.0422283228
    9      C       0.8356451772    -1.0248297525     0.0870031570
   10      C      -0.2380429341    -0.0377497833     0.1059196056
   11      C       0.4848076904    -2.4348264169     0.0935192729
   12      C      -0.8447861956    -2.8177719895     0.0202775562
   13      C      -1.8878744299    -1.8585262097     0.0427618863
   14      C      -1.6149749356    -0.5044256920     0.1410193445
   15      O       3.2166995774    -1.4681716930    -0.0475290365
   16      O      -0.8865858328     2.2942155344    -0.0053552682
   17      H       4.6012804644     0.4938984531    -0.0647157092
   18      H       5.1719401413     2.9222097982    -0.1090818885
   19      H       3.3195801353     4.6213109749    -0.0841741225
   20      H       0.9503499955     3.8440994078    -0.0173287813
   21      H      -2.9156508514    -2.2053468136     0.0265119430
   22      H      -1.1051816526    -3.8706035479    -0.0137674082
   23      N       1.5098929469    -3.3754833371     0.1866073450
   24      C       1.3152650146    -4.7314656215    -0.2315270878
   25      H       2.4263608830    -2.9120432862     0.0349458244
   26      H       0.8675497789    -4.8253901526    -1.2422510840
   27      H       0.6577573130    -5.2935608115     0.4528417347
   28      H       2.2846202458    -5.2413682612    -0.2414886159
   29      N      -2.6310545905     0.4403045338     0.2989133005
   30      C      -3.9911933115     0.1493834646    -0.0474755955
   31      C      -4.8519682167     1.4039793252     0.0787850946
   32      O      -6.2404367517     1.1527295561    -0.2039301202
   33      H      -2.2407325511     1.3920715330     0.1251616313
   34      H      -4.4145252556    -0.6291248286     0.6045383326
   35      H      -4.0969313116    -0.2379990069    -1.0878539902
   36      H      -4.4655687299     2.1878776874    -0.5856355934
   37      H      -4.8183118129     1.7852735795     1.1010773163
   38      H      -6.2873923446     0.7557105956    -1.0834307623
 ----------------------------------------------------------------

   12    -992.8905090763      5.75e-06  Convergence criterion met
 Total energy in the final basis set =     -992.8905090763
    5    -993.1527374146      9.89e-06  Convergence criterion met
 Total energy in the final basis set =     -993.1527374146

                    Orbital Energies (a.u.)
 --------------------------------------------------------------

 Alpha MOs
 -- Occupied --
-19.1273 -19.0324 -19.0323 -14.2785 -14.2765 -10.2107 -10.1859 -10.1831
-10.1825 -10.1773 -10.1760 -10.1758 -10.1516 -10.1511 -10.1486 -10.1486
-10.1458 -10.1454 -10.1403 -10.1399 -10.1315 -10.1306  -1.0226  -0.9547
 -0.9513  -0.8999  -0.8935  -0.8301  -0.8030  -0.7535  -0.7363  -0.7267
 -0.7107  -0.6919  -0.6522  -0.6356  -0.6244  -0.5995  -0.5880  -0.5503
 -0.5386  -0.5113  -0.5050  -0.4947  -0.4784  -0.4651  -0.4567  -0.4463
 -0.4393  -0.4351  -0.4265  -0.4166  -0.4097  -0.4016  -0.3972  -0.3897
 -0.3835  -0.3824  -0.3755  -0.3635  -0.3555  -0.3486  -0.3464  -0.3402
 -0.3371  -0.3299  -0.3204  -0.3092  -0.3063  -0.2853  -0.2830  -0.2377
 -0.2337  -0.2249  -0.2167  -0.2112  -0.2062  -0.1609  -0.1085

          Ground-State Mulliken Net Atomic Charges

     Atom                 Charge (a.u.)
  ----------------------------------------
      1 C                    -0.080960
      2 C                    -0.561921
      3 C                    -0.528173
      4 C                     0.160599
      5 C                     0.098307
      6 C                    -0.116097
      7 C                    -0.287527
      8 C                    -0.365522
      9 C                     0.249447
     10 C                     0.278724
     11 C                    -0.112203
     12 C                    -0.303878
     13 C                    -0.264766
     14 C                    -0.240300
     15 O                    -0.660000
     16 O                    -0.638685
     17 H                     0.158733
     18 H                     0.179876
     19 H                     0.180897
     20 H                     0.149491
     21 H                     0.164386
     22 H                     0.176056
     23 N                    -0.316774
     24 C                    -0.415716
     25 H                     0.387713
     26 H                     0.136519
     27 H                     0.142153
     28 H                     0.147472
     29 N                    -0.189857
     30 C                    -0.158430
     31 C                    -0.385972
     32 O                    -0.361884
     33 H                     0.444426
     34 H                     0.155761
     35 H                     0.135049
     36 H                     0.166325
     37 H                     0.187061
     38 H                     0.289666
  ----------------------------------------
  Sum of atomic charges =    -2.000004

                    Cartesian Multipole Moments
 -----------------------------------------------------------------
    Charge (ESU x 10^10)
                -9.6064
    Dipole Moment (Debye)
         X      -7.0487      Y      -2.4503      Z      -2.6162
       Tot       7.9078
    Quadrupole Moments (Debye-Ang)
        XX    -203.9373     XY      15.8841     YY    -171.7922
        XZ       9.3689     YZ       1.3518     ZZ    -143.5468

 Total job time:  131.23s(wall), 1015.32s(cpu)
        *  Thank you very much for using Q-Chem.  Have a nice day.  *
