 Q-Chem 5.4, Q-Chem, Inc., Pleasanton, CA (2021)
 Q-Chem 5.4.0 for Intel X86 EM64T Linux

User input:
--------------------------------------------------------------
$molecule
-1 2
O                  2.2683610000      2.7678710000     -0.2350070000
C                  2.3610360000      1.4188870000     -0.1534720000
C                  3.6134040000      0.8335170000      0.0115400000
C                  3.7377740000     -0.5560230000      0.1140320000
C                  2.6001360000     -1.3647980000      0.0316260000
C                  1.3400240000     -0.8009310000     -0.1509590000
C                  0.1239750000     -1.6689730000     -0.3846200000
C                 -1.1891030000     -1.0228170000     -0.0035760000
C                 -2.3027020000     -1.7949760000      0.3173250000
C                 -3.5461530000     -1.1950360000      0.5385280000
C                 -3.6774690000      0.1938950000      0.4365930000
C                 -2.5731630000      0.9860770000      0.1343140000
O                 -2.7256780000      2.3296650000      0.0564480000
C                 -1.2915720000      0.3899880000     -0.0838450000
C                 -0.1243080000      1.2119580000     -0.3081890000
O                 -0.2467710000      2.5203540000     -0.4372260000
C                  1.1857830000      0.6074700000     -0.2283040000
H                  1.2859100000      2.9561070000     -0.3384260000
H                  4.4800250000      1.4836530000      0.0690860000
H                  4.7171990000     -1.0028150000      0.2526860000
H                  2.6961300000     -2.4455500000      0.0943840000
H                  0.2381340000     -2.6318810000      0.1249090000
H                  0.0817300000     -1.9053200000     -1.4645420000
H                 -2.2018530000     -2.8753040000      0.3797200000
H                 -4.4106370000     -1.8035500000      0.7845260000
H                 -4.6312880000      0.6842730000      0.6002730000
H                 -1.8089240000      2.6842590000     -0.1578240000
$end
$rem
MAX_SCF_CYCLES=200
BASIS  =  6-311++G(d,p)
GUI  =  2
JOB_TYPE  =  SP
METHOD  =  B3LYP
SOLVENT_METHOD = COSMO
$end
$solvent
dielectric 37.219
opticaldielectric 1.43
$end

--------------------------------------------------------------

             Standard Nuclear Orientation (Angstroms)
    I     Atom           X                Y                Z
 ----------------------------------------------------------------
    1      O       2.5110582035    -2.2226382984    -0.0658915535
    2      C       2.4807687461    -0.8683574219    -0.0664396852
    3      C       3.6655904278    -0.1632201092    -0.2595499057
    4      C       3.6620670703     1.2354793509    -0.2800761088
    5      C       2.4648862038     1.9315822914    -0.0868750804
    6      C       1.2715054482     1.2460923313     0.1255193997
    7      C      -0.0000573138     1.9851589416     0.4773407105
    8      C      -1.2716104596     1.2460340910     0.1255837018
    9      C      -2.4650729705     1.9315095462    -0.0867376139
   10      C      -3.6621480379     1.2352912378    -0.2799227854
   11      C      -3.6656178918    -0.1633998621    -0.2595481400
   12      C      -2.4807295157    -0.8685343837    -0.0665675735
   13      O      -2.5106343359    -2.2226607486    -0.0661899022
   14      C      -1.2455647867    -0.1725090192     0.1213359143
   15      C       0.0000159949    -0.8969907496     0.2314490182
   16      O      -0.0001065620    -2.2164000278     0.2834775510
   17      C       1.2455102044    -0.1725946787     0.1213568281
   18      H       1.5564384826    -2.5048876799     0.0768485033
   19      H       4.5808428318    -0.7276328988    -0.4036733182
   20      H       4.5890701173     1.7765625537    -0.4413698534
   21      H       2.4623950011     3.0183992700    -0.0859008307
   22      H      -0.0001030489     2.9826049751     0.0246318594
   23      H      -0.0000818452     2.1531155670     1.5708061383
   24      H      -2.4626778460     3.0183238803    -0.0856835582
   25      H      -4.5892423743     1.7762776339    -0.4410646515
   26      H      -4.5808814910    -0.7278052617    -0.4036713477
   27      H      -1.5555569877    -2.5046148356     0.0766962177
 ----------------------------------------------------------------

    9    -765.4753969108      7.75e-06  Convergence criterion met
 Total energy in the final basis set =     -765.4753969108
    4    -765.5515812876      5.17e-06  Convergence criterion met
 Total energy in the final basis set =     -765.5515812876

                    Orbital Energies (a.u.)
 --------------------------------------------------------------

 Alpha MOs
 -- Occupied --
-19.1269 -19.1268 -19.0846 -10.2247 -10.2247 -10.2135 -10.1753 -10.1752
-10.1709 -10.1675 -10.1675 -10.1647 -10.1647 -10.1576 -10.1576 -10.1574
-10.1574  -1.0516  -1.0446  -0.9872  -0.8622  -0.8391  -0.7863  -0.7531
 -0.7370  -0.7278  -0.6861  -0.6366  -0.6255  -0.5834  -0.5811  -0.5546
 -0.5163  -0.5092  -0.5090  -0.4666  -0.4637  -0.4543  -0.4403  -0.4287
 -0.4151  -0.4090  -0.4075  -0.4015  -0.3995  -0.3892  -0.3780  -0.3641
 -0.3613  -0.3588  -0.3385  -0.3283  -0.3241  -0.3233  -0.2621  -0.2544
 -0.2450  -0.2214  -0.2197  -0.1188

 Beta MOs
 -- Occupied --
-19.1261 -19.1260 -19.0795 -10.2230 -10.2230 -10.2077 -10.1731 -10.1730
-10.1712 -10.1688 -10.1687 -10.1625 -10.1625 -10.1584 -10.1584 -10.1583
-10.1583  -1.0490  -1.0429  -0.9777  -0.8594  -0.8371  -0.7835  -0.7493
 -0.7350  -0.7263  -0.6842  -0.6311  -0.6226  -0.5801  -0.5800  -0.5525
 -0.5148  -0.5081  -0.5064  -0.4647  -0.4616  -0.4534  -0.4339  -0.4268
 -0.4118  -0.4046  -0.4019  -0.3975  -0.3974  -0.3881  -0.3769  -0.3604
 -0.3579  -0.3406  -0.3350  -0.3272  -0.3205  -0.3172  -0.2506  -0.2462
 -0.2392  -0.2169  -0.2162

          Ground-State Mulliken Net Atomic Charges

     Atom                 Charge (a.u.)    Spin (a.u.)
  --------------------------------------------------------
      1 O                    -0.422762       0.021684
      2 C                    -0.084646       0.132042
      3 C                    -0.388086      -0.057490
      4 C                    -0.281084       0.176944
      5 C                    -0.182641      -0.075284
      6 C                    -0.051480       0.112214
      7 C                    -0.931009       0.105716
      8 C                    -0.051354       0.112148
      9 C                    -0.182099      -0.075184
     10 C                    -0.281683       0.176713
     11 C                    -0.388435      -0.057406
     12 C                    -0.084637       0.131882
     13 O                    -0.422671       0.021706
     14 C                     0.835636      -0.154524
     15 C                    -0.583167       0.398554
     16 O                    -0.620353       0.166217
     17 C                     0.837367      -0.154663
     18 H                     0.401144      -0.002346
     19 H                     0.194195       0.002695
     20 H                     0.199612      -0.012572
     21 H                     0.183105       0.004425
     22 H                     0.105621       0.005887
     23 H                     0.221691       0.028435
     24 H                     0.182986       0.004420
     25 H                     0.199623      -0.012554
     26 H                     0.193920       0.002689
     27 H                     0.401207      -0.002345
  --------------------------------------------------------
  Sum of atomic charges =    -1.000000

                    Cartesian Multipole Moments
 -----------------------------------------------------------------
    Charge (ESU x 10^10)
                -4.8032
    Dipole Moment (Debye)
         X       0.0016      Y       7.9423      Z       0.0842
       Tot       7.9428
    Quadrupole Moments (Debye-Ang)
        XX    -124.4531     XY      -0.0042     YY    -116.3523
        XZ       0.0018     YZ       1.3105     ZZ    -107.5946

 Total job time:  78.50s(wall), 562.67s(cpu)
        *  Thank you very much for using Q-Chem.  Have a nice day.  *
