 Gaussian 16, Revision A.03,
 Gaussian 16:  ES64L-G16RevA.03 25-Dec-2016

 -------------------------------
 #P UB3LYP/genecp nosym opt freq
 -------------------------------

 -------
 Radical
 -------
 Symbolic Z-matrix:
 Charge = -1 Multiplicity = 2

 SCF Done:  E(UB3LYP) =  -1133.31656406     A.U. after   22 cycles
 SCF Done:  E(UB3LYP) =  -1133.33185535     A.U. after   19 cycles
 SCF Done:  E(UB3LYP) =  -1133.33236882     A.U. after   16 cycles
 SCF Done:  E(UB3LYP) =  -1133.33238077     A.U. after   15 cycles
 SCF Done:  E(UB3LYP) =  -1133.33242471     A.U. after   14 cycles
 SCF Done:  E(UB3LYP) =  -1133.33242585     A.U. after   12 cycles
 SCF Done:  E(UB3LYP) =  -1133.33242666     A.U. after   11 cycles
 SCF Done:  E(UB3LYP) =  -1133.33242705     A.U. after   11 cycles
 SCF Done:  E(UB3LYP) =  -1133.33242763     A.U. after   12 cycles
 SCF Done:  E(UB3LYP) =  -1133.33243285     A.U. after   15 cycles
 SCF Done:  E(UB3LYP) =  -1133.33902897     A.U. after   17 cycles
 SCF Done:  E(UB3LYP) =  -1133.33979033     A.U. after   12 cycles
 SCF Done:  E(UB3LYP) =  -1133.33993266     A.U. after   16 cycles
 SCF Done:  E(UB3LYP) =  -1133.34000610     A.U. after   15 cycles
 SCF Done:  E(UB3LYP) =  -1133.34002992     A.U. after   14 cycles
 SCF Done:  E(UB3LYP) =  -1133.34003178     A.U. after   12 cycles
 SCF Done:  E(UB3LYP) =  -1133.34003305     A.U. after   11 cycles
 SCF Done:  E(UB3LYP) =  -1133.34003335     A.U. after   11 cycles
 SCF Done:  E(UB3LYP) =  -1133.34003357     A.U. after   10 cycles
 Optimization completed.
    -- Stationary point found.
 Normal termination of Gaussian 16 at Thu Dec 21 05:28:28 2023.

 ------------------------------------------------------------------
 #P Geom=AllCheck Guess=TCheck SCRF=Check GenChk UB3LYP/GenECP Freq
 ------------------------------------------------------------------

 Structure from the checkpoint file:  "016-rad.chk"
 -------
 Radical
 -------
 Charge = -1 Multiplicity = 2

                          Input orientation:
 ---------------------------------------------------------------------
 Center     Atomic      Atomic             Coordinates (Angstroms)
 Number     Number       Type             X           Y           Z
 ---------------------------------------------------------------------
      1          6           0       -1.754936    1.467796    1.045105
      2          6           0       -2.956264    0.694442    0.807099
      3          6           0       -3.003169   -0.530587    0.200489
      4          6           0       -1.757190   -1.153904   -0.264714
      5          6           0       -0.531784   -0.385044   -0.032310
      6          6           0       -0.520974    0.843891    0.580499
      7          8           0       -1.728562   -2.275642   -0.828159
      8          8           0       -1.796482    2.586819    1.609514
      9         53           0        1.218955    1.996579    0.940900
     10         53           0        1.216083   -1.359229   -0.734790
     11          1           0       -3.855026    1.182715    1.161832
     12          6           0       -4.330254   -1.284007   -0.013238
     13          6           0       -5.538955   -0.497199    0.529818
     14          6           0       -4.287631   -2.645349    0.722709
     15          6           0       -4.564999   -1.519551   -1.525183
     16          1           0       -5.654605    0.469752    0.031788
     17          1           0       -5.460233   -0.318352    1.606031
     18          1           0       -6.452496   -1.074628    0.353479
     19          1           0       -4.154488   -2.494290    1.798926
     20          1           0       -3.466188   -3.257165    0.352258
     21          1           0       -5.230727   -3.184346    0.570703
     22          1           0       -4.629033   -0.563901   -2.055674
     23          1           0       -5.508892   -2.056435   -1.679853
     24          1           0       -3.751412   -2.102745   -1.954550
 ---------------------------------------------------------------------

 SCF Done:  E(UB3LYP) =  -1133.34003357     A.U. after    2 cycles

 Alpha  occ. eigenvalues --  -18.95969 -18.95844 -10.11367 -10.10932 -10.09667
 Alpha  occ. eigenvalues --  -10.09524 -10.08499 -10.06410 -10.06046 -10.04921
 Alpha  occ. eigenvalues --  -10.04899 -10.04891  -6.71801  -6.71758  -4.74217
 Alpha  occ. eigenvalues --   -4.74175  -4.73141  -4.73099  -4.73022  -4.72977
 Alpha  occ. eigenvalues --   -1.79039  -1.78997  -1.78697  -1.78656  -1.78604
 Alpha  occ. eigenvalues --   -1.78560  -1.77671  -1.77668  -1.77626  -1.77623
 Alpha  occ. eigenvalues --   -0.88907  -0.88395  -0.73032  -0.70456  -0.64154
 Alpha  occ. eigenvalues --   -0.59739  -0.58618  -0.57853  -0.55826  -0.55102
 Alpha  occ. eigenvalues --   -0.48131  -0.45193  -0.41836  -0.37574  -0.36094
 Alpha  occ. eigenvalues --   -0.33682  -0.32464  -0.32246  -0.30670  -0.29753
 Alpha  occ. eigenvalues --   -0.28424  -0.28187  -0.27301  -0.26579  -0.25180
 Alpha  occ. eigenvalues --   -0.25116  -0.24006  -0.23015  -0.22321  -0.21929
 Alpha  occ. eigenvalues --   -0.19432  -0.15632  -0.15511  -0.14909  -0.13376
 Alpha  occ. eigenvalues --   -0.12382  -0.11757  -0.10659  -0.04429
 Alpha virt. eigenvalues --    0.06358   0.07479   0.09613   0.09800   0.10134
 Alpha virt. eigenvalues --    0.10570   0.11254   0.12602   0.12721   0.13333
 Alpha virt. eigenvalues --    0.13692   0.13934   0.14195   0.15964   0.16548

  Beta  occ. eigenvalues --  -18.95279 -18.95108 -10.11242 -10.10848 -10.09529
  Beta  occ. eigenvalues --  -10.09364 -10.08505 -10.06324 -10.06046 -10.04894
  Beta  occ. eigenvalues --  -10.04886 -10.04816  -6.71799  -6.71757  -4.74220
  Beta  occ. eigenvalues --   -4.74179  -4.73133  -4.73092  -4.73022  -4.72977
  Beta  occ. eigenvalues --   -1.79042  -1.78999  -1.78694  -1.78654  -1.78607
  Beta  occ. eigenvalues --   -1.78564  -1.77665  -1.77663  -1.77622  -1.77619
  Beta  occ. eigenvalues --   -0.87720  -0.87128  -0.72713  -0.70095  -0.63928
  Beta  occ. eigenvalues --   -0.59336  -0.58588  -0.57836  -0.55702  -0.54442
  Beta  occ. eigenvalues --   -0.47823  -0.44832  -0.41596  -0.37385  -0.35934
  Beta  occ. eigenvalues --   -0.33628  -0.32207  -0.32072  -0.29712  -0.29287
  Beta  occ. eigenvalues --   -0.28132  -0.27230  -0.26988  -0.26194  -0.24893
  Beta  occ. eigenvalues --   -0.23856  -0.23247  -0.22565  -0.22235  -0.21756
  Beta  occ. eigenvalues --   -0.18184  -0.15476  -0.14606  -0.13107  -0.13021
  Beta  occ. eigenvalues --   -0.11722  -0.11133  -0.10304
  Beta virt. eigenvalues --    0.02683   0.06478   0.07480   0.09804   0.09913
  Beta virt. eigenvalues --    0.10588   0.11140   0.11435   0.12728   0.12815
  Beta virt. eigenvalues --    0.13348   0.13719   0.14060   0.15941   0.15976

 Mulliken charges and spin densities:
               1          2
     1  C   -1.377116   0.040438
     2  C   -0.164263   0.085461
     3  C    1.207308   0.096100
     4  C   -1.066972   0.059123
     5  C    0.127969   0.086705
     6  C    0.934542   0.129924
     7  O   -0.261405   0.256114
     8  O   -0.299970   0.268032
     9  I   -0.139434  -0.000096
    10  I   -0.139349  -0.000626
    11  H    0.174678  -0.007104
    12  C    0.630532  -0.035566
    13  C   -0.506934   0.001403
    14  C   -0.687142   0.010851
    15  C   -0.687739   0.010828
    16  H    0.123159  -0.000443
    17  H    0.123198  -0.000446
    18  H    0.146665   0.000103
    19  H    0.117316   0.000699
    20  H    0.195479  -0.001363
    21  H    0.118370   0.000257
    22  H    0.117368   0.000690
    23  H    0.118367   0.000257
    24  H    0.195374  -0.001342
 Sum of Mulliken charges =  -1.00000   1.00000

 Dipole moment (field-independent basis, Debye):
    X=              4.8514    Y=             -1.0120    Z=             -1.5614  Tot=              5.1960
 Quadrupole moment (field-independent basis, Debye-Ang):
   XX=           -149.0781   YY=           -159.7152   ZZ=           -139.3245
   XY=             -0.6932   XZ=              2.2337   YZ=            -13.8699

  Exact polarizability: 258.999  22.579 231.003  -3.666  43.686 160.265
 Approx polarizability: 360.552  12.255 412.958 -10.521  91.931 273.162

                      1                      2                      3
                      A                      A                      A
 Frequencies --     41.7819                45.3579                83.6057
 Red. masses --      6.3236                 4.6438                 5.2699
 Frc consts  --      0.0065                 0.0056                 0.0217
 IR Inten    --      0.7067                 3.5439                 0.0916

                      4                      5                      6
                      A                      A                      A
 Frequencies --     96.1246               121.5974               157.5979
 Red. masses --     62.9737                 7.8090                 5.2164
 Frc consts  --      0.3428                 0.0680                 0.0763
 IR Inten    --      1.2097                 1.5086                 4.4830

                      7                      8                      9
                      A                      A                      A
 Frequencies --    182.4604               210.3229               226.1810
 Red. masses --      7.7777                 4.0123                 5.1410
 Frc consts  --      0.1526                 0.1046                 0.1550
 IR Inten    --      0.1217                 0.0514                 1.6633

                     10                     11                     12
                      A                      A                      A
 Frequencies --    231.0758               249.1350               267.5306
 Red. masses --      1.2385                 5.5487                 1.2315
 Frc consts  --      0.0390                 0.2029                 0.0519
 IR Inten    --      0.4573                 1.4637                 0.2873

                     13                     14                     15
                      A                      A                      A
 Frequencies --    288.7639               297.3696               330.2948
 Red. masses --      3.4401                 3.0280                 1.0457
 Frc consts  --      0.1690                 0.1578                 0.0672
 IR Inten    --      0.0360                 1.0510                 0.0869

                     16                     17                     18
                      A                      A                      A
 Frequencies --    345.5763               372.4394               417.0178
 Red. masses --      4.7627                 2.8618                 2.6469
 Frc consts  --      0.3351                 0.2339                 0.2712
 IR Inten    --     11.0417                 0.1556                 0.8487

                     19                     20                     21
                      A                      A                      A
 Frequencies --    423.7203               477.7827               486.1174
 Red. masses --      4.5883                 6.8078                 5.2746
 Frc consts  --      0.4854                 0.9156                 0.7344
 IR Inten    --      0.0015                 0.0932                18.6022

                     22                     23                     24
                      A                      A                      A
 Frequencies --    537.4236               566.2836               673.0360
 Red. masses --      4.5545                 4.2335                 6.4184
 Frc consts  --      0.7750                 0.7999                 1.7130
 IR Inten    --      0.1183                 2.4789                 3.4227

                     25                     26                     27
                      A                      A                      A
 Frequencies --    686.1742               723.7671               760.8716
 Red. masses --      5.7266                 7.6063                 8.3243
 Frc consts  --      1.5886                 2.3476                 2.8394
 IR Inten    --      1.7975                19.8918                 5.2694

                     28                     29                     30
                      A                      A                      A
 Frequencies --    820.0409               836.5689               884.8195
 Red. masses --      3.5127                 7.2198                 1.5196
 Frc consts  --      1.3917                 2.9770                 0.7010
 IR Inten    --     29.4404                72.7998                14.0573

                     31                     32                     33
                      A                      A                      A
 Frequencies --    926.6956               932.7111               953.5554
 Red. masses --      1.7715                 1.7576                 4.7659
 Frc consts  --      0.8963                 0.9009                 2.5532
 IR Inten    --      0.4658                 3.5549                 0.2524

                     34                     35                     36
                      A                      A                      A
 Frequencies --    959.3833              1035.8312              1048.8027
 Red. masses --      1.2028                 1.7081                 1.3778
 Frc consts  --      0.6523                 1.0798                 0.8929
 IR Inten    --      0.2210                47.1197                 0.0651

                     37                     38                     39
                      A                      A                      A
 Frequencies --   1071.4552              1122.6051              1216.1196
 Red. masses --      2.6135                 7.8720                 2.6811
 Frc consts  --      1.7677                 5.8451                 2.3362
 IR Inten    --     98.2147                18.1107                 4.1337

                     40                     41                     42
                      A                      A                      A
 Frequencies --   1222.9525              1263.8462              1282.5371
 Red. masses --      2.4770                 2.9374                 1.8133
 Frc consts  --      2.1827                 2.7644                 1.7574
 IR Inten    --     12.9954                31.7481                32.8864

                     43                     44                     45
                      A                      A                      A
 Frequencies --   1357.6689              1377.5743              1385.5094
 Red. masses --      4.0239                 1.2095                 1.3098
 Frc consts  --      4.3700                 1.3524                 1.4814
 IR Inten    --     31.4907                11.4498                14.1889

                     46                     47                     48
                      A                      A                      A
 Frequencies --   1412.9488              1447.3552              1472.5092
 Red. masses --      1.2459                 8.0418                 1.0466
 Frc consts  --      1.4655                 9.9256                 1.3370
 IR Inten    --     27.4714                 4.4820                 0.1526

                     49                     50                     51
                      A                      A                      A
 Frequencies --   1488.9217              1496.4397              1497.0802
 Red. masses --      1.1918                 1.0465                 1.0645
 Frc consts  --      1.5566                 1.3807                 1.4056
 IR Inten    --     63.5928                 1.0717                 1.9966

                     52                     53                     54
                      A                      A                      A
 Frequencies --   1511.4415              1521.7672              1525.4480
 Red. masses --      1.0511                 4.0740                 3.1197
 Frc consts  --      1.4148                 5.5586                 4.2771
 IR Inten    --      3.7135               164.7238                56.2562

                     55                     56                     57
                      A                      A                      A
 Frequencies --   1533.4703              1610.5879              2998.6841
 Red. masses --      1.4651                 7.2191                 1.0419
 Frc consts  --      2.0298                11.0333                 5.5201
 IR Inten    --     58.8333                60.3538                45.7995

                     58                     59                     60
                      A                      A                      A
 Frequencies --   3002.8314              3015.1262              3056.7394
 Red. masses --      1.0406                 1.0362                 1.0979
 Frc consts  --      5.5285                 5.5501                 6.0438
 IR Inten    --     79.7646               101.2401                27.5731

                     61                     62                     63
                      A                      A                      A
 Frequencies --   3058.8809              3071.4465              3082.9980
 Red. masses --      1.0979                 1.0999                 1.1017
 Frc consts  --      6.0523                 6.1137                 6.1696
 IR Inten    --     25.7051                95.6337                40.9944

                     64                     65                     66
                      A                      A                      A
 Frequencies --   3125.5984              3128.0726              3189.7853
 Red. masses --      1.0971                 1.0964                 1.0880
 Frc consts  --      6.3147                 6.3209                 6.5223
 IR Inten    --      0.0852                10.1672                10.3908

 - Thermochemistry -
 -------------------
 Temperature   298.150 Kelvin.  Pressure   1.00000 Atm.
 Atom     1 has atomic number  6 and mass  12.00000

 Molecular mass:   415.86888 amu.
 Principal axes and moments of inertia in atomic units:
                           1         2         3
     Eigenvalues --  4474.690708206.12331**********
           X            0.89703  -0.42812   0.10975
           Y            0.42958   0.78623  -0.44419
           Z            0.10388   0.44560   0.88918
 This molecule is an asymmetric top.
 Rotational symmetry number  1.
 Warning -- assumption of classical behavior for rotation
           may cause significant error
 Rotational temperatures (Kelvin)      0.01936     0.01055     0.00705
 Rotational constants (GHZ):           0.40332     0.21993     0.14696
 Zero-point vibrational energy     456053.7 (Joules/Mol)
                                  108.99944 (Kcal/Mol)
 Warning -- explicit consideration of  23 degrees of freedom as
           vibrations may cause significant error
 Vibrational temperatures:     60.11    65.26   120.29   138.30   174.95
          (Kelvin)            226.75   262.52   302.61   325.42   332.47
                              358.45   384.92   415.47   427.85   475.22
                              497.21   535.86   600.00   609.64   687.42
                              699.41   773.23   814.76   968.35   987.25
                             1041.34  1094.72  1179.86  1203.64  1273.06
                             1333.31  1341.96  1371.95  1380.34  1490.33
                             1508.99  1541.59  1615.18  1749.72  1759.56
                             1818.39  1845.28  1953.38  1982.02  1993.44
                             2032.92  2082.42  2118.61  2142.23  2153.04
                             2153.96  2174.63  2189.48  2194.78  2206.32
                             2317.28  4314.44  4320.40  4338.09  4397.97
                             4401.05  4419.13  4435.75  4497.04  4500.60
                             4589.39

 Zero-point correction=                           0.173702 (Hartree/Particle)
 Thermal correction to Energy=                    0.188627
 Thermal correction to Enthalpy=                  0.189571
 Thermal correction to Gibbs Free Energy=         0.128782
 Sum of electronic and zero-point Energies=          -1133.166332
 Sum of electronic and thermal Energies=             -1133.151406
 Sum of electronic and thermal Enthalpies=           -1133.150462
 Sum of electronic and thermal Free Energies=        -1133.211252

                     E (Thermal)             CV                S
                      KCal/Mol        Cal/Mol-Kelvin    Cal/Mol-Kelvin
 Total                  118.365             54.112            127.942
 Electronic               0.000              0.000              1.377
 Translational            0.889              2.981             43.966
 Rotational               0.889              2.981             34.466
 Vibrational            116.588             48.150             48.133
 Vibration     1          0.594              1.980              5.173
 Vibration     2          0.595              1.979              5.010
 Vibration     3          0.601              1.960              3.804
 Vibration     4          0.603              1.952              3.531
 Vibration     5          0.609              1.931              3.075
 Vibration     6          0.621              1.894              2.578
 Vibration     7          0.630              1.864              2.303
 Vibration     8          0.642              1.825              2.041
 Vibration     9          0.650              1.801              1.909
 Vibration    10          0.653              1.793              1.871
 Vibration    11          0.662              1.764              1.737
 Vibration    12          0.673              1.733              1.612
 Vibration    13          0.685              1.695              1.481
 Vibration    14          0.691              1.679              1.432
 Vibration    15          0.713              1.615              1.259
 Vibration    16          0.724              1.584              1.186
 Vibration    17          0.744              1.529              1.070
 Vibration    18          0.780              1.433              0.902
 Vibration    19          0.786              1.419              0.879
 Vibration    20          0.834              1.299              0.716
 Vibration    21          0.842              1.281              0.694
 Vibration    22          0.892              1.167              0.571
 Vibration    23          0.922              1.104              0.511

                           ! Non-Optimized Parameters !
 Normal termination of Gaussian 16 at Thu Dec 21 05:55:49 2023.
