 Gaussian 16, Revision A.03,
 Gaussian 16:  ES64L-G16RevA.03 25-Dec-2016

 ----------------------------------------------------------------
 #P UB3LYP/6-311++G(d,p) SCRF=(PCM,Solvent=n,n-DiMethylFormamide)
 ----------------------------------------------------------------

 ------------------
 Quinone PCM in DMF
 ------------------
 Symbolic Z-matrix:
 Charge =  0 Multiplicity = 1

                         Standard orientation:
 ---------------------------------------------------------------------
 Center     Atomic      Atomic             Coordinates (Angstroms)
 Number     Number       Type             X           Y           Z
 ---------------------------------------------------------------------
      1          6           0        4.225702    0.150393    0.010778
      2          6           0        2.747933   -0.149099   -0.005180
      3          6           0        2.288071   -1.475720   -0.007108
      4          6           0        0.930796   -1.767322   -0.004055
      5          6           0       -0.009880   -0.733145   -0.000690
      6          6           0       -1.463286   -1.053540    0.000862
      7          8           0       -1.869109   -2.205079    0.001415
      8          6           0       -2.437789    0.086699    0.002105
      9          6           0       -1.986050    1.354623    0.001192
     10          6           0       -0.553022    1.714886   -0.001676
     11          8           0       -0.207493    2.886938   -0.004106
     12          6           0        0.435712    0.597485   -0.001252
     13          6           0        1.802818    0.877886   -0.004182
     14          6           0       -3.892063   -0.272676    0.004180
     15          1           0        4.657332   -0.076252    0.991374
     16          1           0        4.421578    1.202098   -0.203853
     17          1           0        4.760240   -0.454921   -0.726210
     18          1           0        3.008012   -2.287968   -0.012437
     19          1           0        0.578305   -2.791584   -0.006240
     20          1           0       -2.668850    2.198580    0.001969
     21          1           0        2.112335    1.916787   -0.006995
     22          1           0       -4.134893   -0.882923    0.878462
     23          1           0       -4.137479   -0.882233   -0.869866
     24          1           0       -4.517410    0.620728    0.005478
 ---------------------------------------------------------------------

 SCF Done:  E(UB3LYP) =  -613.928509548     A.U. after   15 cycles

 The electronic state is 1-A.
 Alpha  occ. eigenvalues --  -19.13678 -19.13485 -10.28430 -10.28301 -10.22126
 Alpha  occ. eigenvalues --  -10.20847 -10.20706 -10.20532 -10.20357 -10.19786
 Alpha  occ. eigenvalues --  -10.19477 -10.19472 -10.17853 -10.17459  -1.06987
 Alpha  occ. eigenvalues --   -1.06654  -0.89214  -0.84940  -0.80059  -0.77963
 Alpha  occ. eigenvalues --   -0.73377  -0.71686  -0.66951  -0.64856  -0.61167
 Alpha  occ. eigenvalues --   -0.58614  -0.54480  -0.52143  -0.50393  -0.46867
 Alpha  occ. eigenvalues --   -0.46287  -0.46149  -0.46098  -0.45026  -0.43395
 Alpha  occ. eigenvalues --   -0.42923  -0.42409  -0.41222  -0.40984  -0.40308
 Alpha  occ. eigenvalues --   -0.39208  -0.37589  -0.36772  -0.36436  -0.29877
 Alpha  occ. eigenvalues --   -0.28960  -0.27900  -0.27704  -0.26914
 Alpha virt. eigenvalues --   -0.12574  -0.05530  -0.03186  -0.00738   0.00126
 Alpha virt. eigenvalues --    0.01086   0.01967   0.02195   0.02439   0.02912
 Alpha virt. eigenvalues --    0.03827   0.04059   0.04403   0.05086   0.05910

  Beta  occ. eigenvalues --  -19.13678 -19.13485 -10.28430 -10.28301 -10.22126
  Beta  occ. eigenvalues --  -10.20847 -10.20706 -10.20532 -10.20357 -10.19786
  Beta  occ. eigenvalues --  -10.19477 -10.19472 -10.17853 -10.17459  -1.06987
  Beta  occ. eigenvalues --   -1.06654  -0.89214  -0.84940  -0.80059  -0.77963
  Beta  occ. eigenvalues --   -0.73377  -0.71686  -0.66951  -0.64856  -0.61167
  Beta  occ. eigenvalues --   -0.58614  -0.54480  -0.52143  -0.50393  -0.46867
  Beta  occ. eigenvalues --   -0.46287  -0.46149  -0.46098  -0.45026  -0.43395
  Beta  occ. eigenvalues --   -0.42923  -0.42409  -0.41222  -0.40984  -0.40308
  Beta  occ. eigenvalues --   -0.39208  -0.37589  -0.36772  -0.36436  -0.29877
  Beta  occ. eigenvalues --   -0.28960  -0.27900  -0.27704  -0.26914
  Beta virt. eigenvalues --   -0.12574  -0.05530  -0.03186  -0.00738   0.00126
  Beta virt. eigenvalues --    0.01086   0.01967   0.02195   0.02439   0.02912
  Beta virt. eigenvalues --    0.03827   0.04059   0.04403   0.05086   0.05910

 Mulliken charges and spin densities:
               1          2
     1  C   -0.388992  -0.000000
     2  C    0.485877  -0.000000
     3  C   -0.470851   0.000000
     4  C    0.097991  -0.000000
     5  C   -0.201114  -0.000000
     6  C   -0.464332   0.000000
     7  O   -0.275257   0.000000
     8  C    0.753994  -0.000000
     9  C   -0.430359   0.000000
    10  C   -0.857872   0.000000
    11  O   -0.293944   0.000000
    12  C    0.605355  -0.000000
    13  C   -0.148349   0.000000
    14  C   -0.230759   0.000000
    15  H    0.183937  -0.000000
    16  H    0.174842   0.000000
    17  H    0.161600  -0.000000
    18  H    0.202497   0.000000
    19  H    0.186283  -0.000000
    20  H    0.200187   0.000000
    21  H    0.153078   0.000000
    22  H    0.189528   0.000000
    23  H    0.190062   0.000000
    24  H    0.176598   0.000000
 Sum of Mulliken charges =  -0.00000  -0.00000

 Dipole moment (field-independent basis, Debye):
    X=              1.7826    Y=             -1.0982    Z=              0.0415  Tot=              2.0942
 Quadrupole moment (field-independent basis, Debye-Ang):
   XX=            -61.2710   YY=            -97.2798   ZZ=            -82.6025
   XY=             -8.6408   XZ=              0.1268   YZ=              0.0469

 Normal termination of Gaussian 16 at Sun Jan 21 07:53:53 2024.
