 Q-Chem 5.4, Q-Chem, Inc., Pleasanton, CA (2021)
 Q-Chem 5.4.0 for Intel X86 EM64T Linux

User input:
--------------------------------------------------------------
$molecule
-2 1
C                  3.8827580000      0.6176390000      0.0056110000
O                  2.6921660000      1.2485270000     -0.3978250000
C                  1.4968960000      0.5473360000     -0.2489370000
C                  1.4768040000     -0.8500900000     -0.1464000000
C                  0.2905000000     -1.6304550000     -0.0323060000
O                  0.2973320000     -2.9137350000      0.0661380000
C                 -0.9399450000     -0.8469520000     -0.0291550000
C                 -2.1889880000     -1.4943200000      0.0860500000
C                 -3.3845520000     -0.7958440000      0.0910600000
C                 -3.3633190000      0.6192280000     -0.0258310000
C                 -2.1545710000      1.2809570000     -0.1376270000
C                 -0.9149210000      0.5947520000     -0.1414790000
C                  0.3166890000      1.3657040000     -0.2535730000
O                  0.3281130000      2.6440120000     -0.3568810000
H                  3.8139580000      0.2201870000      1.0320860000
H                  4.6768570000      1.3707280000     -0.0276940000
H                  4.1697140000     -0.2091380000     -0.6587040000
H                  2.4065340000     -1.4097560000     -0.1416950000
H                 -2.1653720000     -2.5770020000      0.1717500000
H                 -4.3321110000     -1.3247540000      0.1815420000
H                 -4.2966870000      1.1808480000     -0.0279850000
H                 -2.1078520000      2.3621290000     -0.2282390000
$end
$rem
MAX_SCF_CYCLES=200
BASIS  =  6-311++G(d,p)
GUI  =  2
JOB_TYPE  =  SP
METHOD  =  B3LYP
SOLVENT_METHOD = COSMO
$end
$solvent
dielectric 37.219
opticaldielectric 1.43
$end

--------------------------------------------------------------

             Standard Nuclear Orientation (Angstroms)
    I     Atom           X                Y                Z
 ----------------------------------------------------------------
    1      C       3.9583476666    -0.1861701163     0.2291679618
    2      O       2.9214500189     0.6857874070    -0.1487512500
    3      C       1.6115228616     0.2153134986    -0.0762807585
    4      C       1.3260740736    -1.1566286877    -0.0795330330
    5      C       0.0112454053    -1.7038997415    -0.0475311408
    6      O      -0.2262105376    -2.9688728566    -0.0457566483
    7      C      -1.0496666918    -0.7034535801    -0.0093895824
    8      C      -2.4011558595    -1.1086548524     0.0325018706
    9      C      -3.4438489964    -0.1982246893     0.0667807443
   10      C      -3.1534898045     1.1917898370     0.0570715769
   11      C      -1.8389744408     1.6184580403     0.0188754338
   12      C      -0.7507390224     0.7116033340    -0.0124690746
   13      C       0.6067312115     1.2409233491    -0.0423041026
   14      O       0.8613370183     2.4979063045    -0.0489468936
   15      H       3.7820212646    -0.6343947854     1.2213151807
   16      H       4.8803541167     0.4030997223     0.2680350447
   17      H       4.1069688912    -1.0036702807    -0.4897364725
   18      H       2.1335411427    -1.8813835537    -0.0988555032
   19      H      -2.5840570050    -2.1794627781     0.0369824797
   20      H      -4.4763243908    -0.5428557983     0.0987932022
   21      H      -3.9642463175     1.9189692602     0.0790135590
   22      H      -1.5871481184     2.6747930240     0.0107514724
 ----------------------------------------------------------------

   15    -649.7826966027      4.02e-06  Convergence criterion met
 Total energy in the final basis set =     -649.7826966027
    6    -650.0784701677      3.71e-06  Convergence criterion met
 Total energy in the final basis set =     -650.0784701677

                    Orbital Energies (a.u.)
 --------------------------------------------------------------

 Alpha MOs
 -- Occupied --
-19.1261 -19.0252 -19.0222 -10.2009 -10.1845 -10.1778 -10.1724 -10.1501
-10.1481 -10.1469 -10.1452 -10.1397 -10.1375 -10.1235  -1.0371  -0.9425
 -0.9390  -0.8259  -0.7674  -0.7234  -0.7130  -0.6837  -0.6323  -0.5888
 -0.5721  -0.5319  -0.4937  -0.4859  -0.4581  -0.4462  -0.4324  -0.4220
 -0.4025  -0.3932  -0.3770  -0.3745  -0.3687  -0.3619  -0.3350  -0.3271
 -0.3240  -0.3166  -0.3046  -0.2877  -0.2317  -0.2282  -0.2079  -0.2050
 -0.2025  -0.1133

          Ground-State Mulliken Net Atomic Charges

     Atom                 Charge (a.u.)
  ----------------------------------------
      1 C                    -0.335912
      2 O                    -0.245948
      3 C                    -0.319153
      4 C                     0.591703
      5 C                    -0.587611
      6 O                    -0.743413
      7 C                     0.491934
      8 C                    -0.004687
      9 C                    -0.505362
     10 C                    -0.527765
     11 C                    -0.037310
     12 C                     0.435661
     13 C                    -0.755628
     14 O                    -0.759606
     15 H                     0.160299
     16 H                     0.173870
     17 H                     0.149820
     18 H                     0.153372
     19 H                     0.152452
     20 H                     0.179137
     21 H                     0.181368
     22 H                     0.152778
  ----------------------------------------
  Sum of atomic charges =    -2.000000

                    Cartesian Multipole Moments
 -----------------------------------------------------------------
    Charge (ESU x 10^10)
                -9.6064
    Dipole Moment (Debye)
         X      -0.4607      Y       0.1419      Z       0.9285
       Tot       1.0462
    Quadrupole Moments (Debye-Ang)
        XX     -95.1979     XY     -15.2123     YY    -149.3141
        XZ       2.1101     YZ       0.2491     ZZ     -92.5591

 Total job time:  45.12s(wall), 333.82s(cpu)
        *  Thank you very much for using Q-Chem.  Have a nice day.  *
