 Gaussian 16, Revision A.03,
 Gaussian 16:  ES64L-G16RevA.03 25-Dec-2016

 --------------------------------------
 #P UB3LYP/6-311++G(d,p) nosym opt freq
 --------------------------------------

 --------
 Oxidized
 --------
 Symbolic Z-matrix:
 Charge =  0 Multiplicity = 1

 SCF Done:  E(UB3LYP) =  -798.713532061     A.U. after   17 cycles
 SCF Done:  E(UB3LYP) =  -798.726918130     A.U. after   16 cycles
 SCF Done:  E(UB3LYP) =  -798.727655735     A.U. after   13 cycles
 SCF Done:  E(UB3LYP) =  -798.727756048     A.U. after   12 cycles
 SCF Done:  E(UB3LYP) =  -798.727697628     A.U. after   12 cycles
 SCF Done:  E(UB3LYP) =  -798.727758429     A.U. after   11 cycles
 SCF Done:  E(UB3LYP) =  -798.727768146     A.U. after   12 cycles
 SCF Done:  E(UB3LYP) =  -798.727768333     A.U. after   10 cycles
 Optimization completed.
    -- Stationary point found.
 Normal termination of Gaussian 16 at Tue Dec 26 20:52:24 2023.

 ----------------------------------------------------------------------
 #P Geom=AllCheck Guess=TCheck SCRF=Check GenChk UB3LYP/6-311++G(d,p) F
 req
 ----------------------------------------------------------------------

 Structure from the checkpoint file:  "275.chk"
 --------
 Oxidized
 --------
 Charge =  0 Multiplicity = 1

                          Input orientation:
 ---------------------------------------------------------------------
 Center     Atomic      Atomic             Coordinates (Angstroms)
 Number     Number       Type             X           Y           Z
 ---------------------------------------------------------------------
      1          6           0        0.297444   -0.535650   -0.134666
      2          6           0       -0.266323   -1.704792   -0.528998
      3          6           0       -1.717177   -1.892166   -0.551706
      4          8           0       -2.212511   -2.952522   -0.909676
      5          6           0       -2.589805   -0.749270   -0.123581
      6          6           0       -3.976405   -0.891697   -0.131946
      7          6           0       -4.788576    0.167836    0.265027
      8          6           0       -4.220992    1.377079    0.673088
      9          6           0       -2.838679    1.528221    0.684646
     10          6           0       -2.019640    0.466736    0.286825
     11          6           0       -0.550596    0.631247    0.300843
     12          8           0       -0.003814    1.669043    0.649282
     13          1           0        0.340843   -2.541518   -0.841287
     14          1           0       -4.396460   -1.837345   -0.451805
     15          1           0       -5.866589    0.052649    0.256988
     16          1           0       -4.857260    2.198722    0.981134
     17          1           0       -2.377224    2.456753    0.997290
     18          7           0        1.636750   -0.226997   -0.066111
     19          6           0        2.721384   -1.052225   -0.385606
     20          7           0        3.931376   -0.436754   -0.204105
     21          6           0        5.189307   -1.113699   -0.476428
     22          8           0        2.591321   -2.195787   -0.782384
     23          1           0        1.797321    0.720104    0.262587
     24          1           0        3.960780    0.513969    0.127923
     25          1           0        4.958110   -2.119484   -0.822095
     26          1           0        5.801968   -1.182117    0.426726
     27          1           0        5.754792   -0.593482   -1.254451
 ---------------------------------------------------------------------

 SCF Done:  E(UB3LYP) =  -798.727768333     A.U. after    1 cycles

 Alpha  occ. eigenvalues --  -19.14731 -19.11754 -19.10377 -14.37415 -14.35888
 Alpha  occ. eigenvalues --  -10.32240 -10.29518 -10.27005 -10.25709 -10.21577
 Alpha  occ. eigenvalues --  -10.21273 -10.20933 -10.20490 -10.20454 -10.20336
 Alpha  occ. eigenvalues --  -10.19920 -10.19008  -1.08480  -1.07357  -1.04911
 Alpha  occ. eigenvalues --   -0.97034  -0.94044  -0.89363  -0.83083  -0.78258
 Alpha  occ. eigenvalues --   -0.77803  -0.73518  -0.69774  -0.65816  -0.65452
 Alpha  occ. eigenvalues --   -0.61316  -0.60233  -0.59012  -0.55890  -0.52715
 Alpha  occ. eigenvalues --   -0.52196  -0.49645  -0.48393  -0.48078  -0.46787
 Alpha  occ. eigenvalues --   -0.46155  -0.46048  -0.45518  -0.44429  -0.43435
 Alpha  occ. eigenvalues --   -0.42965  -0.42667  -0.41471  -0.40918  -0.38909
 Alpha  occ. eigenvalues --   -0.38462  -0.37349  -0.35056  -0.29942  -0.29285
 Alpha  occ. eigenvalues --   -0.29015  -0.28153  -0.28132  -0.26728  -0.25227
 Alpha virt. eigenvalues --   -0.12329  -0.05784  -0.03322  -0.02449  -0.00920
 Alpha virt. eigenvalues --    0.00081   0.01233   0.01451   0.02014   0.02270
 Alpha virt. eigenvalues --    0.03171   0.03547   0.03818   0.04357   0.04461

  Beta  occ. eigenvalues --  -19.14731 -19.11754 -19.10377 -14.37415 -14.35888
  Beta  occ. eigenvalues --  -10.32240 -10.29518 -10.27005 -10.25709 -10.21577
  Beta  occ. eigenvalues --  -10.21273 -10.20933 -10.20490 -10.20454 -10.20336
  Beta  occ. eigenvalues --  -10.19920 -10.19008  -1.08480  -1.07357  -1.04911
  Beta  occ. eigenvalues --   -0.97034  -0.94044  -0.89363  -0.83083  -0.78258
  Beta  occ. eigenvalues --   -0.77803  -0.73518  -0.69774  -0.65816  -0.65452
  Beta  occ. eigenvalues --   -0.61316  -0.60233  -0.59012  -0.55890  -0.52715
  Beta  occ. eigenvalues --   -0.52196  -0.49645  -0.48393  -0.48078  -0.46787
  Beta  occ. eigenvalues --   -0.46155  -0.46048  -0.45518  -0.44429  -0.43435
  Beta  occ. eigenvalues --   -0.42965  -0.42667  -0.41471  -0.40918  -0.38909
  Beta  occ. eigenvalues --   -0.38462  -0.37349  -0.35056  -0.29942  -0.29285
  Beta  occ. eigenvalues --   -0.29015  -0.28153  -0.28132  -0.26728  -0.25227
  Beta virt. eigenvalues --   -0.12329  -0.05784  -0.03322  -0.02449  -0.00920
  Beta virt. eigenvalues --    0.00081   0.01233   0.01451   0.02014   0.02270
  Beta virt. eigenvalues --    0.03171   0.03547   0.03818   0.04357   0.04461

 Mulliken charges and spin densities:
               1          2
     1  C    0.529256  -0.000000
     2  C    0.224865   0.000000
     3  C   -0.315019   0.000000
     4  O   -0.236893  -0.000000
     5  C    0.777544  -0.000000
     6  C    0.202888  -0.000000
     7  C   -0.266331   0.000000
     8  C   -0.366490  -0.000000
     9  C    0.141600  -0.000000
    10  C   -0.378998   0.000000
    11  C   -1.236465   0.000000
    12  O   -0.227923  -0.000000
    13  H    0.283033   0.000000
    14  H    0.180488   0.000000
    15  H    0.180744   0.000000
    16  H    0.175910  -0.000000
    17  H    0.184594   0.000000
    18  N   -0.245931   0.000000
    19  C    0.103482   0.000000
    20  N   -0.219150  -0.000000
    21  C   -0.229344  -0.000000
    22  O   -0.353842  -0.000000
    23  H    0.350415  -0.000000
    24  H    0.242220   0.000000
    25  H    0.200819   0.000000
    26  H    0.149279  -0.000000
    27  H    0.149253  -0.000000
 Sum of Mulliken charges =  -0.00000   0.00000

 Dipole moment (field-independent basis, Debye):
    X=              1.4263    Y=              4.5286    Z=              1.5516  Tot=              4.9951
 Quadrupole moment (field-independent basis, Debye-Ang):
   XX=            -67.5065   YY=           -114.6740   ZZ=           -101.7592
   XY=             -3.0310   XZ=             -1.9420   YZ=             -4.6778

  Exact polarizability: 256.495   4.073 170.690  -3.600  29.715  96.356
 Approx polarizability: 347.492  53.410 332.981  12.431  68.394 157.542

 ******    1 imaginary frequencies (negative Signs) ******

                      1                      2                      3
                      A                      A                      A
 Frequencies --    -47.0463                32.6766                51.3764
 Red. masses --      1.1258                 5.2809                 7.4797
 Frc consts  --      0.0015                 0.0033                 0.0116
 IR Inten    --      4.0537                 1.0695                 4.7001

                      4                      5                      6
                      A                      A                      A
 Frequencies --     77.2674                98.2136               119.9997
 Red. masses --      5.6949                 4.8607                 4.6222
 Frc consts  --      0.0200                 0.0276                 0.0392
 IR Inten    --      4.8704                 3.3150                 0.5598

                      7                      8                      9
                      A                      A                      A
 Frequencies --    129.1745               170.2283               208.7564
 Red. masses --      3.5323                 6.6957                 5.1535
 Frc consts  --      0.0347                 0.1143                 0.1323
 IR Inten    --     15.6629                 0.2390                 0.0004

                     10                     11                     12
                      A                      A                      A
 Frequencies --    237.6198               255.3511               292.9755
 Red. masses --      5.7696                 5.9433                 5.9385
 Frc consts  --      0.1919                 0.2283                 0.3003
 IR Inten    --      0.9011                 0.9395                 3.5782

                     13                     14                     15
                      A                      A                      A
 Frequencies --    336.9454               368.6989               392.1782
 Red. masses --      1.0984                 6.2687                10.6816
 Frc consts  --      0.0735                 0.5021                 0.9679
 IR Inten    --     49.2035                32.0332                15.7735

                     16                     17                     18
                      A                      A                      A
 Frequencies --    402.7553               448.2965               462.0204
 Red. masses --      3.7229                 4.7173                 9.9387
 Frc consts  --      0.3558                 0.5586                 1.2500
 IR Inten    --      0.2745                 0.9801                 8.8553

                     19                     20                     21
                      A                      A                      A
 Frequencies --    476.2947               493.0595               581.0362
 Red. masses --      8.3028                 4.0798                 6.8672
 Frc consts  --      1.1097                 0.5844                 1.3660
 IR Inten    --      1.8289                 1.2598                23.5648

                     22                     23                     24
                      A                      A                      A
 Frequencies --    644.2581               652.6574               680.4907
 Red. masses --      1.1805                 6.2230                 4.0198
 Frc consts  --      0.2887                 1.5618                 1.0967
 IR Inten    --    104.9603                 0.2148                 7.6622

                     25                     26                     27
                      A                      A                      A
 Frequencies --    693.9233               722.4841               731.6462
 Red. masses --      6.1324                 6.7064                 3.2121
 Frc consts  --      1.7398                 2.0625                 1.0131
 IR Inten    --      0.8804                 1.1439                42.0305

                     28                     29                     30
                      A                      A                      A
 Frequencies --    757.9651               765.6822               781.9064
 Red. masses --      5.5055                 4.8829                 3.0979
 Frc consts  --      1.8636                 1.6866                 1.1159
 IR Inten    --      0.5764                 2.5695                17.2815

                     31                     32                     33
                      A                      A                      A
 Frequencies --    807.6481               833.8232               913.7264
 Red. masses --      2.3532                 4.1553                 1.3474
 Frc consts  --      0.9044                 1.7022                 0.6628
 IR Inten    --     19.2326                 3.2445                 0.3843

                     34                     35                     36
                      A                      A                      A
 Frequencies --    917.0984               962.9546               998.5589
 Red. masses --      1.3862                 3.7746                 1.3781
 Frc consts  --      0.6869                 2.0622                 0.8096
 IR Inten    --     28.3189                14.9439                 1.1793

                     37                     38                     39
                      A                      A                      A
 Frequencies --   1003.2184              1017.5212              1051.5845
 Red. masses --      5.3796                 1.3259                 2.3440
 Frc consts  --      3.1900                 0.8088                 1.5272
 IR Inten    --     27.0594                 0.2176                 9.9802

                     40                     41                     42
                      A                      A                      A
 Frequencies --   1095.7650              1110.8572              1136.9900
 Red. masses --      3.2553                 3.5213                 1.8334
 Frc consts  --      2.3029                 2.5602                 1.3965
 IR Inten    --     15.6026                44.3914                43.8993

                     43                     44                     45
                      A                      A                      A
 Frequencies --   1150.7454              1169.4896              1183.1001
 Red. masses --      1.2686                 1.6297                 1.1354
 Frc consts  --      0.9898                 1.3133                 0.9363
 IR Inten    --      0.2719                15.6907                33.6440

                     46                     47                     48
                      A                      A                      A
 Frequencies --   1213.5229              1237.3863              1262.0099
 Red. masses --      1.9643                 2.3003                 2.4038
 Frc consts  --      1.7043                 2.0751                 2.2557
 IR Inten    --    550.2792                 3.0931                21.5375

                     49                     50                     51
                      A                      A                      A
 Frequencies --   1287.8039              1319.3743              1347.4427
 Red. masses --      1.7873                 4.6467                 2.7150
 Frc consts  --      1.7464                 4.7657                 2.9043
 IR Inten    --      0.7175               332.8933               106.5808

                     52                     53                     54
                      A                      A                      A
 Frequencies --   1363.8274              1447.0102              1483.6399
 Red. masses --      7.0402                 1.1563                 2.4087
 Frc consts  --      7.7153                 1.4264                 3.1238
 IR Inten    --     46.6136                21.9655                 4.6846

                     55                     56                     57
                      A                      A                      A
 Frequencies --   1496.5643              1501.5288              1506.5484
 Red. masses --      1.1738                 1.0410                 2.6201
 Frc consts  --      1.5490                 1.3829                 3.5038
 IR Inten    --    149.8298                 7.9769                 9.2340

                     58                     59                     60
                      A                      A                      A
 Frequencies --   1546.3871              1566.3678              1612.4660
 Red. masses --      1.9668                 1.6128                 6.5723
 Frc consts  --      2.7711                 2.3314                10.0681
 IR Inten    --    736.6174               486.8755                 7.8591

                     61                     62                     63
                      A                      A                      A
 Frequencies --   1628.5018              1660.2014              1701.9367
 Red. masses --      5.8901                 6.4152                11.5286
 Frc consts  --      9.2034                10.4179                19.6749
 IR Inten    --     77.9186               145.8921                55.5811

                     64                     65                     66
                      A                      A                      A
 Frequencies --   1712.1036              1767.8344              3026.8165
 Red. masses --     11.7750                 7.9917                 1.0366
 Frc consts  --     20.3363                14.7153                 5.5956
 IR Inten    --    411.3644               191.6091                80.4669

                     67                     68                     69
                      A                      A                      A
 Frequencies --   3077.4573              3146.2061              3170.8376
 Red. masses --      1.1057                 1.0978                 1.0870
 Frc consts  --      6.1698                 6.4024                 6.4392
 IR Inten    --     27.4973                 0.2640                 3.4099

                     70                     71                     72
                      A                      A                      A
 Frequencies --   3185.1059              3199.6654              3202.3312
 Red. masses --      1.0916                 1.0926                 1.0952
 Frc consts  --      6.5246                 6.5907                 6.6171
 IR Inten    --      9.1156                 0.4142                10.1964

                     73                     74                     75
                      A                      A                      A
 Frequencies --   3236.1236              3525.0565              3634.7150
 Red. masses --      1.0918                 1.0760                 1.0775
 Frc consts  --      6.7366                 7.8773                 8.3869
 IR Inten    --      8.5526                76.5864                36.8308

 - Thermochemistry -
 -------------------
 Temperature   298.150 Kelvin.  Pressure   1.00000 Atm.
 Atom     1 has atomic number  6 and mass  12.00000

 Molecular mass:   230.06914 amu.
 Principal axes and moments of inertia in atomic units:
                           1         2         3
     Eigenvalues --  1554.576747165.308268708.45480
           X            0.98529   0.16864   0.02760
           Y           -0.15014   0.93145  -0.33145
           Z           -0.08160   0.32243   0.94307
 This molecule is an asymmetric top.
 Rotational symmetry number  1.
 Warning -- assumption of classical behavior for rotation
           may cause significant error
 Rotational temperatures (Kelvin)      0.05572     0.01209     0.00995
 Rotational constants (GHZ):           1.16092     0.25187     0.20724
    1 imaginary frequencies ignored.
 Zero-point vibrational energy     535243.9 (Joules/Mol)
                                  127.92636 (Kcal/Mol)
 Warning -- explicit consideration of  20 degrees of freedom as
           vibrations may cause significant error
 Vibrational temperatures:     47.01    73.92   111.17   141.31   172.65
          (Kelvin)            185.85   244.92   300.35   341.88   367.39
                              421.53   484.79   530.48   564.26   579.48
                              645.00   664.74   685.28   709.40   835.98
                              926.94   939.03   979.07   998.40  1039.49
                             1052.68  1090.54  1101.65  1124.99  1162.03
                             1199.69  1314.65  1319.50  1385.48  1436.70
                             1443.41  1463.99  1513.00  1576.56  1598.28
                             1635.87  1655.67  1682.63  1702.22  1745.99
                             1780.32  1815.75  1852.86  1898.29  1938.67
                             1962.24  2081.92  2134.63  2153.22  2160.36
                             2167.59  2224.91  2253.65  2319.98  2343.05
                             2388.66  2448.71  2463.34  2543.52  4354.91
                             4427.77  4526.69  4562.13  4582.66  4603.60
                             4607.44  4656.06  5071.77  5229.54

 Zero-point correction=                           0.203864 (Hartree/Particle)
 Thermal correction to Energy=                    0.218026
 Thermal correction to Enthalpy=                  0.218971
 Thermal correction to Gibbs Free Energy=         0.161664
 Sum of electronic and zero-point Energies=           -798.523905
 Sum of electronic and thermal Energies=              -798.509742
 Sum of electronic and thermal Enthalpies=            -798.508798
 Sum of electronic and thermal Free Energies=         -798.566104

                     E (Thermal)             CV                S
                      KCal/Mol        Cal/Mol-Kelvin    Cal/Mol-Kelvin
 Total                  136.814             53.666            120.612
 Electronic               0.000              0.000              0.000
 Translational            0.889              2.981             42.202
 Rotational               0.889              2.981             32.939
 Vibrational            135.036             47.704             45.471
 Vibration     1          0.594              1.983              5.660
 Vibration     2          0.596              1.977              4.764
 Vibration     3          0.599              1.964              3.959
 Vibration     4          0.604              1.950              3.489
 Vibration     5          0.609              1.933              3.100
 Vibration     6          0.612              1.924              2.958
 Vibration     7          0.625              1.879              2.433
 Vibration     8          0.642              1.827              2.055
 Vibration     9          0.656              1.783              1.821
 Vibration    10          0.666              1.754              1.693
 Vibration    11          0.688              1.687              1.457
 Vibration    12          0.718              1.602              1.227
 Vibration    13          0.741              1.537              1.085
 Vibration    14          0.760              1.487              0.992
 Vibration    15          0.768              1.464              0.953
 Vibration    16          0.807              1.365              0.801
 Vibration    17          0.820              1.334              0.760
 Vibration    18          0.833              1.303              0.720
 Vibration    19          0.849              1.265              0.676
 Vibration    20          0.938              1.072              0.483

                           ! Non-Optimized Parameters !
 Normal termination of Gaussian 16 at Tue Dec 26 21:43:23 2023.
