 Q-Chem 5.4, Q-Chem, Inc., Pleasanton, CA (2021)
 Q-Chem 5.4.0 for Intel X86 EM64T Linux

User input:
--------------------------------------------------------------
$molecule
-1 2
C                  5.7258200000     -5.2348820000      1.1210680000
C                  6.6628240000     -5.1070330000      0.1161860000
C                  6.5391410000     -4.0718940000     -0.8357440000
C                  4.6398730000     -4.3458680000      1.2164740000
C                  4.5167870000     -3.3057600000      0.2589670000
C                  5.4798000000     -3.1904020000     -0.7573990000
C                  3.6630590000     -4.5164050000      2.3027600000
C                  2.5734940000     -3.5625690000      2.3327640000
C                  2.4697230000     -2.5572650000      1.3933850000
C                  3.3980780000     -2.3490090000      0.3152050000
O                  3.7723730000     -5.4411260000      3.1514060000
O                  3.2752400000     -1.4222610000     -0.5270380000
H                  5.8013800000     -6.0212250000      1.8613980000
H                  5.3624870000     -2.3881840000     -1.4751310000
Br                 8.1165540000     -6.3707780000      0.0647420000
Br                 7.8124680000     -3.8388040000     -2.2625700000
C                  1.5598180000     -3.7175320000      3.4347450000
H                  1.6408920000     -1.8552430000      1.4409170000
H                  2.0389650000     -3.6559610000      4.4175800000
H                  1.0857520000     -4.7039630000      3.3935460000
H                  0.7854430000     -2.9487630000      3.3683810000
$end
$rem
MAX_SCF_CYCLES=200
BASIS  =  6-311++G(d,p)
GUI  =  2
JOB_TYPE  =  SP
METHOD  =  B3LYP
SOLVENT_METHOD = COSMO
$end
$solvent
dielectric 37.219
opticaldielectric 1.43
$end

--------------------------------------------------------------

             Standard Nuclear Orientation (Angstroms)
    I     Atom           X                Y                Z
 ----------------------------------------------------------------
    1      C       0.3262182802    -1.2875426411    -0.0003701554
    2      C      -0.9266296444    -0.7091986975    -0.0001305598
    3      C      -1.0542633672     0.6967495888    -0.0000411044
    4      C       1.4893760864    -0.4964718726    -0.0005727282
    5      C       1.3596349787     0.9166670852    -0.0005421774
    6      C       0.0764134819     1.4885445553    -0.0002235501
    7      C       2.8059834394    -1.1520713127    -0.0010026101
    8      C       3.9547934527    -0.2699772626    -0.0000622651
    9      C       3.8097790139     1.1021773418    -0.0001736932
   10      C       2.5465577482     1.7891688183    -0.0008257565
   11      O       2.9200804495    -2.4067576861     0.0005748720
   12      O       2.4473660580     3.0435549779    -0.0000059437
   13      H       0.4471012798    -2.3634238732    -0.0004752419
   14      H       0.0053799023     2.5690118200    -0.0001616675
   15      Br     -2.4630294879    -1.8721708986    -0.0000724487
   16      Br     -2.7733673445     1.5663508810     0.0003315356
   17      C       5.3136234897    -0.9176611773     0.0010174743
   18      H       4.6904535192     1.7397251460     0.0002942678
   19      H       5.4365896643    -1.5687130628    -0.8709620182
   20      H       5.4380158211    -1.5630920569     0.8770469117
   21      H       6.1078551309    -0.1664922453    -0.0017989668
 ----------------------------------------------------------------

   11   -5721.7486572511      7.04e-06  Convergence criterion met
 Total energy in the final basis set =    -5721.7486572511
    4   -5721.8244404135      7.61e-06  Convergence criterion met
 Total energy in the final basis set =    -5721.8244404135

                    Orbital Energies (a.u.)
 --------------------------------------------------------------

 Alpha MOs
 -- Occupied --
********-482.8379 -62.4908 -62.4907 -56.3113 -56.3112 -56.3075 -56.3074
-56.3073 -56.3072 -19.0857 -19.0853 -10.2451 -10.2445 -10.2306 -10.2283
-10.1907 -10.1903 -10.1865 -10.1858 -10.1794 -10.1646 -10.1576  -8.6994
 -8.6994  -6.5309  -6.5308  -6.5181  -6.5180  -6.5176  -6.5175  -2.6417
 -2.6417  -2.6382  -2.6381  -2.6379  -2.6378  -2.6276  -2.6276  -2.6275
 -2.6275  -1.0112  -1.0087  -0.8937  -0.8346  -0.8136  -0.8003  -0.7530
 -0.7419  -0.7022  -0.6646  -0.6269  -0.6010  -0.5660  -0.5144  -0.4948
 -0.4859  -0.4491  -0.4443  -0.4363  -0.4355  -0.4234  -0.4095  -0.3978
 -0.3895  -0.3895  -0.3779  -0.3765  -0.3603  -0.3562  -0.3251  -0.3164
 -0.3154  -0.2870  -0.2758  -0.2630  -0.2552  -0.2485  -0.2464  -0.1607

 Beta MOs
 -- Occupied --
********-482.8379 -62.4908 -62.4907 -56.3113 -56.3112 -56.3074 -56.3074
-56.3073 -56.3072 -19.0796 -19.0790 -10.2446 -10.2440 -10.2292 -10.2266
-10.1908 -10.1903 -10.1858 -10.1850 -10.1780 -10.1635 -10.1577  -8.6994
 -8.6993  -6.5309  -6.5308  -6.5180  -6.5179  -6.5176  -6.5174  -2.6417
 -2.6417  -2.6382  -2.6381  -2.6379  -2.6378  -2.6276  -2.6275  -2.6275
 -2.6275  -1.0005  -0.9976  -0.8924  -0.8305  -0.8129  -0.7980  -0.7513
 -0.7401  -0.6982  -0.6582  -0.6258  -0.5979  -0.5627  -0.5129  -0.4919
 -0.4832  -0.4480  -0.4438  -0.4327  -0.4257  -0.4174  -0.4061  -0.3958
 -0.3882  -0.3772  -0.3740  -0.3585  -0.3569  -0.3542  -0.3229  -0.3153
 -0.3083  -0.2868  -0.2575  -0.2519  -0.2494  -0.2433  -0.2408

          Ground-State Mulliken Net Atomic Charges

     Atom                 Charge (a.u.)    Spin (a.u.)
  --------------------------------------------------------
      1 C                    -0.061911       0.021193
      2 C                    -0.075629       0.019991
      3 C                    -0.127929       0.036578
      4 C                     0.244711       0.013298
      5 C                     0.690067       0.069894
      6 C                    -0.045980       0.010979
      7 C                    -0.495663       0.116487
      8 C                     0.832829       0.093924
      9 C                    -0.510042       0.074075
     10 C                    -0.760432       0.089997
     11 O                    -0.487638       0.231294
     12 O                    -0.513827       0.215124
     13 H                     0.222424      -0.002111
     14 H                     0.217010      -0.002193
     15 Br                   -0.228254       0.001622
     16 Br                   -0.234390       0.002044
     17 C                    -0.358708       0.005888
     18 H                     0.171818      -0.008398
     19 H                     0.177954       0.005243
     20 H                     0.178264       0.005312
     21 H                     0.165325      -0.000243
  --------------------------------------------------------
  Sum of atomic charges =    -1.000000

                    Cartesian Multipole Moments
 -----------------------------------------------------------------
    Charge (ESU x 10^10)
                -4.8032
    Dipole Moment (Debye)
         X      -7.8187      Y      -1.6674      Z      -0.0021
       Tot       7.9945
    Quadrupole Moments (Debye-Ang)
        XX    -142.1052     XY      -2.2261     YY    -153.6512
        XZ      -0.0013     YZ       0.0016     ZZ    -116.4799

 Total job time:  66.65s(wall), 497.77s(cpu)
        *  Thank you very much for using Q-Chem.  Have a nice day.  *
