 Gaussian 16, Revision A.03,
 Gaussian 16:  ES64L-G16RevA.03 25-Dec-2016

 --------------------------------------
 #P UB3LYP/6-311++G(d,p) nosym opt freq
 --------------------------------------

 --------
 Oxidized
 --------
 Symbolic Z-matrix:
 Charge =  0 Multiplicity = 1

 SCF Done:  E(UB3LYP) =  -764.185329111     A.U. after   16 cycles
 SCF Done:  E(UB3LYP) =  -764.208030945     A.U. after   13 cycles
 SCF Done:  E(UB3LYP) =  -764.212297522     A.U. after   14 cycles
 SCF Done:  E(UB3LYP) =  -764.213000267     A.U. after   13 cycles
 SCF Done:  E(UB3LYP) =  -764.213080662     A.U. after   12 cycles
 SCF Done:  E(UB3LYP) =  -764.213109248     A.U. after   11 cycles
 SCF Done:  E(UB3LYP) =  -764.213106557     A.U. after   11 cycles
 SCF Done:  E(UB3LYP) =  -764.213107967     A.U. after   11 cycles
 SCF Done:  E(UB3LYP) =  -764.213111095     A.U. after   10 cycles
 SCF Done:  E(UB3LYP) =  -764.213111625     A.U. after    9 cycles
 Optimization completed.
    -- Stationary point found.
 Normal termination of Gaussian 16 at Thu Dec 21 06:36:31 2023.

 ----------------------------------------------------------------------
 #P Geom=AllCheck Guess=TCheck SCRF=Check GenChk UB3LYP/6-311++G(d,p) F
 req
 ----------------------------------------------------------------------

 Structure from the checkpoint file:  "177.chk"
 --------
 Oxidized
 --------
 Charge =  0 Multiplicity = 1

                          Input orientation:
 ---------------------------------------------------------------------
 Center     Atomic      Atomic             Coordinates (Angstroms)
 Number     Number       Type             X           Y           Z
 ---------------------------------------------------------------------
      1          8           0        2.577234    2.523166   -0.208497
      2          6           0        2.460891    1.209561    0.017452
      3          6           0        3.634941    0.478743    0.261351
      4          6           0        3.570252   -0.882794    0.500689
      5          6           0        2.342882   -1.555063    0.504695
      6          6           0        1.171857   -0.849897    0.265718
      7          6           0       -0.126445   -1.588936    0.274876
      8          8           0       -0.172918   -2.789451    0.486683
      9          6           0       -1.367957   -0.803167    0.014046
     10          6           0       -2.602374   -1.458405    0.013573
     11          6           0       -3.771389   -0.745601   -0.226960
     12          6           0       -3.717596    0.629739   -0.469466
     13          6           0       -2.494907    1.290460   -0.471194
     14          6           0       -1.314267    0.580356   -0.230045
     15          6           0       -0.017530    1.304263   -0.236235
     16          8           0        0.014111    2.524442   -0.453043
     17          6           0        1.209486    0.544530    0.017919
     18          1           0        1.666589    2.875411   -0.359227
     19          1           0        4.578366    1.010877    0.255438
     20          1           0        4.484647   -1.434597    0.687501
     21          1           0        2.283057   -2.619319    0.690894
     22          1           0       -2.620821   -2.524340    0.203748
     23          1           0       -4.726466   -1.258424   -0.226258
     24          1           0       -4.630611    1.183242   -0.656743
     25          1           0       -2.431034    2.355205   -0.656917
 ---------------------------------------------------------------------

 SCF Done:  E(UB3LYP) =  -764.213111625     A.U. after    1 cycles

 Alpha  occ. eigenvalues --  -19.16199 -19.14126 -19.12945 -10.29128 -10.28236
 Alpha  occ. eigenvalues --  -10.26993 -10.21555 -10.21386 -10.21382 -10.21123
 Alpha  occ. eigenvalues --  -10.20761 -10.20756 -10.20701 -10.20502 -10.20386
 Alpha  occ. eigenvalues --  -10.19918 -10.19634  -1.09240  -1.06401  -1.06258
 Alpha  occ. eigenvalues --   -0.89955  -0.88457  -0.82009  -0.78597  -0.77902
 Alpha  occ. eigenvalues --   -0.77329  -0.69839  -0.67505  -0.66055  -0.62433
 Alpha  occ. eigenvalues --   -0.60371  -0.56992  -0.56449  -0.54159  -0.51188
 Alpha  occ. eigenvalues --   -0.50118  -0.49311  -0.48198  -0.46644  -0.46185
 Alpha  occ. eigenvalues --   -0.45780  -0.45434  -0.44658  -0.42992  -0.41765
 Alpha  occ. eigenvalues --   -0.41614  -0.40158  -0.39067  -0.38475  -0.38195
 Alpha  occ. eigenvalues --   -0.37369  -0.35812  -0.29642  -0.29480  -0.28492
 Alpha  occ. eigenvalues --   -0.28355  -0.27664  -0.25245
 Alpha virt. eigenvalues --   -0.12345  -0.07553  -0.04373  -0.02465  -0.01137
 Alpha virt. eigenvalues --   -0.00434   0.00844   0.01215   0.01890   0.02668
 Alpha virt. eigenvalues --    0.03551   0.03594   0.03758   0.04198   0.04213

  Beta  occ. eigenvalues --  -19.16199 -19.14126 -19.12945 -10.29128 -10.28236
  Beta  occ. eigenvalues --  -10.26993 -10.21555 -10.21386 -10.21382 -10.21123
  Beta  occ. eigenvalues --  -10.20761 -10.20756 -10.20701 -10.20502 -10.20386
  Beta  occ. eigenvalues --  -10.19918 -10.19634  -1.09240  -1.06401  -1.06258
  Beta  occ. eigenvalues --   -0.89955  -0.88457  -0.82009  -0.78597  -0.77902
  Beta  occ. eigenvalues --   -0.77329  -0.69839  -0.67505  -0.66055  -0.62433
  Beta  occ. eigenvalues --   -0.60371  -0.56992  -0.56449  -0.54159  -0.51188
  Beta  occ. eigenvalues --   -0.50118  -0.49311  -0.48198  -0.46644  -0.46185
  Beta  occ. eigenvalues --   -0.45780  -0.45434  -0.44658  -0.42992  -0.41765
  Beta  occ. eigenvalues --   -0.41614  -0.40158  -0.39067  -0.38475  -0.38195
  Beta  occ. eigenvalues --   -0.37369  -0.35812  -0.29642  -0.29480  -0.28492
  Beta  occ. eigenvalues --   -0.28355  -0.27664  -0.25245
  Beta virt. eigenvalues --   -0.12345  -0.07553  -0.04373  -0.02465  -0.01137
  Beta virt. eigenvalues --   -0.00434   0.00844   0.01215   0.01890   0.02668
  Beta virt. eigenvalues --    0.03551   0.03594   0.03758   0.04198   0.04213

 Mulliken charges and spin densities:
               1          2
     1  O   -0.265345   0.000000
     2  C   -0.183381   0.000000
     3  C   -0.086315  -0.000000
     4  C   -0.283387   0.000000
     5  C   -0.040465  -0.000000
     6  C    0.483968   0.000000
     7  C   -0.530266   0.000000
     8  O   -0.214163  -0.000000
     9  C   -0.028355   0.000000
    10  C    0.121669  -0.000000
    11  C   -0.344264   0.000000
    12  C   -0.374857   0.000000
    13  C    0.167838  -0.000000
    14  C    0.221312  -0.000000
    15  C   -0.396584   0.000000
    16  O   -0.279751  -0.000000
    17  C    0.413559  -0.000000
    18  H    0.329600  -0.000000
    19  H    0.195590  -0.000000
    20  H    0.188379   0.000000
    21  H    0.176869   0.000000
    22  H    0.184307   0.000000
    23  H    0.179132  -0.000000
    24  H    0.177112   0.000000
    25  H    0.187796   0.000000
 Sum of Mulliken charges =  -0.00000  -0.00000

 Dipole moment (field-independent basis, Debye):
    X=             -1.3097    Y=             -0.3397    Z=             -0.0655  Tot=              1.3546
 Quadrupole moment (field-independent basis, Debye-Ang):
   XX=            -76.5093   YY=           -108.0769   ZZ=            -99.6318
   XY=             -5.4505   XZ=              3.2088   YZ=              0.9762

  Exact polarizability: 259.079   3.259 188.122  16.434 -18.955  86.206
 Approx polarizability: 387.234   5.163 368.285  23.583 -42.259 140.924

                      1                      2                      3
                      A                      A                      A
 Frequencies --     45.5186                92.2328               124.2470
 Red. masses --      7.0250                 5.7813                 6.1547
 Frc consts  --      0.0086                 0.0290                 0.0560
 IR Inten    --      4.7443                 0.2372                 0.4355

                      4                      5                      6
                      A                      A                      A
 Frequencies --    166.6281               209.0705               216.9155
 Red. masses --      7.4470                 4.6072                 5.3899
 Frc consts  --      0.1218                 0.1187                 0.1494
 IR Inten    --      0.2691                 0.0164                 0.0401

                      7                      8                      9
                      A                      A                      A
 Frequencies --    257.3637               318.0394               348.5173
 Red. masses --      5.9702                 6.8913                 7.0645
 Frc consts  --      0.2330                 0.4107                 0.5056
 IR Inten    --      0.0213                 1.6858                 0.6641

                     10                     11                     12
                      A                      A                      A
 Frequencies --    391.8595               424.8430               427.3410
 Red. masses --      9.2072                 3.4947                12.2596
 Frc consts  --      0.8330                 0.3716                 1.3191
 IR Inten    --      7.4133                 0.1857                24.6018

                     13                     14                     15
                      A                      A                      A
 Frequencies --    429.9886               459.8049               484.8918
 Red. masses --      4.8971                 8.1503                 3.9670
 Frc consts  --      0.5335                 1.0152                 0.5495
 IR Inten    --      0.1095                 4.4935                 0.5360

                     16                     17                     18
                      A                      A                      A
 Frequencies --    501.2326               554.9595               560.8614
 Red. masses --      7.2759                 4.4824                 7.8085
 Frc consts  --      1.0770                 0.8134                 1.4472
 IR Inten    --      3.0212                 5.7460                 4.3729

                     19                     20                     21
                      A                      A                      A
 Frequencies --    624.7650               669.1791               670.3188
 Red. masses --      6.4160                 4.4140                 6.7246
 Frc consts  --      1.4755                 1.1646                 1.7803
 IR Inten    --      0.8803                 2.2302                 9.7709

                     22                     23                     24
                      A                      A                      A
 Frequencies --    704.4234               715.8546               738.2421
 Red. masses --      7.1607                 3.4691                 2.2435
 Frc consts  --      2.0935                 1.0474                 0.7204
 IR Inten    --      2.0180                21.8457                43.8177

                     25                     26                     27
                      A                      A                      A
 Frequencies --    783.7297               796.5250               804.5257
 Red. masses --      2.8662                 6.5569                 1.6868
 Frc consts  --      1.0373                 2.4510                 0.6433
 IR Inten    --     28.9762                 2.7044                57.8546

                     28                     29                     30
                      A                      A                      A
 Frequencies --    808.4168               834.1674               895.6163
 Red. masses --      1.3986                 1.5739                 7.7631
 Frc consts  --      0.5385                 0.6453                 3.6688
 IR Inten    --     69.5029                 2.1388                45.8723

                     31                     32                     33
                      A                      A                      A
 Frequencies --    915.9512               934.4221               936.0679
 Red. masses --      1.3646                 1.4133                 6.3918
 Frc consts  --      0.6745                 0.7271                 3.2998
 IR Inten    --      0.0234                 0.1046                 5.7079

                     34                     35                     36
                      A                      A                      A
 Frequencies --   1002.8852              1004.8727              1018.8489
 Red. masses --      1.3672                 1.3332                 1.3260
 Frc consts  --      0.8102                 0.7932                 0.8110
 IR Inten    --      0.9077                 1.1938                 0.0413

                     37                     38                     39
                      A                      A                      A
 Frequencies --   1032.0431              1060.8674              1085.2808
 Red. masses --      4.7933                 2.1251                 1.9077
 Frc consts  --      3.0080                 1.4091                 1.3239
 IR Inten    --     42.5278                 2.1591                 8.7504

                     40                     41                     42
                      A                      A                      A
 Frequencies --   1113.0819              1176.5326              1185.7216
 Red. masses --      2.3636                 1.4671                 1.2182
 Frc consts  --      1.7253                 1.1965                 1.0091
 IR Inten    --      0.8862                 6.8303                26.1202

                     43                     44                     45
                      A                      A                      A
 Frequencies --   1186.7641              1211.7762              1251.7323
 Red. masses --      1.7407                 2.0011                 1.9642
 Frc consts  --      1.4444                 1.7313                 1.8133
 IR Inten    --      1.7726                 4.9055               104.6531

                     46                     47                     48
                      A                      A                      A
 Frequencies --   1287.8502              1307.4970              1341.9934
 Red. masses --      2.4369                 2.7198                 3.8213
 Frc consts  --      2.3813                 2.7395                 4.0548
 IR Inten    --    333.7818               303.8890                19.6630

                     49                     50                     51
                      A                      A                      A
 Frequencies --   1358.4973              1378.1964              1398.4496
 Red. masses --      6.7046                 4.5340                 3.2331
 Frc consts  --      7.2902                 5.0740                 3.7253
 IR Inten    --     12.4287               177.9431                90.1497

                     52                     53                     54
                      A                      A                      A
 Frequencies --   1480.1462              1485.5536              1503.0785
 Red. masses --      2.4717                 2.5111                 2.6705
 Frc consts  --      3.1904                 3.2650                 3.5548
 IR Inten    --     10.9954                75.1884                50.7645

                     55                     56                     57
                      A                      A                      A
 Frequencies --   1511.5738              1608.6695              1609.8193
 Red. masses --      2.6892                 3.9163                 6.8644
 Frc consts  --      3.6202                 5.9711                10.4812
 IR Inten    --     60.0734                31.2788                19.4219

                     58                     59                     60
                      A                      A                      A
 Frequencies --   1626.5190              1633.4212              1675.5218
 Red. masses --      5.8880                 5.9415                 7.8300
 Frc consts  --      9.1777                 9.3400                12.9512
 IR Inten    --     64.2525                71.2220               236.3873

                     61                     62                     63
                      A                      A                      A
 Frequencies --   1725.2423              3171.6437              3175.5755
 Red. masses --     12.0716                 1.0871                 1.0884
 Frc consts  --     21.1698                 6.4432                 6.4666
 IR Inten    --    163.8622                 3.0826                 8.2631

                     64                     65                     66
                      A                      A                      A
 Frequencies --   3185.9328              3197.8134              3201.5959
 Red. masses --      1.0920                 1.0934                 1.0928
 Frc consts  --      6.5303                 6.5877                 6.5998
 IR Inten    --     10.2491                 3.3819                 1.6653

                     67                     68                     69
                      A                      A                      A
 Frequencies --   3204.7187              3208.9445              3334.7927
 Red. masses --      1.0945                 1.0933                 1.0680
 Frc consts  --      6.6231                 6.6329                 6.9981
 IR Inten    --      9.1184                 2.4486               253.1095

 - Thermochemistry -
 -------------------
 Temperature   298.150 Kelvin.  Pressure   1.00000 Atm.
 Atom     1 has atomic number  8 and mass  15.99491

 Molecular mass:   224.04734 amu.
 Principal axes and moments of inertia in atomic units:
                           1         2         3
     Eigenvalues --  1987.732684465.917336453.64983
           X            0.98888  -0.11545  -0.09377
           Y            0.13065   0.97557   0.17662
           Z            0.07109  -0.18691   0.97980
 This molecule is an asymmetric top.
 Rotational symmetry number  1.
 Warning -- assumption of classical behavior for rotation
           may cause significant error
 Rotational temperatures (Kelvin)      0.04357     0.01939     0.01342
 Rotational constants (GHZ):           0.90794     0.40411     0.27965
 Zero-point vibrational energy     483231.4 (Joules/Mol)
                                  115.49507 (Kcal/Mol)
 Warning -- explicit consideration of  18 degrees of freedom as
           vibrations may cause significant error
 Vibrational temperatures:     65.49   132.70   178.76   239.74   300.81
          (Kelvin)            312.09   370.29   457.59   501.44   563.80
                              611.25   614.85   618.66   661.56   697.65
                              721.16   798.46   806.95   898.90   962.80
                              964.44  1013.51  1029.96  1062.17  1127.61
                             1146.02  1157.53  1163.13  1200.18  1288.59
                             1317.85  1344.42  1346.79  1442.93  1445.79
                             1465.90  1484.88  1526.35  1561.48  1601.48
                             1692.77  1705.99  1707.49  1743.48  1800.96
                             1852.93  1881.20  1930.83  1954.57  1982.92
                             2012.06  2129.60  2137.38  2162.59  2174.82
                             2314.52  2316.17  2340.20  2350.13  2410.70
                             2482.24  4563.29  4568.94  4583.85  4600.94
                             4606.38  4610.88  4616.96  4798.02

 Zero-point correction=                           0.184053 (Hartree/Particle)
 Thermal correction to Energy=                    0.196047
 Thermal correction to Enthalpy=                  0.196991
 Thermal correction to Gibbs Free Energy=         0.145629
 Sum of electronic and zero-point Energies=           -764.029059
 Sum of electronic and thermal Energies=              -764.017064
 Sum of electronic and thermal Enthalpies=            -764.016120
 Sum of electronic and thermal Free Energies=         -764.067483

                     E (Thermal)             CV                S
                      KCal/Mol        Cal/Mol-Kelvin    Cal/Mol-Kelvin
 Total                  123.022             49.076            108.102
 Electronic               0.000              0.000              0.000
 Translational            0.889              2.981             42.123
 Rotational               0.889              2.981             32.416
 Vibrational            121.244             43.115             33.563
 Vibration     1          0.595              1.979              5.003
 Vibration     2          0.602              1.955              3.612
 Vibration     3          0.610              1.929              3.033
 Vibration     4          0.624              1.884              2.473
 Vibration     5          0.642              1.827              2.052
 Vibration     6          0.646              1.815              1.985
 Vibration     7          0.667              1.750              1.680
 Vibration     8          0.704              1.639              1.320
 Vibration     9          0.726              1.578              1.173
 Vibration    10          0.759              1.488              0.993
 Vibration    11          0.787              1.416              0.876
 Vibration    12          0.789              1.411              0.867
 Vibration    13          0.791              1.405              0.859
 Vibration    14          0.818              1.339              0.767
 Vibration    15          0.841              1.284              0.697
 Vibration    16          0.857              1.247              0.655
 Vibration    17          0.910              1.129              0.534
 Vibration    18          0.917              1.116              0.522

 Optimization completed.
    -- Stationary point found.
 Normal termination of Gaussian 16 at Thu Dec 21 07:52:54 2023.
