 Q-Chem 5.4, Q-Chem, Inc., Pleasanton, CA (2021)
 Q-Chem 5.4.0 for Intel X86 EM64T Linux

User input:
--------------------------------------------------------------
$molecule
-1 2
N                 -5.0515430000     -0.6631730000     -0.5892000000
C                 -3.7398880000     -0.2164920000     -0.2825240000
C                 -3.5660600000      1.0212930000      0.3847940000
C                 -2.2979560000      1.4922360000      0.6504320000
C                 -1.1438530000      0.7765410000      0.2651760000
C                  0.1761470000      1.3224860000      0.5723890000
O                  0.3264250000      2.4170330000      1.1765100000
C                  1.3180200000      0.5166470000      0.1372850000
C                  2.6241600000      0.9801340000      0.4047490000
C                  3.7404280000      0.2587790000      0.0241990000
N                  5.0524370000      0.7520600000      0.2449700000
C                  3.5666550000     -0.9741610000     -0.6521150000
C                  2.2985350000     -1.4465310000     -0.9150260000
C                  1.1444130000     -0.7274310000     -0.5363340000
C                 -0.1756030000     -1.2753100000     -0.8400910000
O                 -0.3259940000     -2.3770370000     -1.4307670000
C                 -1.3173770000     -0.4650670000     -0.4129680000
C                 -2.6237040000     -0.9345540000     -0.6691470000
H                 -5.7268860000     -0.4318350000      0.1285500000
H                 -5.0878610000     -1.6543250000     -0.7897430000
H                 -4.4395130000      1.5985460000      0.6778880000
H                 -2.1494240000      2.4355640000      1.1637850000
H                  2.7169770000      1.9284050000      0.9252120000
H                  5.7221510000      0.0209550000      0.4488250000
H                  5.0854850000      1.4615580000      0.9655700000
H                  4.4402730000     -1.5391330000     -0.9677550000
H                  2.1500400000     -2.3901340000     -1.4279500000
H                 -2.7164840000     -1.8870520000     -1.1819060000
$end
$rem
MAX_SCF_CYCLES=200
BASIS  =  6-311++G(d,p)
GUI  =  2
JOB_TYPE  =  SP
METHOD  =  B3LYP
SOLVENT_METHOD = PCM
$end
$pcm
theory = CPCM
$end
$solvent
dielectric 37.219
opticaldielectric 1.43
$end

--------------------------------------------------------------

             Standard Nuclear Orientation (Angstroms)
    I     Atom           X                Y                Z
 ----------------------------------------------------------------
    1      N      -5.0515430000    -0.6631730000    -0.5892000000
    2      C      -3.7398880000    -0.2164920000    -0.2825240000
    3      C      -3.5660600000     1.0212930000     0.3847940000
    4      C      -2.2979560000     1.4922360000     0.6504320000
    5      C      -1.1438530000     0.7765410000     0.2651760000
    6      C       0.1761470000     1.3224860000     0.5723890000
    7      O       0.3264250000     2.4170330000     1.1765100000
    8      C       1.3180200000     0.5166470000     0.1372850000
    9      C       2.6241600000     0.9801340000     0.4047490000
   10      C       3.7404280000     0.2587790000     0.0241990000
   11      N       5.0524370000     0.7520600000     0.2449700000
   12      C       3.5666550000    -0.9741610000    -0.6521150000
   13      C       2.2985350000    -1.4465310000    -0.9150260000
   14      C       1.1444130000    -0.7274310000    -0.5363340000
   15      C      -0.1756030000    -1.2753100000    -0.8400910000
   16      O      -0.3259940000    -2.3770370000    -1.4307670000
   17      C      -1.3173770000    -0.4650670000    -0.4129680000
   18      C      -2.6237040000    -0.9345540000    -0.6691470000
   19      H      -5.7268860000    -0.4318350000     0.1285500000
   20      H      -5.0878610000    -1.6543250000    -0.7897430000
   21      H      -4.4395130000     1.5985460000     0.6778880000
   22      H      -2.1494240000     2.4355640000     1.1637850000
   23      H       2.7169770000     1.9284050000     0.9252120000
   24      H       5.7221510000     0.0209550000     0.4488250000
   25      H       5.0854850000     1.4615580000     0.9655700000
   26      H       4.4402730000    -1.5391330000    -0.9677550000
   27      H       2.1500400000    -2.3901340000    -1.4279500000
   28      H      -2.7164840000    -1.8870520000    -1.1819060000
 ----------------------------------------------------------------

    8    -799.8630402065      7.83e-06  Convergence criterion met
 Total energy in the final basis set =     -799.8630402065

                    Orbital Energies (a.u.)
 --------------------------------------------------------------

 Alpha MOs
 -- Occupied --
-19.0717 -19.0716 -14.3124 -14.3124 -10.2197 -10.2197 -10.2102 -10.2102
-10.1696 -10.1695 -10.1689 -10.1689 -10.1671 -10.1671 -10.1635 -10.1635
-10.1596 -10.1595  -0.9987  -0.9963  -0.9121  -0.9120  -0.8476  -0.8328
 -0.7696  -0.7478  -0.7406  -0.7210  -0.6607  -0.6372  -0.6077  -0.5936
 -0.5565  -0.5359  -0.5270  -0.5040  -0.4898  -0.4846  -0.4645  -0.4476
 -0.4421  -0.4211  -0.4202  -0.4193  -0.4158  -0.4042  -0.4009  -0.3909
 -0.3802  -0.3765  -0.3678  -0.3522  -0.3460  -0.3310  -0.3091  -0.3007
 -0.2599  -0.2518  -0.2442  -0.2350  -0.2262  -0.2118  -0.1346

 Beta MOs
 -- Occupied --
-19.0668 -19.0668 -14.3122 -14.3122 -10.2176 -10.2176 -10.2097 -10.2097
-10.1688 -10.1688 -10.1685 -10.1685 -10.1670 -10.1670 -10.1632 -10.1632
-10.1592 -10.1592  -0.9899  -0.9873  -0.9112  -0.9112  -0.8449  -0.8319
 -0.7664  -0.7449  -0.7390  -0.7195  -0.6532  -0.6356  -0.6055  -0.5928
 -0.5539  -0.5336  -0.5260  -0.5034  -0.4893  -0.4827  -0.4620  -0.4465
 -0.4407  -0.4207  -0.4189  -0.4123  -0.4085  -0.4013  -0.3987  -0.3892
 -0.3767  -0.3616  -0.3547  -0.3486  -0.3456  -0.3295  -0.3061  -0.2895
 -0.2498  -0.2433  -0.2398  -0.2304  -0.2174  -0.2063

          Ground-State Mulliken Net Atomic Charges

     Atom                 Charge (a.u.)    Spin (a.u.)
  --------------------------------------------------------
      1 N                    -0.398438       0.010430
      2 C                    -0.602387       0.033926
      3 C                    -0.157857       0.010164
      4 C                     0.119077       0.035524
      5 C                     0.185959      -0.001231
      6 C                    -0.687216       0.120569
      7 O                    -0.499880       0.186595
      8 C                     0.482977       0.058761
      9 C                    -0.050970       0.051780
     10 C                    -0.607368       0.033796
     11 N                    -0.397479       0.010462
     12 C                    -0.156604       0.010114
     13 C                     0.120138       0.035577
     14 C                     0.183669      -0.001427
     15 C                    -0.687273       0.120491
     16 O                    -0.499770       0.186534
     17 C                     0.482386       0.058934
     18 C                    -0.054062       0.051539
     19 H                     0.280124       0.000685
     20 H                     0.285898      -0.000259
     21 H                     0.214187      -0.001527
     22 H                     0.172119      -0.001746
     23 H                     0.160017      -0.003432
     24 H                     0.280140       0.000679
     25 H                     0.285972      -0.000251
     26 H                     0.214367      -0.001517
     27 H                     0.172123      -0.001746
     28 H                     0.160149      -0.003421
  --------------------------------------------------------
  Sum of atomic charges =    -1.000000

                    Cartesian Multipole Moments
 -----------------------------------------------------------------
    Charge (ESU x 10^10)
                -4.8032
    Dipole Moment (Debye)
         X      -0.0124      Y      -1.5726      Z       3.3342
       Tot       3.6865
    Quadrupole Moments (Debye-Ang)
        XX     -83.2127     XY      -0.9362     YY    -132.9492
        XZ      -0.3191     YZ     -10.2612     ZZ    -120.0318

 Total job time:  92.40s(wall), 396.30s(cpu)
        *  Thank you very much for using Q-Chem.  Have a nice day.  *
