 Gaussian 16, Revision A.03,
 Gaussian 16:  ES64L-G16RevA.03 25-Dec-2016

 ----------------------------------------------------------------
 #P UB3LYP/6-311++G(d,p) SCRF=(PCM,Solvent=n,n-DiMethylFormamide)
 ----------------------------------------------------------------

 ------------------
 Radical PCM in DMF
 ------------------
 Symbolic Z-matrix:
 Charge = -1 Multiplicity = 2

                         Standard orientation:
 ---------------------------------------------------------------------
 Center     Atomic      Atomic             Coordinates (Angstroms)
 Number     Number       Type             X           Y           Z
 ---------------------------------------------------------------------
      1          6           0       -1.252820    1.373192    0.380117
      2          6           0       -2.491620    1.899503   -0.172602
      3          6           0       -3.453715    1.113194   -0.731473
      4          6           0       -3.324944   -0.331405   -0.821522
      5          6           0       -2.105947   -0.878774   -0.269129
      6          6           0       -1.144264   -0.076771    0.303323
      7          8           0       -0.365514    2.122483    0.855166
      8          8           0       -4.212839   -1.057675   -1.345726
      9         16           0        0.296756   -0.889897    1.007094
     10          6           0        1.724695   -0.277546    0.064819
     11          6           0        2.205226   -1.047848   -0.991900
     12          6           0        2.335782    0.920509    0.428353
     13          6           0        3.450462    1.350757   -0.289370
     14          6           0        3.319235   -0.605879   -1.703661
     15          6           0        3.941831    0.592024   -1.352176
     16          8           0        0.492770   -0.493231    2.409029
     17          8           0        0.196772   -2.328926    0.686289
     18          1           0       -2.603287    2.978657   -0.121164
     19          1           0       -4.363795    1.544421   -1.138807
     20          1           0       -1.968953   -1.952493   -0.310050
     21          1           0        1.713474   -1.981790   -1.233861
     22          1           0        1.918077    1.502440    1.238036
     23          1           0        3.932514    2.284208   -0.019302
     24          1           0        3.702218   -1.199106   -2.527237
     25          1           0        4.808618    0.935071   -1.907864
 ---------------------------------------------------------------------

 SCF Done:  E(UB3LYP) =  -1161.48446623     A.U. after   23 cycles

 The electronic state is 2-A.
 Alpha  occ. eigenvalues --  -89.05365 -19.12115 -19.11923 -19.09204 -19.09199
 Alpha  occ. eigenvalues --  -10.24422 -10.23437 -10.21335 -10.20691 -10.19490
 Alpha  occ. eigenvalues --  -10.19177 -10.19033 -10.18870 -10.18848 -10.18783
 Alpha  occ. eigenvalues --  -10.17860 -10.17791  -8.11752  -6.08042  -6.07923
 Alpha  occ. eigenvalues --   -6.07840  -1.11273  -1.01914  -1.01280  -1.00830
 Alpha  occ. eigenvalues --   -0.87780  -0.84517  -0.78708  -0.76805  -0.76442
 Alpha  occ. eigenvalues --   -0.71170  -0.67704  -0.62588  -0.62251  -0.60297
 Alpha  occ. eigenvalues --   -0.57507  -0.53991  -0.50405  -0.49485  -0.48621
 Alpha  occ. eigenvalues --   -0.47686  -0.47371  -0.45610  -0.45269  -0.44484
 Alpha  occ. eigenvalues --   -0.43870  -0.42388  -0.41998  -0.39929  -0.39306
 Alpha  occ. eigenvalues --   -0.38451  -0.38208  -0.37931  -0.36109  -0.34573
 Alpha  occ. eigenvalues --   -0.33115  -0.31672  -0.30584  -0.30087  -0.28428
 Alpha  occ. eigenvalues --   -0.27220  -0.27100  -0.25642  -0.25030  -0.17999
 Alpha virt. eigenvalues --   -0.05230  -0.02673  -0.02563  -0.00406   0.00507
 Alpha virt. eigenvalues --    0.00825   0.01201   0.01933   0.02468   0.03386
 Alpha virt. eigenvalues --    0.03704   0.03787   0.03986   0.05613   0.05823

  Beta  occ. eigenvalues --  -89.05367 -19.12107 -19.11928 -19.08565 -19.08418
  Beta  occ. eigenvalues --  -10.24325 -10.23338 -10.21335 -10.20592 -10.19486
  Beta  occ. eigenvalues --  -10.19174 -10.19029 -10.18872 -10.18784 -10.18600
  Beta  occ. eigenvalues --  -10.17791 -10.17713  -8.11754  -6.08043  -6.07925
  Beta  occ. eigenvalues --   -6.07844  -1.11259  -1.00998  -1.00653  -0.99893
  Beta  occ. eigenvalues --   -0.87773  -0.83891  -0.78606  -0.76628  -0.76430
  Beta  occ. eigenvalues --   -0.70395  -0.67264  -0.62492  -0.62132  -0.59941
  Beta  occ. eigenvalues --   -0.57335  -0.53889  -0.50176  -0.49325  -0.48486
  Beta  occ. eigenvalues --   -0.47583  -0.47150  -0.45592  -0.45219  -0.44228
  Beta  occ. eigenvalues --   -0.43840  -0.41348  -0.40636  -0.39596  -0.38619
  Beta  occ. eigenvalues --   -0.38152  -0.37709  -0.36096  -0.36074  -0.34485
  Beta  occ. eigenvalues --   -0.33059  -0.31521  -0.30495  -0.28403  -0.27281
  Beta  occ. eigenvalues --   -0.26662  -0.26235  -0.25001  -0.24425
  Beta virt. eigenvalues --   -0.10718  -0.04695  -0.02647  -0.01490  -0.00390
  Beta virt. eigenvalues --    0.00679   0.01216   0.01700   0.02479   0.02576
  Beta virt. eigenvalues --    0.03462   0.03755   0.04008   0.04157   0.05647

 Mulliken charges and spin densities:
               1          2
     1  C   -0.701961   0.004770
     2  C    0.076475   0.082638
     3  C    0.111151   0.042665
     4  C   -0.549103   0.132884
     5  C   -0.067390   0.130139
     6  C    0.306331   0.124052
     7  O   -0.386594   0.232818
     8  O   -0.461581   0.276960
     9  S    0.355895  -0.027889
    10  C    0.415564   0.007372
    11  C    0.104474   0.006216
    12  C   -0.314153   0.013970
    13  C   -0.442030  -0.005321
    14  C   -0.479135  -0.001006
    15  C   -0.324449   0.002785
    16  O   -0.195570   0.005430
    17  O   -0.258113  -0.002851
    18  H    0.208404  -0.006413
    19  H    0.206967  -0.004090
    20  H    0.263540  -0.014039
    21  H    0.244422   0.000707
    22  H    0.273275  -0.001790
    23  H    0.212827   0.000130
    24  H    0.210260   0.000065
    25  H    0.190492  -0.000200
 Sum of Mulliken charges =  -1.00000   1.00000

 Dipole moment (field-independent basis, Debye):
    X=              9.5519    Y=              2.9761    Z=             -4.2736  Tot=             10.8793
 Quadrupole moment (field-independent basis, Debye-Ang):
   XX=           -134.5337   YY=           -123.9843   ZZ=           -123.4805
   XY=             -8.8343   XZ=            -19.2074   YZ=             -1.1962

 Normal termination of Gaussian 16 at Wed Jan 24 22:54:11 2024.
