 Gaussian 16, Revision A.03,
 Gaussian 16:  ES64L-G16RevA.03 25-Dec-2016

 ----------------------------------------------------------------
 #P UB3LYP/6-311++G(d,p) SCRF=(PCM,Solvent=n,n-DiMethylFormamide)
 ----------------------------------------------------------------

 ------------------
 Radical PCM in DMF
 ------------------
 Symbolic Z-matrix:
 Charge = -1 Multiplicity = 2

                         Standard orientation:
 ---------------------------------------------------------------------
 Center     Atomic      Atomic             Coordinates (Angstroms)
 Number     Number       Type             X           Y           Z
 ---------------------------------------------------------------------
      1          6           0        1.245488   -0.684792    0.050052
      2          6           0        1.245426    0.685351   -0.047468
      3          6           0       -0.000150    1.440002    0.001344
      4          6           0       -1.245570    0.685073    0.049484
      5          6           0       -1.245398   -0.685122   -0.047769
      6          6           0        0.000134   -1.439735    0.001503
      7          8           0        0.000328   -2.708582    0.001867
      8          8           0       -0.000289    2.708846    0.001862
      9          6           0       -2.521020   -1.478890   -0.229558
     10          6           0       -2.521547    1.478508    0.230078
     11          6           0       -3.790167    0.667157    0.064790
     12          6           0       -3.790018   -0.667623   -0.066986
     13          6           0        2.521358   -1.478373    0.230476
     14          6           0        3.790135   -0.667334    0.065052
     15          6           0        3.790113    0.667458   -0.066763
     16          6           0        2.521194    1.478916   -0.229198
     17          1           0       -2.522387   -2.294115    0.507585
     18          6           0       -2.519257   -2.164413   -1.625243
     19          1           0       -2.521898    2.294336   -0.506390
     20          6           0       -2.522110    2.162812    1.626268
     21          6           0       -5.075591    1.472990    0.110514
     22          6           0       -5.075201   -1.473539   -0.114905
     23          6           0        5.075333   -1.473420    0.110118
     24          6           0        5.075412    1.473280   -0.115226
     25          6           0        2.519620    2.164306   -1.624906
     26          1           0       -2.527130   -1.404968   -2.413809
     27          1           0       -3.397400   -2.805183   -1.757905
     28          1           0       -1.625962   -2.780090   -1.725448
     29          1           0       -2.530061    1.402745    2.414237
     30          1           0       -3.401109    2.802521    1.758433
     31          1           0       -1.629519    2.779272    1.727965
     32          1           0       -4.899952    2.488776   -0.257245
     33          1           0       -5.472509    1.570747    1.129287
     34          1           0       -5.862404    1.031899   -0.505531
     35          1           0       -5.864487   -1.030277    0.496351
     36          1           0       -4.900907   -2.487966    0.257289
     37          1           0       -5.467897   -1.575137   -1.134932
     38          1           0        4.899831   -2.488214   -0.260472
     39          1           0        5.471010   -1.573945    1.129097
     40          1           0        5.862806   -1.030806   -0.503957
     41          1           0        5.864616    1.030347    0.496392
     42          1           0        4.901243    2.488018    0.256166
     43          1           0        5.468156    1.574037   -1.135316
     44          6           0        2.521825   -2.162602    1.626740
     45          1           0        2.521442   -2.294232   -0.505952
     46          1           0        2.522711    2.294165    0.507919
     47          1           0        2.526503    1.404708   -2.413338
     48          1           0        3.398367    2.804211   -1.757885
     49          1           0        1.626857    2.780778   -1.724937
     50          1           0        2.530255   -1.402364    2.414549
     51          1           0        3.400496   -2.802788    1.758931
     52          1           0        1.628964   -2.778640    1.728708
 ---------------------------------------------------------------------

 SCF Done:  E(UB3LYP) =  -1006.03890965     A.U. after   16 cycles

 The electronic state is 2-A.
 Alpha  occ. eigenvalues --  -19.06350 -19.06349 -10.20547 -10.20545 -10.16646
 Alpha  occ. eigenvalues --  -10.16646 -10.16645 -10.16643 -10.15968 -10.15967
 Alpha  occ. eigenvalues --  -10.15888 -10.15887 -10.15556 -10.15554 -10.15527
 Alpha  occ. eigenvalues --  -10.15527 -10.15527 -10.15526 -10.15492 -10.15492
 Alpha  occ. eigenvalues --  -10.14618 -10.14618 -10.14616 -10.14616  -0.98769
 Alpha  occ. eigenvalues --   -0.98485  -0.84693  -0.83993  -0.79445  -0.77777
 Alpha  occ. eigenvalues --   -0.77608  -0.76209  -0.72036  -0.70238  -0.70132
 Alpha  occ. eigenvalues --   -0.69307  -0.66308  -0.66204  -0.65205  -0.63376
 Alpha  occ. eigenvalues --   -0.60426  -0.59309  -0.57159  -0.56127  -0.53409
 Alpha  occ. eigenvalues --   -0.49444  -0.48836  -0.47336  -0.45887  -0.45175
 Alpha  occ. eigenvalues --   -0.44756  -0.44267  -0.43487  -0.42044  -0.41807
 Alpha  occ. eigenvalues --   -0.41458  -0.40178  -0.40162  -0.40151  -0.40050
 Alpha  occ. eigenvalues --   -0.39746  -0.39500  -0.39175  -0.38670  -0.38349
 Alpha  occ. eigenvalues --   -0.38349  -0.38030  -0.37298  -0.36594  -0.36370
 Alpha  occ. eigenvalues --   -0.36327  -0.35422  -0.35089  -0.34249  -0.34202
 Alpha  occ. eigenvalues --   -0.34096  -0.33591  -0.33182  -0.31847  -0.31173
 Alpha  occ. eigenvalues --   -0.31005  -0.29839  -0.26146  -0.23235  -0.23225
 Alpha  occ. eigenvalues --   -0.22261  -0.21465  -0.21411  -0.14733
 Alpha virt. eigenvalues --   -0.00911  -0.00164   0.00618   0.00725   0.00786
 Alpha virt. eigenvalues --    0.01297   0.01485   0.02036   0.02098   0.02284
 Alpha virt. eigenvalues --    0.02709   0.03213   0.03343   0.03683   0.03839

  Beta  occ. eigenvalues --  -19.05708 -19.05707 -10.20368 -10.20367 -10.16654
  Beta  occ. eigenvalues --  -10.16653 -10.16652 -10.16651 -10.15967 -10.15966
  Beta  occ. eigenvalues --  -10.15887 -10.15886 -10.15528 -10.15527 -10.15527
  Beta  occ. eigenvalues --  -10.15527 -10.15454 -10.15452 -10.15389 -10.15389
  Beta  occ. eigenvalues --  -10.14612 -10.14612 -10.14610 -10.14610  -0.97645
  Beta  occ. eigenvalues --   -0.97330  -0.84460  -0.83942  -0.79102  -0.77733
  Beta  occ. eigenvalues --   -0.77515  -0.76100  -0.71946  -0.70136  -0.70111
  Beta  occ. eigenvalues --   -0.69225  -0.66263  -0.65505  -0.65160  -0.63264
  Beta  occ. eigenvalues --   -0.60149  -0.59225  -0.57134  -0.55918  -0.53056
  Beta  occ. eigenvalues --   -0.49321  -0.48714  -0.47209  -0.45760  -0.45105
  Beta  occ. eigenvalues --   -0.44684  -0.44054  -0.43221  -0.41821  -0.41784
  Beta  occ. eigenvalues --   -0.41366  -0.40128  -0.40122  -0.39608  -0.39560
  Beta  occ. eigenvalues --   -0.39546  -0.39490  -0.38955  -0.38308  -0.38230
  Beta  occ. eigenvalues --   -0.38196  -0.37857  -0.37203  -0.36548  -0.36286
  Beta  occ. eigenvalues --   -0.35933  -0.35349  -0.34387  -0.34171  -0.34029
  Beta  occ. eigenvalues --   -0.33959  -0.32721  -0.32553  -0.31106  -0.31052
  Beta  occ. eigenvalues --   -0.30968  -0.29647  -0.23352  -0.22828  -0.22636
  Beta  occ. eigenvalues --   -0.22095  -0.21115  -0.20998
  Beta virt. eigenvalues --   -0.07712  -0.00854  -0.00156   0.00735   0.00858
  Beta virt. eigenvalues --    0.00934   0.01526   0.01904   0.02045   0.02101
  Beta virt. eigenvalues --    0.02426   0.02731   0.03228   0.03350   0.03848

 Mulliken charges and spin densities:
               1          2
     1  C    0.352424   0.061406
     2  C    0.352312   0.061466
     3  C   -0.585896   0.110675
     4  C    0.352184   0.061467
     5  C    0.351959   0.061435
     6  C   -0.585325   0.110695
     7  O   -0.431328   0.241933
     8  O   -0.431300   0.241934
     9  C    0.058280  -0.006123
    10  C    0.057840  -0.006178
    11  C    0.148171   0.004729
    12  C    0.148839   0.004708
    13  C    0.058170  -0.006154
    14  C    0.148403   0.004742
    15  C    0.148393   0.004697
    16  C    0.058376  -0.006120
    17  H    0.203963   0.002603
    18  C   -0.819334   0.011221
    19  H    0.203784   0.002599
    20  C   -0.818880   0.011227
    21  C   -0.667062   0.000414
    22  C   -0.667341   0.000422
    23  C   -0.666951   0.000416
    24  C   -0.667430   0.000427
    25  C   -0.819462   0.011210
    26  H    0.141960  -0.000505
    27  H    0.143596   0.002126
    28  H    0.188881  -0.002107
    29  H    0.141847  -0.000501
    30  H    0.143697   0.002124
    31  H    0.188949  -0.002111
    32  H    0.160566  -0.000241
    33  H    0.189142   0.000168
    34  H    0.158073  -0.000011
    35  H    0.158016  -0.000011
    36  H    0.160568  -0.000240
    37  H    0.188989   0.000166
    38  H    0.160549  -0.000241
    39  H    0.189033   0.000168
    40  H    0.157995  -0.000011
    41  H    0.157976  -0.000011
    42  H    0.160571  -0.000241
    43  H    0.189023   0.000166
    44  C   -0.818955   0.011223
    45  H    0.203828   0.002602
    46  H    0.204014   0.002607
    47  H    0.141938  -0.000503
    48  H    0.143616   0.002125
    49  H    0.188886  -0.002108
    50  H    0.141888  -0.000502
    51  H    0.143641   0.002124
    52  H    0.188924  -0.002112
 Sum of Mulliken charges =  -1.00000   1.00000

 Dipole moment (field-independent basis, Debye):
    X=              0.0001    Y=             -0.0005    Z=             -0.0096  Tot=              0.0096
 Quadrupole moment (field-independent basis, Debye-Ang):
   XX=           -149.6598   YY=           -187.0719   ZZ=           -155.3386
   XY=              0.0036   XZ=             -0.0042   YZ=             -0.0000

 Normal termination of Gaussian 16 at Sun Jan 21 07:43:13 2024.
