 Gaussian 16, Revision A.03,
 Gaussian 16:  ES64L-G16RevA.03 25-Dec-2016

 --------------------------------------
 #P UB3LYP/6-311++G(d,p) nosym opt freq
 --------------------------------------

 --------
 Oxidized
 --------
 Symbolic Z-matrix:
 Charge =  0 Multiplicity = 1

 SCF Done:  E(UB3LYP) =  -878.334047091     A.U. after   15 cycles
 SCF Done:  E(UB3LYP) =  -878.340614804     A.U. after   14 cycles
 SCF Done:  E(UB3LYP) =  -878.344112468     A.U. after   14 cycles
 SCF Done:  E(UB3LYP) =  -878.346764791     A.U. after   15 cycles
 SCF Done:  E(UB3LYP) =  -878.347242818     A.U. after   15 cycles
 SCF Done:  E(UB3LYP) =  -878.348757215     A.U. after   12 cycles
 SCF Done:  E(UB3LYP) =  -878.349012038     A.U. after   12 cycles
 SCF Done:  E(UB3LYP) =  -878.349137015     A.U. after   13 cycles
 SCF Done:  E(UB3LYP) =  -878.349221918     A.U. after   12 cycles
 SCF Done:  E(UB3LYP) =  -878.349263944     A.U. after   11 cycles
 SCF Done:  E(UB3LYP) =  -878.349293006     A.U. after   11 cycles
 SCF Done:  E(UB3LYP) =  -878.349305412     A.U. after   11 cycles
 SCF Done:  E(UB3LYP) =  -878.349309478     A.U. after   10 cycles
 SCF Done:  E(UB3LYP) =  -878.349310471     A.U. after   10 cycles
 SCF Done:  E(UB3LYP) =  -878.349310558     A.U. after    9 cycles
 Optimization completed.
    -- Stationary point found.
 Normal termination of Gaussian 16 at Thu Dec 21 08:38:28 2023.

 ----------------------------------------------------------------------
 #P Geom=AllCheck Guess=TCheck SCRF=Check GenChk UB3LYP/6-311++G(d,p) F
 req
 ----------------------------------------------------------------------

 Structure from the checkpoint file:  "172.chk"
 --------
 Oxidized
 --------
 Charge =  0 Multiplicity = 1

                          Input orientation:
 ---------------------------------------------------------------------
 Center     Atomic      Atomic             Coordinates (Angstroms)
 Number     Number       Type             X           Y           Z
 ---------------------------------------------------------------------
      1          6           0       -1.419123    1.994881   -4.740891
      2          6           0       -1.490066    0.635958   -5.012271
      3          6           0       -1.395577   -0.293773   -3.969897
      4          6           0       -1.252722    2.442375   -3.423546
      5          6           0       -1.158058    1.511663   -2.380095
      6          6           0       -1.230661    0.141190   -2.662617
      7          6           0       -1.179363    3.899095   -3.154201
      8          6           0       -0.981430    1.956299   -0.976129
      9          6           0       -1.005404    4.348252   -1.771568
     10          6           0       -0.907993    3.392183   -0.699743
     11          6           0       -0.933202    5.743185   -1.496081
     12          6           0       -0.763787    6.144949   -0.141727
     13          6           0       -0.671299    5.237379    0.875716
     14          6           0       -0.738716    3.835432    0.642585
     15          8           0       -1.268072    4.689148   -4.110924
     16          8           0       -0.901975    1.095263   -0.081878
     17          1           0       -1.489665    2.732850   -5.529743
     18          1           0       -1.618887    0.294088   -6.033208
     19          1           0       -1.451262   -1.355302   -4.183994
     20          1           0       -1.155050   -0.558284   -1.839892
     21          1           0       -0.542963    5.599755    1.887219
     22          1           0       -0.705990    7.199509    0.093830
     23          7           0       -1.019992    6.684792   -2.473007
     24          7           0       -0.641428    2.972314    1.688578
     25          6           0       -0.953053    8.113148   -2.254843
     26          6           0       -0.468351    3.362197    3.070717
     27          1           0       -1.139600    6.310175   -3.410514
     28          1           0       -0.699300    1.990300    1.431921
     29          1           0        0.002524    8.422050   -1.813803
     30          1           0       -1.762395    8.473299   -1.608071
     31          1           0       -1.051261    8.608625   -3.220482
     32          1           0       -1.303109    3.971254    3.438531
     33          1           0        0.461719    3.920850    3.231778
     34          1           0       -0.423391    2.456679    3.675382
 ---------------------------------------------------------------------

 SCF Done:  E(UB3LYP) =  -878.349310558     A.U. after    1 cycles

 Alpha  occ. eigenvalues --  -19.10467 -19.10466 -14.33278 -14.33277 -10.25758
 Alpha  occ. eigenvalues --  -10.25757 -10.23419 -10.23417 -10.21304 -10.21304
 Alpha  occ. eigenvalues --  -10.19513 -10.19446 -10.19127 -10.19087 -10.19012
 Alpha  occ. eigenvalues --  -10.18960 -10.18623 -10.18571 -10.18172 -10.18171
 Alpha  occ. eigenvalues --   -1.03788  -1.03563  -0.95311  -0.94686  -0.87472
 Alpha  occ. eigenvalues --   -0.85296  -0.80097  -0.76611  -0.76235  -0.76204
 Alpha  occ. eigenvalues --   -0.71578  -0.68806  -0.67872  -0.64802  -0.63532
 Alpha  occ. eigenvalues --   -0.60403  -0.58456  -0.55157  -0.54588  -0.52794
 Alpha  occ. eigenvalues --   -0.52047  -0.49433  -0.47973  -0.47782  -0.47568
 Alpha  occ. eigenvalues --   -0.46189  -0.45564  -0.45057  -0.43595  -0.43537
 Alpha  occ. eigenvalues --   -0.43319  -0.43281  -0.42716  -0.40680  -0.40461
 Alpha  occ. eigenvalues --   -0.39883  -0.39634  -0.38729  -0.38086  -0.36640
 Alpha  occ. eigenvalues --   -0.35595  -0.35321  -0.33576  -0.27729  -0.27388
 Alpha  occ. eigenvalues --   -0.26534  -0.26275  -0.25845  -0.25491  -0.18964
 Alpha virt. eigenvalues --   -0.10139  -0.05047  -0.02689  -0.01585  -0.00604
 Alpha virt. eigenvalues --    0.00008   0.00286   0.01115   0.01908   0.02221
 Alpha virt. eigenvalues --    0.02273   0.02803   0.03499   0.03902   0.04370

  Beta  occ. eigenvalues --  -19.10467 -19.10466 -14.33278 -14.33277 -10.25758
  Beta  occ. eigenvalues --  -10.25757 -10.23419 -10.23417 -10.21304 -10.21304
  Beta  occ. eigenvalues --  -10.19513 -10.19446 -10.19127 -10.19087 -10.19012
  Beta  occ. eigenvalues --  -10.18960 -10.18623 -10.18571 -10.18172 -10.18171
  Beta  occ. eigenvalues --   -1.03788  -1.03563  -0.95311  -0.94686  -0.87472
  Beta  occ. eigenvalues --   -0.85296  -0.80097  -0.76611  -0.76235  -0.76204
  Beta  occ. eigenvalues --   -0.71578  -0.68806  -0.67872  -0.64802  -0.63532
  Beta  occ. eigenvalues --   -0.60403  -0.58456  -0.55157  -0.54588  -0.52794
  Beta  occ. eigenvalues --   -0.52047  -0.49433  -0.47973  -0.47782  -0.47568
  Beta  occ. eigenvalues --   -0.46189  -0.45564  -0.45057  -0.43595  -0.43537
  Beta  occ. eigenvalues --   -0.43319  -0.43281  -0.42716  -0.40680  -0.40461
  Beta  occ. eigenvalues --   -0.39883  -0.39634  -0.38729  -0.38086  -0.36640
  Beta  occ. eigenvalues --   -0.35595  -0.35321  -0.33576  -0.27729  -0.27388
  Beta  occ. eigenvalues --   -0.26534  -0.26275  -0.25845  -0.25491  -0.18964
  Beta virt. eigenvalues --   -0.10139  -0.05047  -0.02689  -0.01585  -0.00604
  Beta virt. eigenvalues --    0.00008   0.00286   0.01115   0.01908   0.02221
  Beta virt. eigenvalues --    0.02273   0.02803   0.03499   0.03902   0.04370

 Mulliken charges and spin densities:
               1          2
     1  C    0.068663   0.000000
     2  C   -0.438739  -0.000000
     3  C   -0.438658   0.000000
     4  C    0.260835   0.000000
     5  C    0.260871   0.000000
     6  C    0.068578  -0.000000
     7  C   -0.297818   0.000000
     8  C   -0.297982  -0.000000
     9  C    0.266263  -0.000000
    10  C    0.266216  -0.000000
    11  C   -0.229916  -0.000000
    12  C   -0.100834   0.000000
    13  C   -0.101246   0.000000
    14  C   -0.229977   0.000000
    15  O   -0.276536   0.000000
    16  O   -0.276525   0.000000
    17  H    0.182109   0.000000
    18  H    0.166678  -0.000000
    19  H    0.166681   0.000000
    20  H    0.182102  -0.000000
    21  H    0.175024  -0.000000
    22  H    0.175034   0.000000
    23  N   -0.274613   0.000000
    24  N   -0.274634  -0.000000
    25  C   -0.364586  -0.000000
    26  C   -0.364592   0.000000
    27  H    0.399053   0.000000
    28  H    0.399109   0.000000
    29  H    0.156013   0.000000
    30  H    0.155994   0.000000
    31  H    0.152715  -0.000000
    32  H    0.156000   0.000000
    33  H    0.156012   0.000000
    34  H    0.152707  -0.000000
 Sum of Mulliken charges =  -0.00000   0.00000

 Dipole moment (field-independent basis, Debye):
    X=              0.3330    Y=              2.5212    Z=              2.2187  Tot=              3.3749
 Quadrupole moment (field-independent basis, Debye-Ang):
   XX=           -121.9605   YY=            -82.8398   ZZ=           -110.0231
   XY=              0.3646   XZ=             -0.3093   YZ=             13.4581

  Exact polarizability: 112.126  11.285 317.473  24.013  45.281 303.766
 Approx polarizability: 181.171  16.908 528.626  40.597  57.911 509.951

                      1                      2                      3
                      A                      A                      A
 Frequencies --     39.7627                60.3659                72.9756
 Red. masses --      5.1787                 4.3384                 3.2970
 Frc consts  --      0.0048                 0.0093                 0.0103
 IR Inten    --      7.0642                 0.0002                 1.7545

                      4                      5                      6
                      A                      A                      A
 Frequencies --     99.9638               120.8231               135.7397
 Red. masses --      3.6467                 2.9113                 5.2842
 Frc consts  --      0.0215                 0.0250                 0.0574
 IR Inten    --      0.0000                 1.0821                 0.0000

                      7                      8                      9
                      A                      A                      A
 Frequencies --    176.7003               180.3023               188.0903
 Red. masses --      4.0168                 6.0247                 2.9719
 Frc consts  --      0.0739                 0.1154                 0.0619
 IR Inten    --      0.1188                 0.7751                 0.2174

                     10                     11                     12
                      A                      A                      A
 Frequencies --    188.8466               210.9309               260.1926
 Red. masses --      1.0892                 1.2940                 5.7650
 Frc consts  --      0.0229                 0.0339                 0.2300
 IR Inten    --      0.0024                 0.1784                 2.9424

                     13                     14                     15
                      A                      A                      A
 Frequencies --    297.8359               327.6435               328.0481
 Red. masses --      4.0563                 4.6322                 5.2254
 Frc consts  --      0.2120                 0.2930                 0.3313
 IR Inten    --      1.9382                 3.8913                 4.2869

                     16                     17                     18
                      A                      A                      A
 Frequencies --    360.9383               395.4099               397.8319
 Red. masses --      4.7313                 6.1664                10.4014
 Frc consts  --      0.3632                 0.5680                 0.9699
 IR Inten    --      0.0000                 1.7185                 0.0000

                     19                     20                     21
                      A                      A                      A
 Frequencies --    430.9447               433.8597               444.5452
 Red. masses --      3.3703                 6.0057                12.7812
 Frc consts  --      0.3688                 0.6661                 1.4882
 IR Inten    --      1.6505                 0.0003                20.7951

                     22                     23                     24
                      A                      A                      A
 Frequencies --    473.8991               501.7025               518.5105
 Red. masses --     10.4100                 4.8457                 6.1597
 Frc consts  --      1.3774                 0.7186                 0.9757
 IR Inten    --     18.7016                 0.0000                 4.4107

                     25                     26                     27
                      A                      A                      A
 Frequencies --    578.0065               586.5207               641.6019
 Red. masses --      2.5878                 4.7571                 5.1942
 Frc consts  --      0.5094                 0.9642                 1.2598
 IR Inten    --     33.6814                 4.1719                 0.0830

                     28                     29                     30
                      A                      A                      A
 Frequencies --    656.9132               665.4856               673.9459
 Red. masses --      1.5218                 1.1606                 6.0271
 Frc consts  --      0.3869                 0.3028                 1.6129
 IR Inten    --      0.0230                81.0940                12.4834

                     31                     32                     33
                      A                      A                      A
 Frequencies --    679.6407               729.6635               739.2717
 Red. masses --      2.1143                 5.6255                 5.9962
 Frc consts  --      0.5754                 1.7646                 1.9308
 IR Inten    --      0.0028                 3.0940                 0.0012

                     34                     35                     36
                      A                      A                      A
 Frequencies --    744.3462               759.8602               799.9022
 Red. masses --      1.8570                 5.2920                 6.3698
 Frc consts  --      0.6062                 1.8003                 2.4013
 IR Inten    --     87.7298                 3.9586                 0.0000

                     37                     38                     39
                      A                      A                      A
 Frequencies --    814.0549               829.0390               860.7603
 Red. masses --      2.1239                 1.8484                 6.3705
 Frc consts  --      0.8293                 0.7485                 2.7809
 IR Inten    --     16.2589                23.7794                 2.0537

                     40                     41                     42
                      A                      A                      A
 Frequencies --    893.3802               909.7511               946.8723
 Red. masses --      7.4627                 1.3881                 5.1146
 Frc consts  --      3.5093                 0.6769                 2.7017
 IR Inten    --      8.9437                 0.0000                 2.3357

                     43                     44                     45
                      A                      A                      A
 Frequencies --    956.5470               999.9525              1012.9134
 Red. masses --      1.3144                 1.3763                 1.3130
 Frc consts  --      0.7086                 0.8108                 0.7937
 IR Inten    --      0.0000                 1.7301                 0.0000

                     46                     47                     48
                      A                      A                      A
 Frequencies --   1028.9209              1059.5103              1111.4055
 Red. masses --      5.1883                 2.0196                 1.9267
 Frc consts  --      3.2362                 1.3357                 1.4022
 IR Inten    --    168.7584                 4.4007                11.1898

                     49                     50                     51
                      A                      A                      A
 Frequencies --   1114.0951              1118.1576              1142.3378
 Red. masses --      2.1480                 2.3469                 1.2737
 Frc consts  --      1.5708                 1.7288                 0.9793
 IR Inten    --      0.3723                 8.5414                 0.0053

                     52                     53                     54
                      A                      A                      A
 Frequencies --   1142.7865              1172.5905              1174.3359
 Red. masses --      1.2743                 1.5147                 2.2823
 Frc consts  --      0.9805                 1.2271                 1.8544
 IR Inten    --      0.4205                 1.3335                 7.2050

                     55                     56                     57
                      A                      A                      A
 Frequencies --   1187.1256              1195.8352              1210.7797
 Red. masses --      1.6186                 2.2131                 1.3399
 Frc consts  --      1.3439                 1.8646                 1.1574
 IR Inten    --     20.0582                 0.9453               198.8750

                     58                     59                     60
                      A                      A                      A
 Frequencies --   1260.1140              1277.2145              1301.1918
 Red. masses --      1.8078                 3.7852                 2.2686
 Frc consts  --      1.6913                 3.6380                 2.2631
 IR Inten    --      1.6992               532.1031               389.8319

                     61                     62                     63
                      A                      A                      A
 Frequencies --   1326.0138              1336.2882              1358.3617
 Red. masses --      2.3672                 2.2467                 7.5750
 Frc consts  --      2.4524                 2.3638                 8.2350
 IR Inten    --     74.9815                 4.8723                 0.1431

                     64                     65                     66
                      A                      A                      A
 Frequencies --   1375.1370              1413.9431              1426.3095
 Red. masses --      7.2562                 2.5236                 3.3058
 Frc consts  --      8.0844                 2.9726                 3.9623
 IR Inten    --     81.2292                35.0958                16.8428

                     67                     68                     69
                      A                      A                      A
 Frequencies --   1465.7594              1476.1054              1484.1771
 Red. masses --      1.1910                 1.4622                 2.5372
 Frc consts  --      1.5076                 1.8771                 3.2928
 IR Inten    --     57.8844                 0.1903                 3.6465

                     70                     71                     72
                      A                      A                      A
 Frequencies --   1489.4923              1489.6484              1505.8356
 Red. masses --      1.0404                 1.0404                 2.2574
 Frc consts  --      1.3600                 1.3602                 3.0158
 IR Inten    --      0.7924                16.6126                 1.2116

                     73                     74                     75
                      A                      A                      A
 Frequencies --   1510.0364              1516.1322              1534.9818
 Red. masses --      1.4932                 1.0581                 2.0078
 Frc consts  --      2.0061                 1.4330                 2.7873
 IR Inten    --      2.8708                29.6066                12.1470

                     76                     77                     78
                      A                      A                      A
 Frequencies --   1561.1394              1602.5816              1603.4380
 Red. masses --      3.6309                 2.4398                 4.5190
 Frc consts  --      5.2137                 3.6918                 6.8454
 IR Inten    --    318.8037               203.3858                84.9925

                     79                     80                     81
                      A                      A                      A
 Frequencies --   1618.6332              1635.6422              1654.1339
 Red. masses --      5.6784                 3.6162                 7.5142
 Frc consts  --      8.7654                 5.7000                12.1136
 IR Inten    --    282.1637               279.4386               180.1024

                     82                     83                     84
                      A                      A                      A
 Frequencies --   1683.3095              2990.3884              2991.3598
 Red. masses --      7.3808                 1.0393                 1.0393
 Frc consts  --     12.3219                 5.4756                 5.4795
 IR Inten    --     54.1765                70.3608               205.7409

                     85                     86                     87
                      A                      A                      A
 Frequencies --   3029.9841              3030.1343              3119.0845
 Red. masses --      1.1038                 1.1039                 1.0952
 Frc consts  --      5.9709                 5.9717                 6.2779
 IR Inten    --      0.1016                78.1162                31.1316

                     88                     89                     90
                      A                      A                      A
 Frequencies --   3119.2010              3165.6768              3181.1334
 Red. masses --      1.0953                 1.0868                 1.0925
 Frc consts  --      6.2785                 6.4172                 6.5136
 IR Inten    --      0.7335                 4.2464                20.2712

                     91                     92                     93
                      A                      A                      A
 Frequencies --   3190.9862              3203.1588              3205.2699
 Red. masses --      1.0860                 1.0921                 1.0938
 Frc consts  --      6.5154                 6.6018                 6.6209
 IR Inten    --      5.6847                 0.7357                14.1669

                     94                     95                     96
                      A                      A                      A
 Frequencies --   3207.6516              3446.1148              3449.5642
 Red. masses --      1.0939                 1.0799                 1.0797
 Frc consts  --      6.6314                 7.5564                 7.5696
 IR Inten    --      9.5010                54.5644                27.8633

 - Thermochemistry -
 -------------------
 Temperature   298.150 Kelvin.  Pressure   1.00000 Atm.
 Atom     1 has atomic number  6 and mass  12.00000

 Molecular mass:   266.10553 amu.
 Principal axes and moments of inertia in atomic units:
                           1         2         3
     Eigenvalues --  3882.392695836.056849695.70442
           X            0.09819   0.06770   0.99286
           Y            0.74707  -0.66413  -0.02860
           Z            0.65746   0.74454  -0.11579
 This molecule is an asymmetric top.
 Rotational symmetry number  1.
 Warning -- assumption of classical behavior for rotation
           may cause significant error
 Rotational temperatures (Kelvin)      0.02231     0.01484     0.00893
 Rotational constants (GHZ):           0.46485     0.30924     0.18614
 Zero-point vibrational energy     705901.4 (Joules/Mol)
                                  168.71449 (Kcal/Mol)
 Warning -- explicit consideration of  26 degrees of freedom as
           vibrations may cause significant error
 Vibrational temperatures:     57.21    86.85   105.00   143.83   173.84
          (Kelvin)            195.30   254.23   259.41   270.62   271.71
                              303.48   374.36   428.52   471.41   471.99
                              519.31   568.91   572.39   620.03   624.23
                              639.60   681.84   721.84   746.02   831.62
                              843.87   923.12   945.15   957.49   969.66
                              977.85  1049.82  1063.65  1070.95  1093.27
                             1150.88  1171.24  1192.80  1238.44  1285.37
                             1308.93  1362.34  1376.26  1438.71  1457.36
                             1480.39  1524.40  1599.06  1602.93  1608.78
                             1643.57  1644.21  1687.10  1689.61  1708.01
                             1720.54  1742.04  1813.02  1837.63  1872.12
                             1907.84  1922.62  1954.38  1978.52  2034.35
                             2052.14  2108.90  2123.79  2135.40  2143.05
                             2143.27  2166.56  2172.61  2181.38  2208.50
                             2246.13  2305.76  2306.99  2328.85  2353.32
                             2379.93  2421.91  4302.50  4303.90  4359.47
                             4359.69  4487.67  4487.83  4554.70  4576.94
                             4591.12  4608.63  4611.67  4615.10  4958.19
                             4963.15

 Zero-point correction=                           0.268864 (Hartree/Particle)
 Thermal correction to Energy=                    0.285629
 Thermal correction to Enthalpy=                  0.286574
 Thermal correction to Gibbs Free Energy=         0.224701
 Sum of electronic and zero-point Energies=           -878.080447
 Sum of electronic and thermal Energies=              -878.063681
 Sum of electronic and thermal Enthalpies=            -878.062737
 Sum of electronic and thermal Free Energies=         -878.124610

                     E (Thermal)             CV                S
                      KCal/Mol        Cal/Mol-Kelvin    Cal/Mol-Kelvin
 Total                  179.235             65.967            130.222
 Electronic               0.000              0.000              0.000
 Translational            0.889              2.981             42.635
 Rotational               0.889              2.981             33.751
 Vibrational            177.458             60.006             53.835
 Vibration     1          0.594              1.981              5.271
 Vibration     2          0.597              1.973              4.445
 Vibration     3          0.599              1.967              4.071
 Vibration     4          0.604              1.949              3.455
 Vibration     5          0.609              1.932              3.087
 Vibration     6          0.614              1.918              2.863
 Vibration     7          0.628              1.871              2.363
 Vibration     8          0.629              1.866              2.325
 Vibration     9          0.633              1.856              2.247
 Vibration    10          0.633              1.855              2.239
 Vibration    11          0.643              1.824              2.036
 Vibration    12          0.668              1.745              1.660
 Vibration    13          0.691              1.678              1.429
 Vibration    14          0.711              1.620              1.272
 Vibration    15          0.711              1.619              1.270
 Vibration    16          0.735              1.553              1.118
 Vibration    17          0.762              1.480              0.980
 Vibration    18          0.764              1.475              0.971
 Vibration    19          0.792              1.403              0.856
 Vibration    20          0.795              1.396              0.846
 Vibration    21          0.804              1.373              0.812
 Vibration    22          0.831              1.308              0.727
 Vibration    23          0.857              1.246              0.654
 Vibration    24          0.874              1.209              0.613
 Vibration    25          0.935              1.079              0.489
 Vibration    26          0.944              1.061              0.473

 Optimization completed.
    -- Stationary point found.
 Normal termination of Gaussian 16 at Thu Dec 21 11:27:59 2023.
