 Gaussian 16, Revision A.03,
 Gaussian 16:  ES64L-G16RevA.03 25-Dec-2016

 ----------------------------------------------------------------
 #P UB3LYP/6-311++G(d,p) SCRF=(PCM,Solvent=n,n-DiMethylFormamide)
 ----------------------------------------------------------------

 -------
 Reduced
 -------
 Symbolic Z-matrix:
 Charge = -2 Multiplicity = 1

                         Standard orientation:
 ---------------------------------------------------------------------
 Center     Atomic      Atomic             Coordinates (Angstroms)
 Number     Number       Type             X           Y           Z
 ---------------------------------------------------------------------
      1          6           0       -2.007872   -2.013581   -0.060186
      2          6           0       -3.341011   -1.691924   -0.126790
      3          6           0       -3.695308   -0.307473   -0.186774
      4          6           0       -0.979020   -1.034926   -0.031028
      5          6           0       -1.360416    0.365635   -0.085105
      6          6           0       -2.726912    0.685460   -0.161185
      7          6           0        0.397005   -1.461077    0.053119
      8          6           0        1.360483   -0.365501    0.084914
      9          6           0        0.979062    1.035069    0.030744
     10          6           0       -0.396932    1.461195   -0.053410
     11          6           0        2.726936   -0.685313    0.161237
     12          6           0        2.007952    2.013713    0.059766
     13          6           0        3.341072    1.692055    0.126486
     14          8           0        0.747674   -2.685905    0.091672
     15          8           0       -0.747627    2.686060   -0.091987
     16          1           0       -1.687678   -3.049736   -0.026676
     17          1           0        4.113424    2.450319    0.153644
     18          1           0       -2.988293    1.736725   -0.205647
     19          1           0        2.988290   -1.736580    0.205948
     20          1           0        1.687765    3.049863    0.026016
     21          6           0        3.695388    0.307602    0.186782
     22         16           0       -5.386716    0.148209   -0.128979
     23          1           0       -4.113338   -2.450200   -0.154228
     24         16           0        5.386716   -0.148183    0.129275
     25          8           0        5.589390   -1.523123    0.622677
     26          8           0        6.267464    0.907877    0.658840
     27          7           0        5.731176   -0.128533   -1.575008
     28          1           0        5.182897   -0.869018   -2.008499
     29          1           0        6.720748   -0.353012   -1.676986
     30          8           0       -5.589291    1.523438   -0.621581
     31          8           0       -6.267440   -0.907586   -0.659173
     32          7           0       -5.731374    0.127337    1.575069
     33          1           0       -6.721511    0.349196    1.677046
     34          1           0       -5.184835    0.868695    2.009218
 ---------------------------------------------------------------------

 SCF Done:  E(UB3LYP) =  -1897.26394792     A.U. after   16 cycles

 The electronic state is 1-A.
 Alpha  occ. eigenvalues --  -89.06697 -89.06696 -19.12066 -19.12066 -19.12064
 Alpha  occ. eigenvalues --  -19.12063 -19.03713 -19.03711 -14.33744 -14.33744
 Alpha  occ. eigenvalues --  -10.20117 -10.20116 -10.19610 -10.19608 -10.18159
 Alpha  occ. eigenvalues --  -10.18158 -10.17348 -10.17348 -10.16569 -10.16568
 Alpha  occ. eigenvalues --  -10.16065 -10.16064 -10.15585 -10.15584  -8.12888
 Alpha  occ. eigenvalues --   -8.12887  -6.09165  -6.09165  -6.09144  -6.09143
 Alpha  occ. eigenvalues --   -6.08959  -6.08959  -1.11920  -1.11919  -1.00878
 Alpha  occ. eigenvalues --   -1.00877  -0.96180  -0.95841  -0.90108  -0.90106
 Alpha  occ. eigenvalues --   -0.85716  -0.85346  -0.78856  -0.76221  -0.75294
 Alpha  occ. eigenvalues --   -0.74474  -0.68988  -0.67798  -0.63626  -0.62584
 Alpha  occ. eigenvalues --   -0.59260  -0.58309  -0.55225  -0.54983  -0.52726
 Alpha  occ. eigenvalues --   -0.52502  -0.51416  -0.51274  -0.49953  -0.48974
 Alpha  occ. eigenvalues --   -0.46921  -0.46461  -0.45788  -0.45616  -0.44964
 Alpha  occ. eigenvalues --   -0.42700  -0.42444  -0.41665  -0.40092  -0.39788
 Alpha  occ. eigenvalues --   -0.39350  -0.37893  -0.36762  -0.36371  -0.36332
 Alpha  occ. eigenvalues --   -0.35750  -0.35290  -0.34473  -0.34053  -0.33963
 Alpha  occ. eigenvalues --   -0.33183  -0.32467  -0.32104  -0.31939  -0.31210
 Alpha  occ. eigenvalues --   -0.31160  -0.28619  -0.28516  -0.25984  -0.25014
 Alpha  occ. eigenvalues --   -0.24455  -0.24160  -0.21905  -0.21206  -0.12516
 Alpha virt. eigenvalues --   -0.06187  -0.03047  -0.01313  -0.00763  -0.00456
 Alpha virt. eigenvalues --    0.01293   0.01361   0.02133   0.02497   0.02688
 Alpha virt. eigenvalues --    0.03575   0.03619   0.04496   0.04507   0.05099

  Beta  occ. eigenvalues --  -89.06697 -89.06696 -19.12066 -19.12066 -19.12064
  Beta  occ. eigenvalues --  -19.12063 -19.03713 -19.03711 -14.33744 -14.33744
  Beta  occ. eigenvalues --  -10.20117 -10.20116 -10.19610 -10.19608 -10.18159
  Beta  occ. eigenvalues --  -10.18158 -10.17348 -10.17348 -10.16569 -10.16568
  Beta  occ. eigenvalues --  -10.16065 -10.16064 -10.15585 -10.15584  -8.12888
  Beta  occ. eigenvalues --   -8.12887  -6.09165  -6.09165  -6.09144  -6.09143
  Beta  occ. eigenvalues --   -6.08959  -6.08959  -1.11920  -1.11919  -1.00878
  Beta  occ. eigenvalues --   -1.00877  -0.96180  -0.95841  -0.90108  -0.90106
  Beta  occ. eigenvalues --   -0.85716  -0.85346  -0.78856  -0.76221  -0.75294
  Beta  occ. eigenvalues --   -0.74474  -0.68988  -0.67798  -0.63626  -0.62584
  Beta  occ. eigenvalues --   -0.59260  -0.58309  -0.55225  -0.54983  -0.52726
  Beta  occ. eigenvalues --   -0.52502  -0.51416  -0.51274  -0.49953  -0.48974
  Beta  occ. eigenvalues --   -0.46921  -0.46461  -0.45788  -0.45616  -0.44964
  Beta  occ. eigenvalues --   -0.42700  -0.42444  -0.41665  -0.40092  -0.39788
  Beta  occ. eigenvalues --   -0.39350  -0.37893  -0.36762  -0.36371  -0.36332
  Beta  occ. eigenvalues --   -0.35750  -0.35290  -0.34473  -0.34053  -0.33963
  Beta  occ. eigenvalues --   -0.33183  -0.32467  -0.32104  -0.31939  -0.31210
  Beta  occ. eigenvalues --   -0.31160  -0.28619  -0.28516  -0.25984  -0.25014
  Beta  occ. eigenvalues --   -0.24455  -0.24160  -0.21905  -0.21206  -0.12516
  Beta virt. eigenvalues --   -0.06187  -0.03047  -0.01313  -0.00763  -0.00456
  Beta virt. eigenvalues --    0.01293   0.01361   0.02133   0.02497   0.02688
  Beta virt. eigenvalues --    0.03575   0.03619   0.04496   0.04507   0.05099

 Mulliken charges and spin densities:
               1          2
     1  C   -0.134438  -0.000000
     2  C   -0.456778   0.000000
     3  C   -0.108331  -0.000000
     4  C    0.545665  -0.000000
     5  C    0.092694   0.000000
     6  C   -0.106015   0.000000
     7  C   -0.574975  -0.000000
     8  C    0.092667   0.000000
     9  C    0.545404  -0.000000
    10  C   -0.575104  -0.000000
    11  C   -0.106289   0.000000
    12  C   -0.134197   0.000000
    13  C   -0.456775   0.000000
    14  O   -0.584486   0.000000
    15  O   -0.584581   0.000000
    16  H    0.155138  -0.000000
    17  H    0.230017   0.000000
    18  H    0.217011  -0.000000
    19  H    0.216967  -0.000000
    20  H    0.155143   0.000000
    21  C   -0.108324  -0.000000
    22  S    0.200603  -0.000000
    23  H    0.230023   0.000000
    24  S    0.200691  -0.000000
    25  O   -0.283316  -0.000000
    26  O   -0.337868   0.000000
    27  N   -0.470925  -0.000000
    28  H    0.294737  -0.000000
    29  H    0.321536  -0.000000
    30  O   -0.283321  -0.000000
    31  O   -0.338088   0.000000
    32  N   -0.470782   0.000000
    33  H    0.321525  -0.000000
    34  H    0.294772  -0.000000
 Sum of Mulliken charges =  -2.00000   0.00000

 Dipole moment (field-independent basis, Debye):
    X=             -0.0073    Y=             -0.0059    Z=              0.0021  Tot=              0.0096
 Quadrupole moment (field-independent basis, Debye-Ang):
   XX=           -290.7346   YY=           -213.6474   ZZ=           -161.6764
   XY=              0.8487   XZ=            -45.5905   YZ=             10.7876

 Normal termination of Gaussian 16 at Tue Jan 16 06:35:16 2024.
