 Gaussian 16, Revision A.03,
 Gaussian 16:  ES64L-G16RevA.03 25-Dec-2016

 --------------------------------------
 #P UB3LYP/6-311++G(d,p) nosym opt freq
 --------------------------------------

 -------
 Reduced
 -------
 Symbolic Z-matrix:
 Charge = -2 Multiplicity = 1

 SCF Done:  E(UB3LYP) =  -992.118401675     A.U. after   42 cycles
 SCF Done:  E(UB3LYP) =  -992.143876222     A.U. after   31 cycles
 SCF Done:  E(UB3LYP) =  -992.149556433     A.U. after   23 cycles
 SCF Done:  E(UB3LYP) =  -992.152902314     A.U. after   19 cycles
 SCF Done:  E(UB3LYP) =  -992.154236695     A.U. after   18 cycles
 SCF Done:  E(UB3LYP) =  -992.154910222     A.U. after   19 cycles
 SCF Done:  E(UB3LYP) =  -992.154828645     A.U. after   18 cycles
 SCF Done:  E(UB3LYP) =  -992.155225298     A.U. after   18 cycles
 SCF Done:  E(UB3LYP) =  -992.155646569     A.U. after   17 cycles
 SCF Done:  E(UB3LYP) =  -992.155743948     A.U. after   17 cycles
 SCF Done:  E(UB3LYP) =  -992.159379657     A.U. after   17 cycles
 SCF Done:  E(UB3LYP) =  -992.159666799     A.U. after   14 cycles
 SCF Done:  E(UB3LYP) =  -992.159882935     A.U. after   15 cycles
 SCF Done:  E(UB3LYP) =  -992.160070192     A.U. after   15 cycles
 SCF Done:  E(UB3LYP) =  -992.160135303     A.U. after   15 cycles
 SCF Done:  E(UB3LYP) =  -992.160188366     A.U. after   15 cycles
 SCF Done:  E(UB3LYP) =  -992.160233882     A.U. after   13 cycles
 SCF Done:  E(UB3LYP) =  -992.160235371     A.U. after   11 cycles
 SCF Done:  E(UB3LYP) =  -992.160235986     A.U. after   11 cycles
 Optimization completed.
    -- Stationary point found.
 Normal termination of Gaussian 16 at Thu Dec 21 10:32:07 2023.

 ----------------------------------------------------------------------
 #P Geom=AllCheck Guess=TCheck SCRF=Check GenChk UB3LYP/6-311++G(d,p) F
 req
 ----------------------------------------------------------------------

 Structure from the checkpoint file:  "180-an.chk"
 -------
 Reduced
 -------
 Charge = -2 Multiplicity = 1

                          Input orientation:
 ---------------------------------------------------------------------
 Center     Atomic      Atomic             Coordinates (Angstroms)
 Number     Number       Type             X           Y           Z
 ---------------------------------------------------------------------
      1          6           0       -1.585153    1.927335   -4.708097
      2          6           0       -1.518808    0.572775   -4.933549
      3          6           0       -1.200130   -0.316526   -3.866002
      4          6           0       -1.342846    2.484602   -3.413817
      5          6           0       -1.022866    1.582520   -2.329048
      6          6           0       -0.961443    0.196830   -2.606810
      7          6           0       -1.407519    3.864800   -3.179818
      8          6           0       -0.763386    2.051364   -0.982575
      9          6           0       -1.178075    4.382368   -1.882208
     10          6           0       -0.866525    3.490133   -0.781068
     11          6           0       -1.280469    5.840040   -1.675503
     12          6           0       -1.076687    6.322716   -0.375646
     13          6           0       -0.784467    5.450859    0.694729
     14          6           0       -0.679924    4.099199    0.498421
     15          8           0       -1.707077    4.701489   -4.228527
     16          8           0       -0.461581    1.227599   -0.048502
     17          1           0       -1.824999    2.613522   -5.513098
     18          1           0       -1.708342    0.177974   -5.930401
     19          1           0       -1.144290   -1.388034   -4.045842
     20          1           0       -0.712888   -0.449586   -1.771065
     21          1           0       -0.643626    5.838973    1.700482
     22          8           0       -1.557777    6.630158   -2.675747
     23          8           0       -0.510523    3.299023    1.660702
     24          6           0        0.657197    2.659245    1.865583
     25          6           0        0.447872    1.503011    2.817294
     26          8           0        1.732279    2.992397    1.422276
     27          1           0       -1.153507    7.394398   -0.214146
     28          1           0       -1.697985    5.627314   -3.793016
     29          1           0       -0.027246    0.716294    2.226481
     30          1           0       -0.225302    1.786766    3.631297
     31          1           0        1.406953    1.163343    3.211556
 ---------------------------------------------------------------------

 SCF Done:  E(UB3LYP) =  -992.160235986     A.U. after    1 cycles

 Alpha  occ. eigenvalues --  -18.92826 -18.88142 -18.85741 -18.81205 -18.79606
 Alpha  occ. eigenvalues --  -10.07790  -9.96960  -9.96660  -9.96565  -9.96133
 Alpha  occ. eigenvalues --   -9.95682  -9.94395  -9.93781  -9.93649  -9.93298
 Alpha  occ. eigenvalues --   -9.92338  -9.92319  -9.92144  -9.92096  -9.91585
 Alpha  occ. eigenvalues --   -9.90236  -0.87105  -0.79177  -0.77490  -0.71932
 Alpha  occ. eigenvalues --   -0.71665  -0.61355  -0.58991  -0.54580  -0.53238
 Alpha  occ. eigenvalues --   -0.51154  -0.48912  -0.47354  -0.42977  -0.39105
 Alpha  occ. eigenvalues --   -0.37991  -0.37068  -0.33016  -0.30723  -0.29271
 Alpha  occ. eigenvalues --   -0.27172  -0.26339  -0.25437  -0.24647  -0.22865
 Alpha  occ. eigenvalues --   -0.22559  -0.21733  -0.20725  -0.19841  -0.19232
 Alpha  occ. eigenvalues --   -0.18334  -0.17322  -0.16530  -0.15787  -0.15094
 Alpha  occ. eigenvalues --   -0.14230  -0.13867  -0.13177  -0.12679  -0.11210
 Alpha  occ. eigenvalues --   -0.10931  -0.09991  -0.09327  -0.08685  -0.07413
 Alpha  occ. eigenvalues --   -0.05681  -0.04828  -0.02227  -0.01059   0.00545
 Alpha  occ. eigenvalues --    0.01159   0.03081   0.05002   0.10982
 Alpha virt. eigenvalues --    0.15459   0.15576   0.17268   0.17609   0.18661
 Alpha virt. eigenvalues --    0.19437   0.19669   0.19994   0.20348   0.22038
 Alpha virt. eigenvalues --    0.22199   0.23055   0.23544   0.24445   0.24569

  Beta  occ. eigenvalues --  -18.92826 -18.88142 -18.85741 -18.81205 -18.79606
  Beta  occ. eigenvalues --  -10.07790  -9.96960  -9.96660  -9.96565  -9.96133
  Beta  occ. eigenvalues --   -9.95682  -9.94395  -9.93781  -9.93649  -9.93298
  Beta  occ. eigenvalues --   -9.92338  -9.92319  -9.92144  -9.92096  -9.91585
  Beta  occ. eigenvalues --   -9.90236  -0.87105  -0.79177  -0.77490  -0.71932
  Beta  occ. eigenvalues --   -0.71665  -0.61355  -0.58991  -0.54580  -0.53238
  Beta  occ. eigenvalues --   -0.51154  -0.48912  -0.47354  -0.42977  -0.39105
  Beta  occ. eigenvalues --   -0.37991  -0.37068  -0.33016  -0.30723  -0.29271
  Beta  occ. eigenvalues --   -0.27172  -0.26339  -0.25437  -0.24647  -0.22865
  Beta  occ. eigenvalues --   -0.22559  -0.21733  -0.20725  -0.19841  -0.19232
  Beta  occ. eigenvalues --   -0.18334  -0.17322  -0.16530  -0.15787  -0.15094
  Beta  occ. eigenvalues --   -0.14230  -0.13867  -0.13177  -0.12679  -0.11210
  Beta  occ. eigenvalues --   -0.10931  -0.09991  -0.09327  -0.08685  -0.07413
  Beta  occ. eigenvalues --   -0.05681  -0.04828  -0.02227  -0.01059   0.00545
  Beta  occ. eigenvalues --    0.01159   0.03081   0.05002   0.10982
  Beta virt. eigenvalues --    0.15459   0.15576   0.17268   0.17609   0.18661
  Beta virt. eigenvalues --    0.19437   0.19669   0.19994   0.20348   0.22038
  Beta virt. eigenvalues --    0.22199   0.23055   0.23544   0.24445   0.24569

 Mulliken charges and spin densities:
               1          2
     1  C   -0.229842   0.000000
     2  C   -0.481795  -0.000000
     3  C   -0.427452  -0.000000
     4  C    0.349122   0.000000
     5  C    0.031413   0.000000
     6  C   -0.056467   0.000000
     7  C   -0.154366  -0.000000
     8  C   -0.366906   0.000000
     9  C    0.791288   0.000000
    10  C    0.620891   0.000000
    11  C   -0.836477  -0.000000
    12  C   -0.074142   0.000000
    13  C    0.160662  -0.000000
    14  C   -0.475228  -0.000000
    15  O   -0.481576  -0.000000
    16  O   -0.459725  -0.000000
    17  H    0.119355  -0.000000
    18  H    0.078831   0.000000
    19  H    0.083940   0.000000
    20  H    0.121774  -0.000000
    21  H    0.095302   0.000000
    22  O   -0.557533   0.000000
    23  O   -0.020106   0.000000
    24  C   -0.042323   0.000000
    25  C   -0.437904  -0.000000
    26  O   -0.254786   0.000000
    27  H    0.088344   0.000000
    28  H    0.402878  -0.000000
    29  H    0.204497  -0.000000
    30  H    0.109691  -0.000000
    31  H    0.098640   0.000000
 Sum of Mulliken charges =  -2.00000   0.00000

 Dipole moment (field-independent basis, Debye):
    X=              7.4986    Y=            -33.4992    Z=             16.0862  Tot=             37.9103
 Quadrupole moment (field-independent basis, Debye-Ang):
   XX=           -154.2905   YY=           -304.7799   ZZ=           -202.8887
   XY=             32.5886   XZ=            -30.0887   YZ=             58.3524

  Exact polarizability: 152.357  -8.960 347.648  42.618  53.670 328.910
 Approx polarizability: 241.069 -18.938 600.291  63.776  78.906 546.898

                      1                      2                      3
                      A                      A                      A
 Frequencies --     40.8694                58.1142                78.0847
 Red. masses --      8.1782                 5.7444                 6.8404
 Frc consts  --      0.0080                 0.0114                 0.0246
 IR Inten    --      2.0473                 0.3614                 2.8863

                      4                      5                      6
                      A                      A                      A
 Frequencies --     92.7798               117.1410               133.1630
 Red. masses --      7.6576                 3.3682                 1.0859
 Frc consts  --      0.0388                 0.0272                 0.0113
 IR Inten    --      1.7198                 8.0018                 0.3130

                      7                      8                      9
                      A                      A                      A
 Frequencies --    140.9190               149.6485               181.1887
 Red. masses --      5.1233                 6.7825                 8.1231
 Frc consts  --      0.0599                 0.0895                 0.1571
 IR Inten    --      0.5315                 1.2928                 1.4384

                     10                     11                     12
                      A                      A                      A
 Frequencies --    222.1623               262.8870               295.8405
 Red. masses --      5.9914                 6.3844                 4.3742
 Frc consts  --      0.1742                 0.2600                 0.2256
 IR Inten    --      8.1178                 0.2880                 2.3772

                     13                     14                     15
                      A                      A                      A
 Frequencies --    321.5898               351.4863               369.7450
 Red. masses --      7.4457                 8.5073                 6.9416
 Frc consts  --      0.4537                 0.6192                 0.5591
 IR Inten    --      5.3867                16.6308                 2.5115

                     16                     17                     18
                      A                      A                      A
 Frequencies --    384.5195               386.1394               404.8768
 Red. masses --      6.6635                 9.9951                 6.2416
 Frc consts  --      0.5805                 0.8781                 0.6028
 IR Inten    --      0.4851                 2.9981                14.4185

                     19                     20                     21
                      A                      A                      A
 Frequencies --    438.3129               444.0014               490.5812
 Red. masses --      5.0216                 4.1242                 6.8011
 Frc consts  --      0.5684                 0.4790                 0.9644
 IR Inten    --      3.0565                 4.3810                10.4034

                     22                     23                     24
                      A                      A                      A
 Frequencies --    497.7365               512.1463               532.8539
 Red. masses --      4.9283                 6.5589                 7.4179
 Frc consts  --      0.7194                 1.0136                 1.2409
 IR Inten    --      4.7451                 3.8021                14.7785

                     25                     26                     27
                      A                      A                      A
 Frequencies --    556.8671               580.3116               598.7477
 Red. masses --      3.3006                 3.4352                 5.4736
 Frc consts  --      0.6030                 0.6816                 1.1561
 IR Inten    --     13.9190                35.2263                15.4781

                     28                     29                     30
                      A                      A                      A
 Frequencies --    608.7378               643.0808               668.6229
 Red. masses --      4.4271                 5.8546                 5.6428
 Frc consts  --      0.9666                 1.4265                 1.4863
 IR Inten    --      3.1188                 2.6062                 5.1780

                     31                     32                     33
                      A                      A                      A
 Frequencies --    698.6254               704.6651               717.7097
 Red. masses --      1.8159                 4.4519                 3.7113
 Frc consts  --      0.5222                 1.3024                 1.1263
 IR Inten    --     16.8973                 5.3137                 1.3034

                     34                     35                     36
                      A                      A                      A
 Frequencies --    734.5234               762.9327               782.8573
 Red. masses --      1.9305                 4.6032                 2.2012
 Frc consts  --      0.6137                 1.5786                 0.7948
 IR Inten    --     51.0224                22.0678                 2.1812

                     37                     38                     39
                      A                      A                      A
 Frequencies --    791.7860               807.3144               834.1805
 Red. masses --      2.9811                 3.5354                 2.7829
 Frc consts  --      1.1012                 1.3576                 1.1410
 IR Inten    --     23.0943                 0.0505                22.1414

                     40                     41                     42
                      A                      A                      A
 Frequencies --    852.1196               891.8411               923.5830
 Red. masses --      2.1860                 6.7210                 6.4202
 Frc consts  --      0.9352                 3.1496                 3.2266
 IR Inten    --     17.1491                48.5797                 5.8266

                     43                     44                     45
                      A                      A                      A
 Frequencies --    935.2445               951.0911               962.8190
 Red. masses --      1.2489                 5.3694                 1.3094
 Frc consts  --      0.6436                 2.8617                 0.7152
 IR Inten    --      2.4286                40.6903                 1.4263

                     46                     47                     48
                      A                      A                      A
 Frequencies --   1000.4670              1012.2628              1022.2311
 Red. masses --      1.0525                 2.3171                 1.7816
 Frc consts  --      0.6207                 1.3989                 1.0969
 IR Inten    --     63.6787                44.5372                91.0583

                     49                     50                     51
                      A                      A                      A
 Frequencies --   1043.0117              1057.5280              1086.3597
 Red. masses --      1.7754                 2.1751                 2.9696
 Frc consts  --      1.1380                 1.4332                 2.0649
 IR Inten    --     40.0794               103.9865                55.0816

                     52                     53                     54
                      A                      A                      A
 Frequencies --   1124.7812              1144.6792              1159.0156
 Red. masses --      1.6136                 1.6308                 2.1355
 Frc consts  --      1.2028                 1.2590                 1.6901
 IR Inten    --     77.8578                42.6125                11.0486

                     55                     56                     57
                      A                      A                      A
 Frequencies --   1196.4845              1218.9978              1242.8001
 Red. masses --      2.1924                 3.0501                 3.2474
 Frc consts  --      1.8492                 2.6703                 2.9552
 IR Inten    --     34.0447               205.2144               263.3550

                     58                     59                     60
                      A                      A                      A
 Frequencies --   1248.6438              1284.9013              1312.2120
 Red. masses --      2.4594                 5.4007                 3.4746
 Frc consts  --      2.2592                 5.2534                 3.5251
 IR Inten    --    110.0168                42.1633               102.4388

                     61                     62                     63
                      A                      A                      A
 Frequencies --   1323.9711              1352.7055              1360.0896
 Red. masses --      4.8260                 2.9676                 1.8710
 Frc consts  --      4.9841                 3.1994                 2.0392
 IR Inten    --     19.6976               292.4837               120.7778

                     64                     65                     66
                      A                      A                      A
 Frequencies --   1379.0066              1409.8993              1439.4201
 Red. masses --      3.5067                 3.0703                 4.4108
 Frc consts  --      3.9290                 3.5959                 5.3844
 IR Inten    --     41.5071               234.2567                58.8264

                     67                     68                     69
                      A                      A                      A
 Frequencies --   1454.3912              1464.3039              1482.6727
 Red. masses --      2.6123                 1.1787                 1.2315
 Frc consts  --      3.2556                 1.4891                 1.5950
 IR Inten    --    624.6442                54.4819                65.5577

                     70                     71                     72
                      A                      A                      A
 Frequencies --   1486.2290              1502.6725              1526.0131
 Red. masses --      2.7199                 3.1604                 6.5314
 Frc consts  --      3.5398                 4.2045                 8.9613
 IR Inten    --    389.1135                 5.7741               223.2283

                     73                     74                     75
                      A                      A                      A
 Frequencies --   1568.4381              1597.4249              1610.6733
 Red. masses --      5.6143                 6.3309                 5.8531
 Frc consts  --      8.1373                 9.5182                 8.9465
 IR Inten    --     36.3427                73.5754                12.7010

                     76                     77                     78
                      A                      A                      A
 Frequencies --   1658.1692              1768.7433              2677.9630
 Red. masses --      1.7165                11.2612                 1.0806
 Frc consts  --      2.7806                20.7570                 4.5661
 IR Inten    --     33.6030               312.0918               669.1658

                     79                     80                     81
                      A                      A                      A
 Frequencies --   3025.4267              3096.4177              3097.5796
 Red. masses --      1.0336                 1.0831                 1.1000
 Frc consts  --      5.5740                 6.1186                 6.2183
 IR Inten    --     82.3610                43.1197                25.4367

                     82                     83                     84
                      A                      A                      A
 Frequencies --   3119.2221              3120.9886              3121.6463
 Red. masses --      1.1036                 1.0902                 1.0852
 Frc consts  --      6.3264                 6.2566                 6.2306
 IR Inten    --     15.2515               105.6483                50.0567

                     85                     86                     87
                      A                      A                      A
 Frequencies --   3144.7731              3162.9046              3169.8242
 Red. masses --      1.0925                 1.0907                 1.0913
 Frc consts  --      6.3658                 6.4288                 6.4602
 IR Inten    --     98.0709                32.0985                40.5905

 - Thermochemistry -
 -------------------
 Temperature   298.150 Kelvin.  Pressure   1.00000 Atm.
 Atom     1 has atomic number  6 and mass  12.00000

 Molecular mass:   282.05282 amu.
 Principal axes and moments of inertia in atomic units:
                           1         2         3
     Eigenvalues --  4159.839166171.572859934.61588
           X            0.27471  -0.17829   0.94485
           Y            0.20574   0.97080   0.12337
           Z            0.93926  -0.16051  -0.30337
 This molecule is an asymmetric top.
 Rotational symmetry number  1.
 Warning -- assumption of classical behavior for rotation
           may cause significant error
 Rotational temperatures (Kelvin)      0.02082     0.01403     0.00872
 Rotational constants (GHZ):           0.43385     0.29243     0.18166
 Zero-point vibrational energy     575346.3 (Joules/Mol)
                                  137.51107 (Kcal/Mol)
 Warning -- explicit consideration of  28 degrees of freedom as
           vibrations may cause significant error
 Vibrational temperatures:     58.80    83.61   112.35   133.49   168.54
          (Kelvin)            191.59   202.75   215.31   260.69   319.64
                              378.24   425.65   462.70   505.71   531.98
                              553.24   555.57   582.53   630.63   638.82
                              705.84   716.13   736.86   766.66   801.21
                              834.94   861.46   875.84   925.25   962.00
                             1005.17  1013.86  1032.62  1056.82  1097.69
                             1126.36  1139.20  1161.55  1200.20  1226.01
                             1283.16  1328.83  1345.61  1368.41  1385.28
                             1439.45  1456.42  1470.76  1500.66  1521.55
                             1563.03  1618.31  1646.94  1667.56  1721.47
                             1753.87  1788.11  1796.52  1848.69  1887.98
                             1904.90  1946.24  1956.87  1984.08  2028.53
                             2071.00  2092.54  2106.81  2133.24  2138.35
                             2162.01  2195.59  2256.63  2298.34  2317.40
                             2385.74  2544.83  3852.99  4352.91  4455.05
                             4456.73  4487.86  4490.41  4491.35  4524.63
                             4550.71  4560.67

 Zero-point correction=                           0.219138 (Hartree/Particle)
 Thermal correction to Energy=                    0.235823
 Thermal correction to Enthalpy=                  0.236767
 Thermal correction to Gibbs Free Energy=         0.174871
 Sum of electronic and zero-point Energies=           -991.941098
 Sum of electronic and thermal Energies=              -991.924413
 Sum of electronic and thermal Enthalpies=            -991.923468
 Sum of electronic and thermal Free Energies=         -991.985365

                     E (Thermal)             CV                S
                      KCal/Mol        Cal/Mol-Kelvin    Cal/Mol-Kelvin
 Total                  147.981             66.153            130.273
 Electronic               0.000              0.000              0.000
 Translational            0.889              2.981             42.809
 Rotational               0.889              2.981             33.900
 Vibrational            146.204             60.191             53.565
 Vibration     1          0.594              1.981              5.216
 Vibration     2          0.596              1.974              4.520
 Vibration     3          0.599              1.964              3.938
 Vibration     4          0.602              1.954              3.601
 Vibration     5          0.608              1.935              3.147
 Vibration     6          0.613              1.920              2.900
 Vibration     7          0.615              1.912              2.791
 Vibration     8          0.618              1.903              2.677
 Vibration     9          0.630              1.865              2.316
 Vibration    10          0.648              1.807              1.941
 Vibration    11          0.670              1.741              1.643
 Vibration    12          0.690              1.681              1.440
 Vibration    13          0.707              1.632              1.302
 Vibration    14          0.728              1.572              1.160
 Vibration    15          0.742              1.534              1.081
 Vibration    16          0.753              1.503              1.021
 Vibration    17          0.755              1.500              1.015
 Vibration    18          0.770              1.460              0.945
 Vibration    19          0.798              1.387              0.832
 Vibration    20          0.804              1.374              0.814
 Vibration    21          0.846              1.271              0.682
 Vibration    22          0.853              1.255              0.664
 Vibration    23          0.867              1.223              0.628
 Vibration    24          0.888              1.177              0.581
 Vibration    25          0.912              1.125              0.530
 Vibration    26          0.937              1.074              0.485
 Vibration    27          0.957              1.034              0.452
 Vibration    28          0.968              1.013              0.435

 Optimization completed.
    -- Stationary point found.
 Normal termination of Gaussian 16 at Thu Dec 21 11:41:19 2023.
