 Gaussian 16, Revision A.03,
 Gaussian 16:  ES64L-G16RevA.03 25-Dec-2016

 ----------------------------------------------------------------
 #P UB3LYP/6-311++G(d,p) SCRF=(PCM,Solvent=n,n-DiMethylFormamide)
 ----------------------------------------------------------------

 -------
 Reduced
 -------
 Symbolic Z-matrix:
 Charge = -2 Multiplicity = 1

                         Standard orientation:
 ---------------------------------------------------------------------
 Center     Atomic      Atomic             Coordinates (Angstroms)
 Number     Number       Type             X           Y           Z
 ---------------------------------------------------------------------
      1          6           0       -1.042228   -1.497206   -0.047850
      2          6           0        0.111859   -0.703787   -0.023759
      3          6           0        0.069717    0.716359    0.039590
      4          6           0       -1.143479    1.467844    0.045106
      5          6           0       -2.342908    0.642747    0.027221
      6          6           0       -2.263440   -0.731747   -0.031777
      7          8           0       -1.163058   -2.801957   -0.055499
      8          8           0       -1.226556    2.750058    0.050495
      9          8           0       -3.375504   -1.556520   -0.043771
     10          6           0       -3.668797    1.356442    0.043824
     11         35           0        1.800584   -1.689069    0.040552
     12         35           0        1.705502    1.778307   -0.040888
     13          1           0       -3.739843    2.027119    0.910471
     14          1           0       -4.496436    0.641918    0.068419
     15          1           0       -3.779702    2.004931   -0.836897
     16          1           0       -2.900402   -2.433842   -0.054154
 ---------------------------------------------------------------------

 SCF Done:  E(UB3LYP) =  -5643.51183568     A.U. after   17 cycles

 The electronic state is 1-A.
 Alpha  occ. eigenvalues -- -482.80840-482.80436 -62.46114 -62.45707 -56.28126
 Alpha  occ. eigenvalues --  -56.27782 -56.27758 -56.27716 -56.27378 -56.27354
 Alpha  occ. eigenvalues --  -19.11417 -19.03848 -19.02442 -10.19088 -10.18964
 Alpha  occ. eigenvalues --  -10.18764 -10.18417 -10.18085 -10.14359 -10.13867
 Alpha  occ. eigenvalues --   -8.67067  -8.66663  -6.50123  -6.49708  -6.48984
 Alpha  occ. eigenvalues --   -6.48912  -6.48585  -6.48514  -2.61230  -2.60916
 Alpha  occ. eigenvalues --   -2.60863  -2.60817  -2.60508  -2.60454  -2.59956
 Alpha  occ. eigenvalues --   -2.59956  -2.59560  -2.59560  -1.02817  -0.94363
 Alpha  occ. eigenvalues --   -0.93860  -0.81864  -0.77101  -0.76403  -0.71421
 Alpha  occ. eigenvalues --   -0.65448  -0.63714  -0.54950  -0.53822  -0.49348
 Alpha  occ. eigenvalues --   -0.45441  -0.41470  -0.40953  -0.39021  -0.37799
 Alpha  occ. eigenvalues --   -0.37603  -0.37130  -0.36639  -0.34749  -0.33408
 Alpha  occ. eigenvalues --   -0.31941  -0.31882  -0.28984  -0.28484  -0.27875
 Alpha  occ. eigenvalues --   -0.25827  -0.22959  -0.22655  -0.20406  -0.19285
 Alpha  occ. eigenvalues --   -0.13110
 Alpha virt. eigenvalues --   -0.02078   0.00354   0.01528   0.02014   0.02453
 Alpha virt. eigenvalues --    0.02600   0.03891   0.04419   0.05161   0.05341
 Alpha virt. eigenvalues --    0.05482   0.06422   0.06543   0.06868   0.07984

  Beta  occ. eigenvalues -- -482.80840-482.80436 -62.46114 -62.45707 -56.28126
  Beta  occ. eigenvalues --  -56.27782 -56.27758 -56.27716 -56.27378 -56.27354
  Beta  occ. eigenvalues --  -19.11417 -19.03848 -19.02442 -10.19088 -10.18964
  Beta  occ. eigenvalues --  -10.18764 -10.18417 -10.18085 -10.14359 -10.13867
  Beta  occ. eigenvalues --   -8.67067  -8.66663  -6.50123  -6.49708  -6.48984
  Beta  occ. eigenvalues --   -6.48912  -6.48585  -6.48514  -2.61230  -2.60916
  Beta  occ. eigenvalues --   -2.60863  -2.60817  -2.60508  -2.60454  -2.59956
  Beta  occ. eigenvalues --   -2.59956  -2.59560  -2.59560  -1.02817  -0.94363
  Beta  occ. eigenvalues --   -0.93860  -0.81864  -0.77101  -0.76403  -0.71421
  Beta  occ. eigenvalues --   -0.65448  -0.63714  -0.54950  -0.53822  -0.49348
  Beta  occ. eigenvalues --   -0.45441  -0.41470  -0.40953  -0.39021  -0.37799
  Beta  occ. eigenvalues --   -0.37603  -0.37130  -0.36639  -0.34749  -0.33408
  Beta  occ. eigenvalues --   -0.31941  -0.31882  -0.28984  -0.28484  -0.27875
  Beta  occ. eigenvalues --   -0.25827  -0.22959  -0.22655  -0.20406  -0.19285
  Beta  occ. eigenvalues --   -0.13110
  Beta virt. eigenvalues --   -0.02078   0.00354   0.01528   0.02014   0.02453
  Beta virt. eigenvalues --    0.02600   0.03891   0.04419   0.05161   0.05341
  Beta virt. eigenvalues --    0.05482   0.06422   0.06543   0.06868   0.07984

 Mulliken charges and spin densities:
               1          2
     1  C   -0.742496   0.000000
     2  C    0.645680   0.000000
     3  C   -0.065130  -0.000000
     4  C   -0.687810  -0.000000
     5  C    1.742416  -0.000000
     6  C   -1.359929   0.000000
     7  O   -0.661979  -0.000000
     8  O   -0.621543  -0.000000
     9  O   -0.351239  -0.000000
    10  C   -0.199595   0.000000
    11  Br  -0.209032   0.000000
    12  Br  -0.231437  -0.000000
    13  H    0.148802   0.000000
    14  H    0.164030  -0.000000
    15  H    0.146497   0.000000
    16  H    0.282766   0.000000
 Sum of Mulliken charges =  -2.00000   0.00000

 Dipole moment (field-independent basis, Debye):
    X=              6.8228    Y=             -0.4634    Z=              0.0003  Tot=              6.8385
 Quadrupole moment (field-independent basis, Debye-Ang):
   XX=           -131.3933   YY=           -160.5180   ZZ=           -103.4182
   XY=             -1.1878   XZ=             -0.1164   YZ=             -0.9355

 Normal termination of Gaussian 16 at Sun Jan 28 16:49:27 2024.
