 Gaussian 16, Revision A.03,
 Gaussian 16:  ES64L-G16RevA.03 25-Dec-2016

 ----------------------------------------------------------------
 #P UB3LYP/6-311++G(d,p) SCRF=(PCM,Solvent=n,n-DiMethylFormamide)
 ----------------------------------------------------------------

 ------------------
 Radical PCM in DMF
 ------------------
 Symbolic Z-matrix:
 Charge = -1 Multiplicity = 2

                         Standard orientation:
 ---------------------------------------------------------------------
 Center     Atomic      Atomic             Coordinates (Angstroms)
 Number     Number       Type             X           Y           Z
 ---------------------------------------------------------------------
      1          6           0       -0.202785   -1.446618   -0.000272
      2          6           0        1.152922   -0.881978   -0.000262
      3          6           0        1.293012    0.482297   -0.000140
      4          6           0        0.202754    1.446594   -0.000137
      5          6           0       -1.152928    0.881958    0.000070
      6          6           0       -1.293033   -0.482319   -0.000058
      7          8           0        0.395274    2.685939    0.000124
      8          8           0       -0.395314   -2.685963   -0.000097
      9         35           0       -3.050754   -1.321984    0.000183
     10         35           0        3.050721    1.321982   -0.000079
     11          6           0       -2.326459    1.853031    0.000168
     12          6           0       -2.367813    2.718699   -1.274598
     13          6           0       -2.366759    2.719830    1.274175
     14          6           0        2.326485   -1.853033   -0.000086
     15          6           0        2.367285   -2.719667   -1.274189
     16          6           0        2.367455   -2.718803    1.274624
     17          1           0       -3.231873    1.245437    0.000761
     18          1           0       -2.398346    2.088816   -2.168922
     19          1           0       -1.491075    3.364301   -1.333583
     20          1           0       -3.268998    3.343444   -1.272859
     21          1           0       -2.397146    2.090724    2.169052
     22          1           0       -3.267630    3.345016    1.272290
     23          1           0       -1.489620    3.364976    1.332055
     24          1           0        3.231872   -1.245396   -0.000309
     25          1           0        3.268239   -3.344737   -1.272106
     26          1           0        2.397890   -2.090417   -2.168955
     27          1           0        1.490253   -3.364922   -1.332434
     28          1           0        3.268704   -3.343458    1.273169
     29          1           0        1.490767   -3.364503    1.333240
     30          1           0        2.397613   -2.088961    2.168988
 ---------------------------------------------------------------------

 SCF Done:  E(UB3LYP) =  -5764.75257552     A.U. after   19 cycles

 The electronic state is 2-A.
 Alpha  occ. eigenvalues -- -482.82136-482.82136 -62.47417 -62.47417 -56.29435
 Alpha  occ. eigenvalues --  -56.29435 -56.29086 -56.29086 -56.29051 -56.29051
 Alpha  occ. eigenvalues --  -19.08287 -19.08287 -10.23533 -10.23532 -10.21895
 Alpha  occ. eigenvalues --  -10.21894 -10.18638 -10.18637 -10.17445 -10.17444
 Alpha  occ. eigenvalues --  -10.14984 -10.14984 -10.14982 -10.14981  -8.68383
 Alpha  occ. eigenvalues --   -8.68382  -6.51461  -6.51461  -6.50299  -6.50299
 Alpha  occ. eigenvalues --   -6.50203  -6.50203  -2.62565  -2.62565  -2.62250
 Alpha  occ. eigenvalues --   -2.62250  -2.62178  -2.62178  -2.61252  -2.61252
 Alpha  occ. eigenvalues --   -2.61252  -2.61252  -1.01401  -1.01128  -0.85559
 Alpha  occ. eigenvalues --   -0.82766  -0.78649  -0.78471  -0.76252  -0.71142
 Alpha  occ. eigenvalues --   -0.67718  -0.67712  -0.67449  -0.62579  -0.57390
 Alpha  occ. eigenvalues --   -0.56741  -0.53727  -0.51183  -0.46113  -0.44811
 Alpha  occ. eigenvalues --   -0.44108  -0.43522  -0.42925  -0.41529  -0.41404
 Alpha  occ. eigenvalues --   -0.40723  -0.39800  -0.39716  -0.39575  -0.37376
 Alpha  occ. eigenvalues --   -0.36794  -0.36569  -0.34749  -0.34618  -0.34214
 Alpha  occ. eigenvalues --   -0.33680  -0.33331  -0.33224  -0.31708  -0.31274
 Alpha  occ. eigenvalues --   -0.28375  -0.27535  -0.27111  -0.24589  -0.24286
 Alpha  occ. eigenvalues --   -0.24034  -0.16699
 Alpha virt. eigenvalues --   -0.01698  -0.01532  -0.01129   0.00117   0.00500
 Alpha virt. eigenvalues --    0.01297   0.01831   0.02207   0.02295   0.02449
 Alpha virt. eigenvalues --    0.03123   0.04295   0.04446   0.04578   0.05063

  Beta  occ. eigenvalues -- -482.82136-482.82136 -62.47417 -62.47417 -56.29437
  Beta  occ. eigenvalues --  -56.29437 -56.29083 -56.29083 -56.29051 -56.29051
  Beta  occ. eigenvalues --  -19.07610 -19.07610 -10.23393 -10.23392 -10.21803
  Beta  occ. eigenvalues --  -10.21802 -10.18503 -10.18502 -10.17453 -10.17452
  Beta  occ. eigenvalues --  -10.14976 -10.14976 -10.14974 -10.14973  -8.68382
  Beta  occ. eigenvalues --   -8.68382  -6.51464  -6.51464  -6.50294  -6.50294
  Beta  occ. eigenvalues --   -6.50203  -6.50203  -2.62567  -2.62567  -2.62248
  Beta  occ. eigenvalues --   -2.62248  -2.62180  -2.62180  -2.61250  -2.61249
  Beta  occ. eigenvalues --   -2.61249  -2.61249  -1.00245  -0.99938  -0.85069
  Beta  occ. eigenvalues --   -0.82627  -0.78587  -0.78324  -0.76064  -0.70906
  Beta  occ. eigenvalues --   -0.67691  -0.67685  -0.66566  -0.62342  -0.57288
  Beta  occ. eigenvalues --   -0.56356  -0.53429  -0.51021  -0.45920  -0.44601
  Beta  occ. eigenvalues --   -0.43952  -0.42819  -0.42323  -0.41268  -0.40913
  Beta  occ. eigenvalues --   -0.40482  -0.39610  -0.39109  -0.38650  -0.37148
  Beta  occ. eigenvalues --   -0.36333  -0.35414  -0.34603  -0.34537  -0.34116
  Beta  occ. eigenvalues --   -0.33542  -0.33265  -0.33163  -0.31092  -0.30133
  Beta  occ. eigenvalues --   -0.28330  -0.27502  -0.24861  -0.24013  -0.23707
  Beta  occ. eigenvalues --   -0.23448
  Beta virt. eigenvalues --   -0.09630  -0.01615  -0.01034  -0.00188   0.00154
  Beta virt. eigenvalues --    0.00503   0.01830   0.01862   0.02313   0.02461
  Beta virt. eigenvalues --    0.03131   0.03969   0.04296   0.04484   0.04612

 Mulliken charges and spin densities:
               1          2
     1  C   -1.181682   0.088452
     2  C    1.364926   0.112844
     3  C   -0.080225   0.057437
     4  C   -1.181617   0.088452
     5  C    1.364751   0.112857
     6  C   -0.080265   0.057451
     7  O   -0.349166   0.248504
     8  O   -0.349170   0.248502
     9  Br  -0.165303   0.002773
    10  Br  -0.165300   0.002773
    11  C    0.257581  -0.027528
    12  C   -0.717360   0.009974
    13  C   -0.717200   0.009976
    14  C    0.257515  -0.027514
    15  C   -0.717198   0.009978
    16  C   -0.717347   0.009967
    17  H    0.165954  -0.000611
    18  H    0.126938  -0.000068
    19  H    0.185766  -0.001314
    20  H    0.148608   0.000465
    21  H    0.126916  -0.000065
    22  H    0.148576   0.000461
    23  H    0.185776  -0.001318
    24  H    0.165944  -0.000610
    25  H    0.148611   0.000463
    26  H    0.126927  -0.000066
    27  H    0.185773  -0.001318
    28  H    0.148587   0.000463
    29  H    0.185754  -0.001313
    30  H    0.126931  -0.000067
 Sum of Mulliken charges =  -1.00000   1.00000

 Dipole moment (field-independent basis, Debye):
    X=              0.0003    Y=              0.0001    Z=             -0.0003  Tot=              0.0004
 Quadrupole moment (field-independent basis, Debye-Ang):
   XX=           -137.3630   YY=           -161.3471   ZZ=           -127.5097
   XY=            -13.4009   XZ=              0.0017   YZ=             -0.0028

 Normal termination of Gaussian 16 at Sun Jan 21 07:15:18 2024.
