 Gaussian 16, Revision A.03,
 Gaussian 16:  ES64L-G16RevA.03 25-Dec-2016

 ----------------------------------------------------------------
 #P UB3LYP/6-311++G(d,p) SCRF=(PCM,Solvent=n,n-DiMethylFormamide)
 ----------------------------------------------------------------

 ------------------
 Radical PCM in DMF
 ------------------
 Symbolic Z-matrix:
 Charge = -1 Multiplicity = 2

                         Standard orientation:
 ---------------------------------------------------------------------
 Center     Atomic      Atomic             Coordinates (Angstroms)
 Number     Number       Type             X           Y           Z
 ---------------------------------------------------------------------
      1          6           0        4.848582   -0.795692    0.000234
      2          6           0        3.466356   -0.196927   -0.000024
      3          6           0        3.271217    1.190692   -0.000106
      4          6           0        2.000770    1.755392   -0.000102
      5          8           0        1.890520    3.105948   -0.000187
      6          6           0        0.853101    0.916945   -0.000065
      7          6           0       -0.468897    1.487916   -0.000075
      8          8           0       -0.628055    2.776578   -0.000163
      9          6           0       -1.611024    0.609755    0.000011
     10          6           0       -2.929579    1.146156    0.000157
     11          8           0       -3.149514    2.483438    0.000342
     12          6           0       -4.024174    0.288865    0.000164
     13          6           0       -3.849442   -1.098589   -0.000008
     14          6           0       -2.577293   -1.659182   -0.000130
     15          8           0       -2.460927   -3.009539   -0.000304
     16          6           0       -1.431287   -0.813763   -0.000073
     17          6           0       -0.108228   -1.382906   -0.000026
     18          8           0        0.053646   -2.672626    0.000093
     19          6           0        1.034824   -0.504414   -0.000040
     20          6           0        2.351314   -1.040126    0.000015
     21          8           0        2.566457   -2.380000    0.000141
     22          1           0        5.003416   -1.435794   -0.874601
     23          1           0        5.004775   -1.431972    0.877653
     24          1           0        5.611312   -0.013282   -0.001985
     25          1           0        4.125114    1.860122   -0.000197
     26          1           0        0.911055    3.290691   -0.000277
     27          1           0       -2.244467    2.900763    0.000312
     28          1           0       -5.017549    0.723127    0.000302
     29          1           0       -4.704432   -1.765264   -0.000023
     30          1           0       -1.480910   -3.190640   -0.000309
     31          1           0        1.657250   -2.792876    0.000160
 ---------------------------------------------------------------------

 SCF Done:  E(UB3LYP) =  -1029.46529722     A.U. after   19 cycles

 The electronic state is 2-A.
 Alpha  occ. eigenvalues --  -19.13680 -19.13656 -19.13639 -19.13550 -19.10480
 Alpha  occ. eigenvalues --  -19.10479 -10.24597 -10.24541 -10.23702 -10.23690
 Alpha  occ. eigenvalues --  -10.23670 -10.23347 -10.18600 -10.18551 -10.18524
 Alpha  occ. eigenvalues --  -10.18483 -10.18354 -10.17505 -10.17452 -10.17172
 Alpha  occ. eigenvalues --  -10.16526  -1.06452  -1.06269  -1.05480  -1.05332
 Alpha  occ. eigenvalues --   -1.01218  -1.01069  -0.86937  -0.85029  -0.80480
 Alpha  occ. eigenvalues --   -0.76588  -0.75213  -0.73764  -0.70712  -0.67789
 Alpha  occ. eigenvalues --   -0.65345  -0.63126  -0.60718  -0.59607  -0.55664
 Alpha  occ. eigenvalues --   -0.53290  -0.52827  -0.52143  -0.51791  -0.51685
 Alpha  occ. eigenvalues --   -0.47535  -0.45639  -0.45378  -0.44865  -0.43663
 Alpha  occ. eigenvalues --   -0.43475  -0.43130  -0.41688  -0.41548  -0.41290
 Alpha  occ. eigenvalues --   -0.41233  -0.40601  -0.40407  -0.39206  -0.37813
 Alpha  occ. eigenvalues --   -0.37699  -0.37005  -0.36827  -0.36811  -0.35682
 Alpha  occ. eigenvalues --   -0.35107  -0.31767  -0.30729  -0.27759  -0.27585
 Alpha  occ. eigenvalues --   -0.26064  -0.25425  -0.23202  -0.21003  -0.14958
 Alpha virt. eigenvalues --   -0.04939  -0.02993  -0.00370   0.00469   0.00945
 Alpha virt. eigenvalues --    0.01571   0.01720   0.02302   0.03358   0.03710
 Alpha virt. eigenvalues --    0.03914   0.04158   0.04820   0.05164   0.06020

  Beta  occ. eigenvalues --  -19.13621 -19.13602 -19.13580 -19.13487 -19.10116
  Beta  occ. eigenvalues --  -19.10098 -10.24377 -10.24302 -10.23648 -10.23626
  Beta  occ. eigenvalues --  -10.23605 -10.23261 -10.18605 -10.18549 -10.18540
  Beta  occ. eigenvalues --  -10.18379 -10.18372 -10.17403 -10.17346 -10.17092
  Beta  occ. eigenvalues --  -10.16532  -1.06233  -1.06048  -1.05363  -1.05208
  Beta  occ. eigenvalues --   -1.00632  -1.00458  -0.86702  -0.84844  -0.80141
  Beta  occ. eigenvalues --   -0.76428  -0.74854  -0.73513  -0.70471  -0.67311
  Beta  occ. eigenvalues --   -0.65144  -0.62934  -0.60615  -0.59464  -0.55441
  Beta  occ. eigenvalues --   -0.53156  -0.52701  -0.52071  -0.51588  -0.51569
  Beta  occ. eigenvalues --   -0.47361  -0.45461  -0.44718  -0.44650  -0.43312
  Beta  occ. eigenvalues --   -0.43259  -0.42698  -0.41461  -0.41189  -0.41136
  Beta  occ. eigenvalues --   -0.40898  -0.40315  -0.40072  -0.38720  -0.37751
  Beta  occ. eigenvalues --   -0.36956  -0.36696  -0.36687  -0.35574  -0.35491
  Beta  occ. eigenvalues --   -0.34992  -0.30895  -0.30284  -0.27469  -0.26295
  Beta  occ. eigenvalues --   -0.25794  -0.25052  -0.21891  -0.20136
  Beta virt. eigenvalues --   -0.09999  -0.03423  -0.02062  -0.00349   0.00480
  Beta virt. eigenvalues --    0.00970   0.01738   0.02103   0.02312   0.03509
  Beta virt. eigenvalues --    0.03722   0.03934   0.04183   0.05125   0.05762

 Mulliken charges and spin densities:
               1          2
     1  C   -0.142473   0.002727
     2  C    0.899982   0.074672
     3  C   -0.819070   0.045454
     4  C   -0.377334   0.056639
     5  O   -0.402337   0.017985
     6  C    0.571488  -0.020192
     7  C   -0.537141   0.126117
     8  O   -0.549208   0.126035
     9  C    0.413337  -0.004523
    10  C   -0.343868   0.047440
    11  O   -0.405774   0.017110
    12  C   -0.103505   0.073657
    13  C   -0.147955   0.065857
    14  C   -0.300579   0.056583
    15  O   -0.410367   0.018185
    16  C    0.475849  -0.008162
    17  C   -0.452550   0.137328
    18  O   -0.562434   0.132733
    19  C    0.168855  -0.036814
    20  C   -0.236236   0.070764
    21  O   -0.417350   0.021121
    22  H    0.179263   0.003253
    23  H    0.179431   0.003279
    24  H    0.169654   0.000040
    25  H    0.164071  -0.005483
    26  H    0.389869  -0.002276
    27  H    0.389886  -0.002287
    28  H    0.199417  -0.006539
    29  H    0.198830  -0.006062
    30  H    0.391033  -0.002363
    31  H    0.417217  -0.002278
 Sum of Mulliken charges =  -1.00000   1.00000

 Dipole moment (field-independent basis, Debye):
    X=              2.3239    Y=             -0.4926    Z=              0.0004  Tot=              2.3755
 Quadrupole moment (field-independent basis, Debye-Ang):
   XX=           -142.2381   YY=           -165.8569   ZZ=           -126.6895
   XY=              1.5730   XZ=              0.0008   YZ=              0.0007

 Normal termination of Gaussian 16 at Tue Jan 16 05:54:56 2024.
