 Q-Chem 5.4, Q-Chem, Inc., Pleasanton, CA (2021)
 Q-Chem 5.4.0 for Intel X86 EM64T Linux

User input:
--------------------------------------------------------------
$molecule
-1 2
C                 -4.5513480000      0.8946280000      0.3461130000
C                 -3.1974480000      0.2556570000      0.1795640000
C                 -3.0624850000     -1.1183940000     -0.0598810000
C                 -1.8186820000     -1.7198770000     -0.2151020000
O                 -1.7668570000     -3.0543970000     -0.4442890000
C                 -0.6369440000     -0.9345710000     -0.1318680000
C                  0.6580460000     -1.5440610000     -0.2906450000
O                  0.7613580000     -2.8193370000     -0.5119540000
C                  1.8359660000     -0.7194390000     -0.2005140000
C                  3.1290160000     -1.2947730000     -0.3532430000
O                  3.2909110000     -2.6201560000     -0.5852880000
C                  4.2585870000     -0.4890110000     -0.2643390000
C                  4.1439760000      0.8841950000     -0.0261630000
C                  2.8982920000      1.4817120000      0.1283450000
O                  2.8403430000      2.8162970000      0.3575400000
C                  1.7179180000      0.6894620000      0.0439670000
C                  0.4217910000      1.2971820000      0.2025290000
O                  0.3158150000      2.5735920000      0.4241760000
C                 -0.7570630000      0.4722550000      0.1124590000
C                 -2.0480730000      1.0468030000      0.2651710000
O                 -2.2050600000      2.3745170000      0.4977200000
H                 -4.7150000000      1.6772840000     -0.4020230000
H                 -4.6430280000      1.3801240000      1.3233550000
H                 -5.3465200000      0.1512270000      0.2513280000
H                 -3.9436990000     -1.7476020000     -0.1294270000
H                 -0.7971330000     -3.2711820000     -0.5225300000
H                  2.3695100000     -2.9991730000     -0.6105240000
H                  5.2314480000     -0.9521640000     -0.3843690000
H                  5.0261580000      1.5106680000      0.0427690000
H                  1.8699070000      3.0295290000      0.4351110000
H                 -1.2796990000      2.7490060000      0.5220070000
$end
$rem
MAX_SCF_CYCLES=200
BASIS  =  6-311++G(d,p)
GUI  =  2
JOB_TYPE  =  SP
METHOD  =  B3LYP
SOLVENT_METHOD = PCM
$end
$pcm
theory = CPCM
$end
$solvent
dielectric 37.219
opticaldielectric 1.43
$end

--------------------------------------------------------------

             Standard Nuclear Orientation (Angstroms)
    I     Atom           X                Y                Z
 ----------------------------------------------------------------
    1      C      -4.5513480000     0.8946280000     0.3461130000
    2      C      -3.1974480000     0.2556570000     0.1795640000
    3      C      -3.0624850000    -1.1183940000    -0.0598810000
    4      C      -1.8186820000    -1.7198770000    -0.2151020000
    5      O      -1.7668570000    -3.0543970000    -0.4442890000
    6      C      -0.6369440000    -0.9345710000    -0.1318680000
    7      C       0.6580460000    -1.5440610000    -0.2906450000
    8      O       0.7613580000    -2.8193370000    -0.5119540000
    9      C       1.8359660000    -0.7194390000    -0.2005140000
   10      C       3.1290160000    -1.2947730000    -0.3532430000
   11      O       3.2909110000    -2.6201560000    -0.5852880000
   12      C       4.2585870000    -0.4890110000    -0.2643390000
   13      C       4.1439760000     0.8841950000    -0.0261630000
   14      C       2.8982920000     1.4817120000     0.1283450000
   15      O       2.8403430000     2.8162970000     0.3575400000
   16      C       1.7179180000     0.6894620000     0.0439670000
   17      C       0.4217910000     1.2971820000     0.2025290000
   18      O       0.3158150000     2.5735920000     0.4241760000
   19      C      -0.7570630000     0.4722550000     0.1124590000
   20      C      -2.0480730000     1.0468030000     0.2651710000
   21      O      -2.2050600000     2.3745170000     0.4977200000
   22      H      -4.7150000000     1.6772840000    -0.4020230000
   23      H      -4.6430280000     1.3801240000     1.3233550000
   24      H      -5.3465200000     0.1512270000     0.2513280000
   25      H      -3.9436990000    -1.7476020000    -0.1294270000
   26      H      -0.7971330000    -3.2711820000    -0.5225300000
   27      H       2.3695100000    -2.9991730000    -0.6105240000
   28      H       5.2314480000    -0.9521640000    -0.3843690000
   29      H       5.0261580000     1.5106680000     0.0427690000
   30      H       1.8699070000     3.0295290000     0.4351110000
   31      H      -1.2796990000     2.7490060000     0.5220070000
 ----------------------------------------------------------------

    8   -1029.4690837529      6.26e-06  Convergence criterion met
 Total energy in the final basis set =    -1029.4690837529

                    Orbital Energies (a.u.)
 --------------------------------------------------------------

 Alpha MOs
 -- Occupied --
-19.1374 -19.1372 -19.1370 -19.1362 -19.1048 -19.1047 -10.2460 -10.2455
-10.2370 -10.2369 -10.2367 -10.2335 -10.1859 -10.1854 -10.1852 -10.1843
-10.1834 -10.1741 -10.1736 -10.1708 -10.1625  -1.0650  -1.0632  -1.0554
 -1.0539  -1.0124  -1.0110  -0.8693  -0.8500  -0.8042  -0.7653  -0.7521
 -0.7375  -0.7062  -0.6774  -0.6532  -0.6306  -0.6070  -0.5962  -0.5566
 -0.5325  -0.5281  -0.5216  -0.5180  -0.5166  -0.4748  -0.4560  -0.4539
 -0.4481  -0.4370  -0.4350  -0.4308  -0.4172  -0.4159  -0.4125  -0.4114
 -0.4054  -0.4034  -0.3924  -0.3771  -0.3762  -0.3704  -0.3685  -0.3674
 -0.3566  -0.3517  -0.3181  -0.3077  -0.2778  -0.2756  -0.2608  -0.2539
 -0.2323  -0.2104  -0.1495

 Beta MOs
 -- Occupied --
-19.1368 -19.1367 -19.1364 -19.1356 -19.1013 -19.1012 -10.2438 -10.2431
-10.2364 -10.2362 -10.2360 -10.2327 -10.1859 -10.1854 -10.1853 -10.1836
-10.1832 -10.1731 -10.1726 -10.1700 -10.1626  -1.0628  -1.0610  -1.0542
 -1.0527  -1.0067  -1.0050  -0.8669  -0.8482  -0.8008  -0.7636  -0.7485
 -0.7349  -0.7037  -0.6727  -0.6511  -0.6287  -0.6059  -0.5948  -0.5543
 -0.5312  -0.5268  -0.5209  -0.5160  -0.5154  -0.4731  -0.4542  -0.4467
 -0.4465  -0.4335  -0.4329  -0.4264  -0.4150  -0.4115  -0.4105  -0.4092
 -0.4025  -0.4004  -0.3874  -0.3755  -0.3700  -0.3673  -0.3660  -0.3556
 -0.3555  -0.3506  -0.3094  -0.3032  -0.2750  -0.2630  -0.2582  -0.2501
 -0.2193  -0.2016

          Ground-State Mulliken Net Atomic Charges

     Atom                 Charge (a.u.)    Spin (a.u.)
  --------------------------------------------------------
      1 C                    -0.181013       0.002753
      2 C                     0.855386       0.074166
      3 C                    -0.835042       0.044280
      4 C                    -0.362711       0.057337
      5 O                    -0.414258       0.018101
      6 C                     0.572982      -0.019410
      7 C                    -0.522036       0.127519
      8 O                    -0.561227       0.123371
      9 C                     0.425006      -0.004111
     10 C                    -0.324759       0.048253
     11 O                    -0.417520       0.017200
     12 C                    -0.139179       0.072328
     13 C                    -0.175848       0.065214
     14 C                    -0.290016       0.056709
     15 O                    -0.422306       0.018235
     16 C                     0.482374      -0.007126
     17 C                    -0.440930       0.138527
     18 O                    -0.574775       0.129979
     19 C                     0.181922      -0.035699
     20 C                    -0.213970       0.071249
     21 O                    -0.430811       0.021235
     22 H                     0.185503       0.003229
     23 H                     0.185695       0.003261
     24 H                     0.179862       0.000027
     25 H                     0.183169      -0.005399
     26 H                     0.398867      -0.002196
     27 H                     0.398907      -0.002205
     28 H                     0.215240      -0.006380
     29 H                     0.215220      -0.005985
     30 H                     0.399999      -0.002274
     31 H                     0.426267      -0.002187
  --------------------------------------------------------
  Sum of atomic charges =    -1.000000

                    Cartesian Multipole Moments
 -----------------------------------------------------------------
    Charge (ESU x 10^10)
                -4.8032
    Dipole Moment (Debye)
         X      -3.5576      Y       0.8521      Z       0.2980
       Tot       3.6703
    Quadrupole Moments (Debye-Ang)
        XX    -142.0024     XY       0.9763     YY    -165.3116
        XZ       0.8183     YZ      -6.6011     ZZ    -127.8598

 Total job time:  126.91s(wall), 548.93s(cpu)
        *  Thank you very much for using Q-Chem.  Have a nice day.  *
