 Q-Chem 5.4, Q-Chem, Inc., Pleasanton, CA (2021)
 Q-Chem 5.4.0 for Intel X86 EM64T Linux

User input:
--------------------------------------------------------------
$molecule
-1 2
Br                 3.7284560000     -2.1781300000      0.6149170000
C                  2.2369790000     -0.9853930000      0.2713550000
C                  0.9744330000     -1.5078580000      0.3158000000
C                 -0.1600590000     -0.6727710000      0.0702940000
C                 -1.4775950000     -1.1836840000      0.1090350000
C                 -2.5695230000     -0.3691930000     -0.1295900000
C                 -2.3757090000      0.9975230000     -0.4177240000
C                 -1.0943380000      1.5175900000     -0.4604610000
C                  0.0344390000      0.7087080000     -0.2210830000
C                  1.3808980000      1.2998850000     -0.2759020000
O                  1.5506240000      2.5047970000     -0.5303360000
C                  2.5673290000      0.4018360000     -0.0139730000
O                  3.7292150000      0.8405350000     -0.0458350000
H                  0.8193160000     -2.5573270000      0.5368400000
H                 -1.6221850000     -2.2375380000      0.3315290000
H                 -3.5731740000     -0.7819090000     -0.0949200000
H                 -3.2317340000      1.6384420000     -0.6052810000
H                 -0.9173730000      2.5644870000     -0.6795670000
$end

$rem
BASIS  =  6-311++G(d,p)
GUI  =  2
JOB_TYPE  =  SP
METHOD  =  B3LYP
SCF_CONVERGENCE  = 8
SOLVENT_METHOD = sm12
$end

$smx
solvent dimethylformamide
charges CM5
$end

--------------------------------------------------------------

             Standard Nuclear Orientation (Angstroms)
    I     Atom           X                Y                Z
 ----------------------------------------------------------------
    1      Br      3.7284560000    -2.1781300000     0.6149170000
    2      C       2.2369790000    -0.9853930000     0.2713550000
    3      C       0.9744330000    -1.5078580000     0.3158000000
    4      C      -0.1600590000    -0.6727710000     0.0702940000
    5      C      -1.4775950000    -1.1836840000     0.1090350000
    6      C      -2.5695230000    -0.3691930000    -0.1295900000
    7      C      -2.3757090000     0.9975230000    -0.4177240000
    8      C      -1.0943380000     1.5175900000    -0.4604610000
    9      C       0.0344390000     0.7087080000    -0.2210830000
   10      C       1.3808980000     1.2998850000    -0.2759020000
   11      O       1.5506240000     2.5047970000    -0.5303360000
   12      C       2.5673290000     0.4018360000    -0.0139730000
   13      O       3.7292150000     0.8405350000    -0.0458350000
   14      H       0.8193160000    -2.5573270000     0.5368400000
   15      H      -1.6221850000    -2.2375380000     0.3315290000
   16      H      -3.5731740000    -0.7819090000    -0.0949200000
   17      H      -3.2317340000     1.6384420000    -0.6052810000
   18      H      -0.9173730000     2.5644870000    -0.6795670000
 ----------------------------------------------------------------

   18   -3108.8662116872      9.49e-09  Convergence criterion met
 Total energy in the final basis set =    -3108.9542578370

                    Orbital Energies (a.u.)
 --------------------------------------------------------------

 Alpha MOs
 -- Occupied --
******** -62.4734 -56.2938 -56.2902 -56.2899 -19.0843 -19.0803 -10.2288
-10.2278 -10.2210 -10.1950 -10.1882 -10.1875 -10.1865 -10.1843 -10.1827
-10.1822  -8.6819  -6.5128  -6.5007  -6.5001  -2.6238  -2.6204  -2.6200
 -2.6103  -2.6103  -1.0222  -0.9956  -0.8775  -0.8335  -0.7826  -0.7675
 -0.7202  -0.6953  -0.6184  -0.6067  -0.5815  -0.5235  -0.4984  -0.4904
 -0.4542  -0.4423  -0.4300  -0.4288  -0.4205  -0.4067  -0.3866  -0.3812
 -0.3632  -0.3624  -0.3490  -0.3256  -0.2929  -0.2836  -0.2703  -0.2607
 -0.2317  -0.2287  -0.1636

 Beta MOs
 -- Occupied --
******** -62.4734 -56.2938 -56.2902 -56.2899 -19.0781 -19.0735 -10.2277
-10.2267 -10.2208 -10.1945 -10.1882 -10.1858 -10.1853 -10.1840 -10.1823
-10.1816  -8.6819  -6.5128  -6.5007  -6.5001  -2.6238  -2.6204  -2.6200
 -2.6103  -2.6103  -1.0114  -0.9837  -0.8750  -0.8310  -0.7809  -0.7649
 -0.7184  -0.6871  -0.6167  -0.6034  -0.5779  -0.5217  -0.4960  -0.4882
 -0.4526  -0.4411  -0.4273  -0.4156  -0.4148  -0.4013  -0.3848  -0.3699
 -0.3619  -0.3478  -0.3439  -0.3053  -0.2883  -0.2829  -0.2601  -0.2548
 -0.2227  -0.2225

          Ground-State Mulliken Net Atomic Charges

     Atom                 Charge (a.u.)    Spin (a.u.)
  --------------------------------------------------------
      1 Br                    0.130322       0.003343
      2 C                     1.291969       0.024576
      3 C                     0.107346       0.142572
      4 C                    -0.139359       0.022313
      5 C                     0.837976       0.011775
      6 C                     1.126526       0.056839
      7 C                     0.820306       0.022224
      8 C                    -0.195129       0.050677
      9 C                    -1.734915       0.051153
     10 C                    -1.548280       0.059167
     11 O                    -0.350081       0.234293
     12 C                    -2.375479       0.091111
     13 O                    -0.293381       0.253254
     14 H                     0.194780      -0.014304
     15 H                     0.286715       0.001273
     16 H                     0.383732      -0.004056
     17 H                     0.322469      -0.002085
     18 H                     0.134483      -0.004126
  --------------------------------------------------------
  Sum of atomic charges =    -1.000000

                    Cartesian Multipole Moments
 -----------------------------------------------------------------
    Charge (ESU x 10^10)
                -4.8032
    Dipole Moment (Debye)
         X     -12.4787      Y      -4.7766      Z       0.6822
       Tot      13.3790
    Quadrupole Moments (Debye-Ang)
        XX    -132.3139     XY      -7.8831     YY    -107.4604
        XZ       0.4310     YZ       2.9306     ZZ     -94.2268

 Total job time:  297.84s(wall), 2012.15s(cpu)
        *  Thank you very much for using Q-Chem.  Have a nice day.  *
