 Q-Chem 5.4, Q-Chem, Inc., Pleasanton, CA (2021)
 Q-Chem 5.4.0 for Intel X86 EM64T Linux

User input:
--------------------------------------------------------------
$molecule
-1 2
C                 -0.9279480000      2.1152020000      0.0029000000
C                 -2.0842000000      1.2702520000     -0.0669450000
C                 -2.0418280000     -0.0887470000     -0.1402570000
C                 -0.8350630000     -0.8628380000     -0.1578110000
C                  0.3709810000     -0.0286290000     -0.0668000000
C                  0.3278950000      1.3525730000      0.0076530000
O                 -0.9836740000      3.3749770000      0.0514450000
O                 -0.8123410000     -2.1215480000     -0.2451910000
C                  1.5952830000      2.1666900000      0.1015050000
C                  1.6868900000     -0.7676710000     -0.0566260000
O                 -3.3373310000     -0.5907060000     -0.2723140000
O                 -3.4088520000      1.7020220000     -0.1486680000
C                 -4.1483230000      0.5144720000      0.1058700000
H                  2.1819260000      1.9067380000      0.9920030000
H                  1.3400850000      3.2260860000      0.1489830000
H                  2.2494160000      2.0034780000     -0.7645400000
H                  1.4981550000     -1.8401110000     -0.1195660000
H                  2.2612580000     -0.5651310000      0.8564670000
H                  2.3247510000     -0.4753970000     -0.9006180000
H                 -5.0648940000      0.5177880000     -0.4861940000
H                 -4.3674050000      0.4492880000      1.1868040000
$end
$rem
MAX_SCF_CYCLES=200
BASIS  =  6-311++G(d,p)
GUI  =  2
JOB_TYPE  =  SP
METHOD  =  B3LYP
SOLVENT_METHOD = PCM
$end
$pcm
theory = CPCM
$end
$solvent
dielectric 37.219
opticaldielectric 1.43
$end

--------------------------------------------------------------

             Standard Nuclear Orientation (Angstroms)
    I     Atom           X                Y                Z
 ----------------------------------------------------------------
    1      C      -0.9279480000     2.1152020000     0.0029000000
    2      C      -2.0842000000     1.2702520000    -0.0669450000
    3      C      -2.0418280000    -0.0887470000    -0.1402570000
    4      C      -0.8350630000    -0.8628380000    -0.1578110000
    5      C       0.3709810000    -0.0286290000    -0.0668000000
    6      C       0.3278950000     1.3525730000     0.0076530000
    7      O      -0.9836740000     3.3749770000     0.0514450000
    8      O      -0.8123410000    -2.1215480000    -0.2451910000
    9      C       1.5952830000     2.1666900000     0.1015050000
   10      C       1.6868900000    -0.7676710000    -0.0566260000
   11      O      -3.3373310000    -0.5907060000    -0.2723140000
   12      O      -3.4088520000     1.7020220000    -0.1486680000
   13      C      -4.1483230000     0.5144720000     0.1058700000
   14      H       2.1819260000     1.9067380000     0.9920030000
   15      H       1.3400850000     3.2260860000     0.1489830000
   16      H       2.2494160000     2.0034780000    -0.7645400000
   17      H       1.4981550000    -1.8401110000    -0.1195660000
   18      H       2.2612580000    -0.5651310000     0.8564670000
   19      H       2.3247510000    -0.4753970000    -0.9006180000
   20      H      -5.0648940000     0.5177880000    -0.4861940000
   21      H      -4.3674050000     0.4492880000     1.1868040000
 ----------------------------------------------------------------

    8    -648.9623237186      7.78e-06  Convergence criterion met
 Total energy in the final basis set =     -648.9623237186

                    Orbital Energies (a.u.)
 --------------------------------------------------------------

 Alpha MOs
 -- Occupied --
-19.1615 -19.1615 -19.0824 -19.0823 -10.2783 -10.2284 -10.2284 -10.2187
-10.2180 -10.1698 -10.1692 -10.1518 -10.1517  -1.1233  -1.0305  -1.0051
 -1.0005  -0.8344  -0.7785  -0.7256  -0.6918  -0.6768  -0.6368  -0.5863
 -0.5786  -0.5208  -0.5124  -0.4973  -0.4568  -0.4490  -0.4339  -0.4212
 -0.4024  -0.4022  -0.3920  -0.3894  -0.3846  -0.3832  -0.3721  -0.3557
 -0.3531  -0.3435  -0.3366  -0.2632  -0.2531  -0.2460  -0.2102  -0.1635

 Beta MOs
 -- Occupied --
-19.1612 -19.1611 -19.0759 -19.0758 -10.2783 -10.2265 -10.2265 -10.2178
-10.2171 -10.1689 -10.1683 -10.1518 -10.1518  -1.1227  -1.0289  -0.9935
 -0.9895  -0.8290  -0.7767  -0.7215  -0.6903  -0.6694  -0.6359  -0.5830
 -0.5754  -0.5192  -0.5098  -0.4947  -0.4550  -0.4447  -0.4269  -0.4139
 -0.3999  -0.3947  -0.3875  -0.3844  -0.3825  -0.3820  -0.3612  -0.3510
 -0.3510  -0.3323  -0.3236  -0.2473  -0.2400  -0.2388  -0.2035

          Ground-State Mulliken Net Atomic Charges

     Atom                 Charge (a.u.)    Spin (a.u.)
  --------------------------------------------------------
      1 C                    -0.902439       0.104224
      2 C                     0.317912       0.052319
      3 C                     0.320695       0.052584
      4 C                    -0.904967       0.104219
      5 C                     0.644462       0.086207
      6 C                     0.646081       0.086397
      7 O                    -0.533567       0.239680
      8 O                    -0.533361       0.239762
      9 C                    -0.475066       0.003312
     10 C                    -0.476412       0.003357
     11 O                    -0.217107       0.008628
     12 O                    -0.217067       0.008614
     13 C                    -0.077612       0.001323
     14 H                     0.159585       0.003417
     15 H                     0.178661      -0.001481
     16 H                     0.160580       0.003415
     17 H                     0.178513      -0.001479
     18 H                     0.159398       0.003386
     19 H                     0.160865       0.003442
     20 H                     0.202200      -0.000246
     21 H                     0.208645      -0.001077
  --------------------------------------------------------
  Sum of atomic charges =    -1.000000

                    Cartesian Multipole Moments
 -----------------------------------------------------------------
    Charge (ESU x 10^10)
                -4.8032
    Dipole Moment (Debye)
         X       5.6105      Y      -3.0146      Z       1.2571
       Tot       6.4920
    Quadrupole Moments (Debye-Ang)
        XX     -77.6161     XY       5.3135     YY    -127.1320
        XZ      -3.2299     YZ      -1.8379     ZZ     -78.0105

 Total job time:  34.80s(wall), 195.25s(cpu)
        *  Thank you very much for using Q-Chem.  Have a nice day.  *
