 Gaussian 16, Revision A.03,
 Gaussian 16:  ES64L-G16RevA.03 25-Dec-2016

 ----------------------------------------------------------------
 #P UB3LYP/6-311++G(d,p) SCRF=(PCM,Solvent=n,n-DiMethylFormamide)
 ----------------------------------------------------------------

 ------------------
 Quinone PCM in DMF
 ------------------
 Symbolic Z-matrix:
 Charge =  0 Multiplicity = 1

                         Standard orientation:
 ---------------------------------------------------------------------
 Center     Atomic      Atomic             Coordinates (Angstroms)
 Number     Number       Type             X           Y           Z
 ---------------------------------------------------------------------
      1          6           0        4.978179   -1.621051    0.221633
      2          6           0        3.684817   -0.854383    0.104622
      3          6           0        3.675570    0.538849    0.150297
      4          6           0        2.491904    1.279274    0.063319
      5          8           0        2.530802    2.632836    0.124460
      6          6           0        1.251388    0.615858   -0.067934
      7          6           0       -0.034815    1.367931   -0.223200
      8          8           0       -0.046446    2.553531   -0.495670
      9          6           0       -1.298044    0.588784   -0.060188
     10          6           0       -2.558124    1.222605    0.077658
     11          8           0       -2.623634    2.572870    0.143956
     12          6           0       -3.724609    0.463012    0.171253
     13          6           0       -3.674043   -0.927001    0.118299
     14          8           0       -4.858239   -1.593870    0.205348
     15          6           0       -2.450266   -1.575563   -0.011439
     16          6           0       -1.284032   -0.819010   -0.088389
     17          6           0        0.003668   -1.568905   -0.194352
     18          8           0        0.010922   -2.783307   -0.321035
     19          6           0        1.272269   -0.793036   -0.095688
     20          6           0        2.463180   -1.513667   -0.022858
     21          1           0        5.808820   -1.077763   -0.234843
     22          1           0        4.902037   -2.598170   -0.258789
     23          1           0        5.233838   -1.790178    1.273214
     24          1           0        4.615487    1.076649    0.252837
     25          1           0        3.443344    2.916240    0.250929
     26          1           0       -3.540247    2.840133    0.275905
     27          1           0       -4.688498    0.948603    0.283780
     28          1           0       -4.701762   -2.543516    0.158441
     29          1           0       -2.374945   -2.656180   -0.051720
     30          1           0        2.412440   -2.594475   -0.064436
 ---------------------------------------------------------------------

 SCF Done:  E(UB3LYP) =  -954.033216983     A.U. after   15 cycles

 The electronic state is 1-A.
 Alpha  occ. eigenvalues --  -19.17669 -19.17357 -19.17138 -19.13074 -19.11650
 Alpha  occ. eigenvalues --  -10.28322 -10.27818 -10.27045 -10.26639 -10.26538
 Alpha  occ. eigenvalues --  -10.21304 -10.20892 -10.20770 -10.20500 -10.20394
 Alpha  occ. eigenvalues --  -10.19513 -10.19378 -10.19272 -10.18767 -10.17507
 Alpha  occ. eigenvalues --   -1.09196  -1.08882  -1.08811  -1.06625  -1.05404
 Alpha  occ. eigenvalues --   -0.89161  -0.87979  -0.81871  -0.78498  -0.77308
 Alpha  occ. eigenvalues --   -0.77002  -0.71922  -0.69173  -0.67100  -0.64780
 Alpha  occ. eigenvalues --   -0.63235  -0.60834  -0.59388  -0.57000  -0.53411
 Alpha  occ. eigenvalues --   -0.53025  -0.52703  -0.51210  -0.49586  -0.47822
 Alpha  occ. eigenvalues --   -0.47055  -0.46448  -0.45386  -0.44760  -0.44382
 Alpha  occ. eigenvalues --   -0.43886  -0.42688  -0.42571  -0.41918  -0.41794
 Alpha  occ. eigenvalues --   -0.40996  -0.39962  -0.39519  -0.39352  -0.38611
 Alpha  occ. eigenvalues --   -0.37520  -0.37205  -0.34984  -0.33728  -0.28510
 Alpha  occ. eigenvalues --   -0.27778  -0.26525  -0.26122  -0.25170  -0.24662
 Alpha virt. eigenvalues --   -0.11254  -0.06041  -0.03342  -0.01337  -0.01021
 Alpha virt. eigenvalues --   -0.00451   0.00136   0.00762   0.01627   0.02313
 Alpha virt. eigenvalues --    0.03153   0.03414   0.03594   0.03861   0.04345

  Beta  occ. eigenvalues --  -19.17669 -19.17357 -19.17138 -19.13074 -19.11650
  Beta  occ. eigenvalues --  -10.28322 -10.27818 -10.27045 -10.26639 -10.26538
  Beta  occ. eigenvalues --  -10.21304 -10.20892 -10.20770 -10.20500 -10.20394
  Beta  occ. eigenvalues --  -10.19513 -10.19378 -10.19272 -10.18767 -10.17507
  Beta  occ. eigenvalues --   -1.09196  -1.08882  -1.08811  -1.06625  -1.05404
  Beta  occ. eigenvalues --   -0.89161  -0.87979  -0.81871  -0.78498  -0.77308
  Beta  occ. eigenvalues --   -0.77002  -0.71922  -0.69173  -0.67100  -0.64780
  Beta  occ. eigenvalues --   -0.63235  -0.60834  -0.59388  -0.57000  -0.53411
  Beta  occ. eigenvalues --   -0.53025  -0.52703  -0.51210  -0.49586  -0.47822
  Beta  occ. eigenvalues --   -0.47055  -0.46448  -0.45386  -0.44760  -0.44382
  Beta  occ. eigenvalues --   -0.43886  -0.42688  -0.42571  -0.41918  -0.41794
  Beta  occ. eigenvalues --   -0.40996  -0.39962  -0.39519  -0.39352  -0.38611
  Beta  occ. eigenvalues --   -0.37520  -0.37205  -0.34984  -0.33728  -0.28510
  Beta  occ. eigenvalues --   -0.27778  -0.26525  -0.26122  -0.25170  -0.24662
  Beta virt. eigenvalues --   -0.11254  -0.06041  -0.03342  -0.01337  -0.01021
  Beta virt. eigenvalues --   -0.00451   0.00136   0.00762   0.01627   0.02313
  Beta virt. eigenvalues --    0.03153   0.03414   0.03594   0.03861   0.04345

 Mulliken charges and spin densities:
               1          2
     1  C   -0.358895   0.000000
     2  C    0.525362  -0.000000
     3  C   -0.389721   0.000000
     4  C   -0.142095   0.000000
     5  O   -0.218092   0.000000
     6  C   -0.105603   0.000000
     7  C   -0.330984   0.000000
     8  O   -0.305853  -0.000000
     9  C   -0.161488   0.000000
    10  C    0.005883  -0.000000
    11  O   -0.214830   0.000000
    12  C    0.035570  -0.000000
    13  C   -0.589381   0.000000
    14  O   -0.257140   0.000000
    15  C    0.382384  -0.000000
    16  C    0.526334  -0.000000
    17  C   -0.669792   0.000000
    18  O   -0.262069  -0.000000
    19  C    0.447439  -0.000000
    20  C   -0.078531  -0.000000
    21  H    0.163377   0.000000
    22  H    0.166011   0.000000
    23  H    0.192180  -0.000000
    24  H    0.160694   0.000000
    25  H    0.308117  -0.000000
    26  H    0.311699  -0.000000
    27  H    0.207499  -0.000000
    28  H    0.312715  -0.000000
    29  H    0.177548  -0.000000
    30  H    0.161662  -0.000000
 Sum of Mulliken charges =  -0.00000  -0.00000

 Dipole moment (field-independent basis, Debye):
    X=              1.5682    Y=             -1.9792    Z=              1.9265  Tot=              3.1762
 Quadrupole moment (field-independent basis, Debye-Ang):
   XX=            -66.1035   YY=           -121.5973   ZZ=           -117.2786
   XY=              4.1898   XZ=              1.1460   YZ=              2.6038

 Normal termination of Gaussian 16 at Tue Jan 16 05:13:32 2024.
