 Gaussian 16, Revision A.03,
 Gaussian 16:  ES64L-G16RevA.03 25-Dec-2016

 --------------------------------------
 #P UB3LYP/6-311++G(d,p) nosym opt freq
 --------------------------------------

 --------
 Oxidized
 --------
 Symbolic Z-matrix:
 Charge =  0 Multiplicity = 1

 SCF Done:  E(UB3LYP) =  -954.008277752     A.U. after   16 cycles
 SCF Done:  E(UB3LYP) =  -954.008293978     A.U. after   11 cycles
 SCF Done:  E(UB3LYP) =  -954.008292395     A.U. after   11 cycles
 SCF Done:  E(UB3LYP) =  -954.008292483     A.U. after   11 cycles
 SCF Done:  E(UB3LYP) =  -954.008294676     A.U. after   10 cycles
 SCF Done:  E(UB3LYP) =  -954.008294765     A.U. after   10 cycles
 SCF Done:  E(UB3LYP) =  -954.008295064     A.U. after    9 cycles
 SCF Done:  E(UB3LYP) =  -954.008295229     A.U. after   10 cycles
 SCF Done:  E(UB3LYP) =  -954.008298628     A.U. after   12 cycles
 SCF Done:  E(UB3LYP) =  -954.005827304     A.U. after   13 cycles
 SCF Done:  E(UB3LYP) =  -954.008386498     A.U. after   12 cycles
 SCF Done:  E(UB3LYP) =  -954.008438769     A.U. after   13 cycles
 SCF Done:  E(UB3LYP) =  -954.008438556     A.U. after   10 cycles
 SCF Done:  E(UB3LYP) =  -954.008438573     A.U. after    7 cycles
 SCF Done:  E(UB3LYP) =  -954.008438715     A.U. after    9 cycles
 SCF Done:  E(UB3LYP) =  -954.008386518     A.U. after   13 cycles
 SCF Done:  E(UB3LYP) =  -954.008387600     A.U. after   12 cycles
 SCF Done:  E(UB3LYP) =  -954.008387478     A.U. after   10 cycles
 SCF Done:  E(UB3LYP) =  -954.008387592     A.U. after   10 cycles
 Optimization completed.
    -- Stationary point found.
 Normal termination of Gaussian 16 at Mon Jan 15 20:07:54 2024.

 ----------------------------------------------------------------------
 #P Geom=AllCheck Guess=TCheck SCRF=Check GenChk UB3LYP/6-311++G(d,p) F
 req
 ----------------------------------------------------------------------

 Structure from the checkpoint file:  "203.chk"
 --------
 Oxidized
 --------
 Charge =  0 Multiplicity = 1

                          Input orientation:
 ---------------------------------------------------------------------
 Center     Atomic      Atomic             Coordinates (Angstroms)
 Number     Number       Type             X           Y           Z
 ---------------------------------------------------------------------
      1          6           0        4.631020    1.209734   -0.677615
      2          6           0        3.327515    0.574809   -0.262886
      3          6           0        3.305596   -0.689140    0.324668
      4          6           0        2.112779   -1.313897    0.703781
      5          8           0        2.139779   -2.549291    1.260965
      6          6           0        0.875951   -0.666052    0.487488
      7          6           0       -0.421238   -1.270672    0.929954
      8          8           0       -0.451669   -2.205775    1.707565
      9          6           0       -1.672040   -0.652398    0.398333
     10          6           0       -2.934392   -1.283684    0.526704
     11          8           0       -3.011594   -2.518750    1.074932
     12          6           0       -4.090469   -0.651269    0.068484
     13          6           0       -4.027466    0.613205   -0.509990
     14          8           0       -5.202339    1.165778   -0.921025
     15          6           0       -2.801049    1.253887   -0.653241
     16          6           0       -1.644763    0.616674   -0.211247
     17          6           0       -0.352827    1.337233   -0.419666
     18          8           0       -0.336764    2.478144   -0.854336
     19          6           0        0.910118    0.603818   -0.122799
     20          6           0        2.109615    1.217316   -0.480162
     21          1           0        5.444187    0.933175   -0.002506
     22          1           0        4.552249    2.298290   -0.691981
     23          1           0        4.915346    0.886842   -1.684932
     24          1           0        4.242448   -1.212756    0.501645
     25          1           0        3.052412   -2.856759    1.301075
     26          1           0       -3.927117   -2.819316    1.052626
     27          1           0       -5.055921   -1.138036    0.160702
     28          1           0       -5.037687    2.034834   -1.303314
     29          1           0       -2.716050    2.236608   -1.102757
     30          1           0        2.068570    2.200445   -0.932070
 ---------------------------------------------------------------------

 SCF Done:  E(UB3LYP) =  -954.008387592     A.U. after    1 cycles

 Alpha  occ. eigenvalues --  -19.17864 -19.16944 -19.16770 -19.12208 -19.10211
 Alpha  occ. eigenvalues --  -10.27472 -10.26655 -10.26468 -10.26453 -10.26224
 Alpha  occ. eigenvalues --  -10.20872 -10.20856 -10.20342 -10.20026 -10.19873
 Alpha  occ. eigenvalues --  -10.19504 -10.19447 -10.18982 -10.18451 -10.18398
 Alpha  occ. eigenvalues --   -1.09162  -1.08716  -1.08481  -1.05683  -1.03844
 Alpha  occ. eigenvalues --   -0.88774  -0.87712  -0.81681  -0.78351  -0.76934
 Alpha  occ. eigenvalues --   -0.76730  -0.72100  -0.68873  -0.66858  -0.64610
 Alpha  occ. eigenvalues --   -0.63075  -0.60628  -0.59014  -0.56818  -0.53230
 Alpha  occ. eigenvalues --   -0.52788  -0.52503  -0.50466  -0.49328  -0.47477
 Alpha  occ. eigenvalues --   -0.46771  -0.45917  -0.44592  -0.44478  -0.44051
 Alpha  occ. eigenvalues --   -0.43102  -0.42894  -0.41995  -0.41730  -0.41576
 Alpha  occ. eigenvalues --   -0.40795  -0.39621  -0.38946  -0.38692  -0.38156
 Alpha  occ. eigenvalues --   -0.37522  -0.36974  -0.34679  -0.33124  -0.27579
 Alpha  occ. eigenvalues --   -0.27383  -0.26283  -0.24702  -0.24637  -0.24259
 Alpha virt. eigenvalues --   -0.10504  -0.05453  -0.03183  -0.01836  -0.01659
 Alpha virt. eigenvalues --   -0.01095  -0.01014  -0.00196   0.01578   0.02127
 Alpha virt. eigenvalues --    0.02994   0.03231   0.03489   0.04145   0.04432

  Beta  occ. eigenvalues --  -19.17864 -19.16944 -19.16770 -19.12208 -19.10211
  Beta  occ. eigenvalues --  -10.27472 -10.26655 -10.26468 -10.26453 -10.26224
  Beta  occ. eigenvalues --  -10.20872 -10.20856 -10.20342 -10.20026 -10.19873
  Beta  occ. eigenvalues --  -10.19504 -10.19447 -10.18982 -10.18451 -10.18398
  Beta  occ. eigenvalues --   -1.09162  -1.08716  -1.08481  -1.05683  -1.03844
  Beta  occ. eigenvalues --   -0.88774  -0.87712  -0.81681  -0.78351  -0.76934
  Beta  occ. eigenvalues --   -0.76730  -0.72100  -0.68873  -0.66858  -0.64610
  Beta  occ. eigenvalues --   -0.63075  -0.60628  -0.59014  -0.56818  -0.53230
  Beta  occ. eigenvalues --   -0.52788  -0.52503  -0.50466  -0.49328  -0.47477
  Beta  occ. eigenvalues --   -0.46771  -0.45917  -0.44592  -0.44478  -0.44051
  Beta  occ. eigenvalues --   -0.43102  -0.42894  -0.41995  -0.41730  -0.41576
  Beta  occ. eigenvalues --   -0.40795  -0.39621  -0.38946  -0.38692  -0.38156
  Beta  occ. eigenvalues --   -0.37522  -0.36974  -0.34679  -0.33124  -0.27579
  Beta  occ. eigenvalues --   -0.27383  -0.26283  -0.24702  -0.24637  -0.24259
  Beta virt. eigenvalues --   -0.10504  -0.05453  -0.03183  -0.01836  -0.01659
  Beta virt. eigenvalues --   -0.01095  -0.01014  -0.00196   0.01578   0.02127
  Beta virt. eigenvalues --    0.02994   0.03231   0.03489   0.04145   0.04432

 Mulliken charges and spin densities:
               1          2
     1  C   -0.342322   0.000000
     2  C    0.574622  -0.000000
     3  C   -0.409015  -0.000000
     4  C   -0.118436  -0.000000
     5  O   -0.161116   0.000000
     6  C   -0.075661   0.000000
     7  C   -0.382516  -0.000000
     8  O   -0.206375   0.000000
     9  C   -0.121911  -0.000000
    10  C    0.043111   0.000000
    11  O   -0.160014  -0.000000
    12  C    0.045951   0.000000
    13  C   -0.511196   0.000000
    14  O   -0.226233   0.000000
    15  C    0.271183  -0.000000
    16  C    0.527637   0.000000
    17  C   -0.748388   0.000000
    18  O   -0.203955  -0.000000
    19  C    0.434769  -0.000000
    20  C   -0.112947  -0.000000
    21  H    0.149073   0.000000
    22  H    0.159466  -0.000000
    23  H    0.181608   0.000000
    24  H    0.101822  -0.000000
    25  H    0.266041  -0.000000
    26  H    0.270309  -0.000000
    27  H    0.162805   0.000000
    28  H    0.277125   0.000000
    29  H    0.156014   0.000000
    30  H    0.158550   0.000000
 Sum of Mulliken charges =  -0.00000  -0.00000

 Dipole moment (field-independent basis, Debye):
    X=              1.2552    Y=              0.4059    Z=             -1.7714  Tot=              2.2087
 Quadrupole moment (field-independent basis, Debye-Ang):
   XX=            -79.0874   YY=           -117.0637   ZZ=           -119.6622
   XY=             -3.5461   XZ=              2.5650   YZ=              2.2523

  Exact polarizability: 297.109   0.641 196.353   4.607 -49.577 122.210
 Approx polarizability: 411.280  -5.381 369.626   9.736-106.993 213.021

                      1                      2                      3
                      A                      A                      A
 Frequencies --     25.3536                25.9474                47.3073
 Red. masses --      1.2048                 3.6351                 6.1603
 Frc consts  --      0.0005                 0.0014                 0.0081
 IR Inten    --      1.5116                 5.8247                 0.0558

                      4                      5                      6
                      A                      A                      A
 Frequencies --     61.2616               131.3207               158.6698
 Red. masses --      8.6057                 7.4117                 5.3574
 Frc consts  --      0.0190                 0.0753                 0.0795
 IR Inten    --      0.4695                 0.1574                 0.4688

                      7                      8                      9
                      A                      A                      A
 Frequencies --    161.1536               210.7593               216.4792
 Red. masses --      5.6185                 4.2500                 4.5869
 Frc consts  --      0.0860                 0.1112                 0.1266
 IR Inten    --      1.7687                 0.1920                 2.3165

                     10                     11                     12
                      A                      A                      A
 Frequencies --    243.9578               250.6662               271.6953
 Red. masses --      5.0791                 5.0923                 5.4805
 Frc consts  --      0.1781                 0.1885                 0.2384
 IR Inten    --      1.4100                 0.9784                 5.7867

                     13                     14                     15
                      A                      A                      A
 Frequencies --    301.9199               325.0948               348.7104
 Red. masses --      3.2024                 4.0502                 3.9922
 Frc consts  --      0.1720                 0.2522                 0.2860
 IR Inten    --      0.8238                 0.3793                 8.0618

                     16                     17                     18
                      A                      A                      A
 Frequencies --    355.5392               372.0171               372.5693
 Red. masses --      1.1789                 4.6462                 1.2082
 Frc consts  --      0.0878                 0.3789                 0.0988
 IR Inten    --     23.1939                17.7156               250.3930

                     19                     20                     21
                      A                      A                      A
 Frequencies --    384.4767               401.3771               431.0106
 Red. masses --      1.8274                 6.5801                 6.3927
 Frc consts  --      0.1592                 0.6246                 0.6997
 IR Inten    --     19.8829                12.5390                 4.7669

                     22                     23                     24
                      A                      A                      A
 Frequencies --    467.4416               472.6886               509.3860
 Red. masses --      8.0800                 6.9357                 4.5603
 Frc consts  --      1.0402                 0.9130                 0.6972
 IR Inten    --      5.0002                 2.5354                18.7950

                     25                     26                     27
                      A                      A                      A
 Frequencies --    545.8519               553.4905               564.4848
 Red. masses --      4.7467                 7.3962                 6.9414
 Frc consts  --      0.8333                 1.3350                 1.3032
 IR Inten    --      1.0524                 1.0499                 1.4647

                     28                     29                     30
                      A                      A                      A
 Frequencies --    589.4868               611.1540               619.3800
 Red. masses --      4.6833                 5.6872                 4.8595
 Frc consts  --      0.9588                 1.2516                 1.0984
 IR Inten    --      1.1287                11.7396                24.2248

                     31                     32                     33
                      A                      A                      A
 Frequencies --    629.1212               653.7225               722.4910
 Red. masses --      4.2397                 3.7306                 4.8489
 Frc consts  --      0.9887                 0.9393                 1.4913
 IR Inten    --      5.4453                12.4436                 2.5472

                     34                     35                     36
                      A                      A                      A
 Frequencies --    729.2734               770.3534               782.9281
 Red. masses --      5.5562                 5.2153                 8.3872
 Frc consts  --      1.7410                 1.8235                 3.0291
 IR Inten    --      1.9925                19.0663                45.1072

                     37                     38                     39
                      A                      A                      A
 Frequencies --    815.5547               839.3643               856.5006
 Red. masses --      6.5739                 1.5774                 1.5278
 Frc consts  --      2.5762                 0.6548                 0.6604
 IR Inten    --      2.0565                32.8689                17.5194

                     40                     41                     42
                      A                      A                      A
 Frequencies --    873.4885               893.3198               921.5324
 Red. masses --      1.4835                 6.1240                 1.4198
 Frc consts  --      0.6669                 2.8794                 0.7104
 IR Inten    --     10.8052                48.0031                 3.2667

                     43                     44                     45
                      A                      A                      A
 Frequencies --    954.3660              1009.0882              1033.6153
 Red. masses --      7.6819                 2.2836                 2.6132
 Frc consts  --      4.1224                 1.3700                 1.6449
 IR Inten    --      6.0991                15.3852                11.5045

                     46                     47                     48
                      A                      A                      A
 Frequencies --   1044.9863              1057.9155              1105.2364
 Red. masses --      3.1874                 1.5394                 3.0225
 Frc consts  --      2.0507                 1.0151                 2.1753
 IR Inten    --     50.1864                11.9837                50.8471

                     49                     50                     51
                      A                      A                      A
 Frequencies --   1132.6521              1184.8717              1188.4614
 Red. masses --      4.3104                 1.3840                 2.6632
 Frc consts  --      3.2581                 1.1448                 2.2163
 IR Inten    --    133.9255               140.0652                42.2253

                     52                     53                     54
                      A                      A                      A
 Frequencies --   1193.0631              1205.6044              1217.6467
 Red. masses --      1.7477                 1.3516                 1.4094
 Frc consts  --      1.4657                 1.1575                 1.2312
 IR Inten    --     82.4790                30.4277               100.9718

                     55                     56                     57
                      A                      A                      A
 Frequencies --   1277.0468              1277.8241              1292.1744
 Red. masses --      2.5144                 1.9343                 2.1258
 Frc consts  --      2.4160                 1.8609                 2.0913
 IR Inten    --    444.2561                97.5540               367.9081

                     58                     59                     60
                      A                      A                      A
 Frequencies --   1342.5076              1362.9008              1374.0005
 Red. masses --      7.6812                 7.3518                 5.5729
 Frc consts  --      8.1567                 8.0459                 6.1988
 IR Inten    --     57.2088               100.3378               169.6624

                     61                     62                     63
                      A                      A                      A
 Frequencies --   1393.1844              1415.2826              1441.8169
 Red. masses --      4.1003                 1.2766                 2.9132
 Frc consts  --      4.6890                 1.5066                 3.5682
 IR Inten    --     51.1828                 6.5685                31.6728

                     64                     65                     66
                      A                      A                      A
 Frequencies --   1479.6414              1490.3130              1493.5794
 Red. masses --      3.5916                 1.0572                 1.2276
 Frc consts  --      4.6329                 1.3835                 1.6135
 IR Inten    --     49.2039                 7.9947                17.2395

                     67                     68                     69
                      A                      A                      A
 Frequencies --   1508.8258              1522.8067              1604.4528
 Red. masses --      3.4533                 3.6132                 6.1554
 Frc consts  --      4.6320                 4.9366                 9.3360
 IR Inten    --      1.4482                14.2001                11.6962

                     70                     71                     72
                      A                      A                      A
 Frequencies --   1619.1647              1639.0090              1643.9422
 Red. masses --      6.4662                 6.2635                 6.7394
 Frc consts  --      9.9880                 9.9135                10.7311
 IR Inten    --    195.0650               125.7166               311.0441

                     73                     74                     75
                      A                      A                      A
 Frequencies --   1717.5553              1729.8127              3025.1977
 Red. masses --     12.3264                12.3037                 1.0405
 Frc consts  --     21.4244                21.6912                 5.6107
 IR Inten    --     12.2595               336.4247                24.0807

                     76                     77                     78
                      A                      A                      A
 Frequencies --   3080.7320              3109.8369              3133.8219
 Red. masses --      1.0950                 1.1022                 1.0899
 Frc consts  --      6.1231                 6.2802                 6.3064
 IR Inten    --     16.4184                10.8558                20.0672

                     79                     80                     81
                      A                      A                      A
 Frequencies --   3168.8100              3182.4250              3196.2097
 Red. masses --      1.0911                 1.0908                 1.0906
 Frc consts  --      6.4554                 6.5090                 6.5644
 IR Inten    --      4.8905                10.0057                 2.9184

                     82                     83                     84
                      A                      A                      A
 Frequencies --   3813.4538              3815.0977              3827.3147
 Red. masses --      1.0660                 1.0660                 1.0662
 Frc consts  --      9.1333                 9.1416                 9.2021
 IR Inten    --     66.2755                71.3633                93.1100

 - Thermochemistry -
 -------------------
 Temperature   298.150 Kelvin.  Pressure   1.00000 Atm.
 Atom     1 has atomic number  6 and mass  12.00000

 Molecular mass:   270.05282 amu.
 Principal axes and moments of inertia in atomic units:
                           1         2         3
     Eigenvalues --  2768.981397558.59351**********
           X            0.99939   0.02182  -0.02719
           Y           -0.00718   0.89205   0.45188
           Z            0.03411  -0.45141   0.89166
 This molecule is an asymmetric top.
 Rotational symmetry number  1.
 Warning -- assumption of classical behavior for rotation
           may cause significant error
 Rotational temperatures (Kelvin)      0.03128     0.01146     0.00846
 Rotational constants (GHZ):           0.65177     0.23877     0.17620
 Zero-point vibrational energy     573158.1 (Joules/Mol)
                                  136.98807 (Kcal/Mol)
 Warning -- explicit consideration of  30 degrees of freedom as
           vibrations may cause significant error
 Vibrational temperatures:     36.48    37.33    68.06    88.14   188.94
          (Kelvin)            228.29   231.86   303.24   311.47   351.00
                              360.65   390.91   434.40   467.74   501.72
                              511.54   535.25   536.04   553.18   577.49
                              620.13   672.54   680.09   732.89   785.36
                              796.35   812.17   848.14   879.31   891.15
                              905.17   940.56  1039.50  1049.26  1108.37
                             1126.46  1173.40  1207.66  1232.31  1256.76
                             1285.29  1325.88  1373.12  1451.85  1487.14
                             1503.50  1522.10  1590.19  1629.63  1704.77
                             1709.93  1716.55  1734.60  1751.92  1837.39
                             1838.50  1859.15  1931.57  1960.91  1976.88
                             2004.48  2036.28  2074.45  2128.87  2144.23
                             2148.93  2170.86  2190.98  2308.45  2329.62
                             2358.17  2365.27  2471.18  2488.81  4352.58
                             4432.49  4474.36  4508.87  4559.21  4578.80
                             4598.63  5486.71  5489.07  5506.65

 Zero-point correction=                           0.218304 (Hartree/Particle)
 Thermal correction to Energy=                    0.235313
 Thermal correction to Enthalpy=                  0.236258
 Thermal correction to Gibbs Free Energy=         0.172600
 Sum of electronic and zero-point Energies=           -953.790083
 Sum of electronic and thermal Energies=              -953.773074
 Sum of electronic and thermal Enthalpies=            -953.772130
 Sum of electronic and thermal Free Energies=         -953.835788

                     E (Thermal)             CV                S
                      KCal/Mol        Cal/Mol-Kelvin    Cal/Mol-Kelvin
 Total                  147.661             65.905            133.980
 Electronic               0.000              0.000              0.000
 Translational            0.889              2.981             42.679
 Rotational               0.889              2.981             33.727
 Vibrational            145.884             59.943             57.573
 Vibration     1          0.593              1.985              6.163
 Vibration     2          0.593              1.985              6.117
 Vibration     3          0.595              1.979              4.927
 Vibration     4          0.597              1.973              4.416
 Vibration     5          0.612              1.922              2.927
 Vibration     6          0.621              1.893              2.566
 Vibration     7          0.622              1.890              2.536
 Vibration     8          0.643              1.824              2.037
 Vibration     9          0.645              1.816              1.988
 Vibration    10          0.659              1.773              1.774
 Vibration    11          0.663              1.762              1.726
 Vibration    12          0.675              1.725              1.585
 Vibration    13          0.694              1.670              1.406
 Vibration    14          0.709              1.625              1.284
 Vibration    15          0.726              1.578              1.172
 Vibration    16          0.731              1.564              1.142
 Vibration    17          0.744              1.530              1.071
 Vibration    18          0.744              1.528              1.069
 Vibration    19          0.753              1.503              1.022
 Vibration    20          0.767              1.467              0.958
 Vibration    21          0.792              1.403              0.855
 Vibration    22          0.825              1.322              0.745
 Vibration    23          0.830              1.311              0.730
 Vibration    24          0.865              1.229              0.635
 Vibration    25          0.901              1.149              0.553
 Vibration    26          0.909              1.132              0.537
 Vibration    27          0.920              1.108              0.515
 Vibration    28          0.947              1.054              0.468
 Vibration    29          0.970              1.008              0.431
 Vibration    30          0.979              0.991              0.418

                           ! Non-Optimized Parameters !
 Normal termination of Gaussian 16 at Mon Jan 15 20:45:32 2024.
