 Q-Chem 5.4, Q-Chem, Inc., Pleasanton, CA (2021)
 Q-Chem 5.4.0 for Intel X86 EM64T Linux

User input:
--------------------------------------------------------------
$molecule
-2 1
C                 -2.0407750000      0.3599920000      1.5683910000
C                 -2.8862200000      1.1780360000      0.7211270000
C                 -2.4739620000      1.4806080000     -0.5817300000
C                 -1.2699020000      1.0759750000     -1.2350390000
C                 -0.4245560000      0.2577570000     -0.3878480000
C                 -0.8367950000     -0.0447850000      0.9150230000
O                 -0.9447370000      1.3886510000     -2.4429970000
O                 -2.3660380000      0.0471320000      2.7762740000
Br                 0.3180900000     -1.1697280000      2.0893360000
Br                -3.6289550000      2.6053710000     -1.7561080000
C                  0.8916860000     -0.2334050000     -0.9805830000
C                  1.8319130000      0.9360250000     -1.3405870000
C                  0.6658610000     -1.1559880000     -2.1966950000
C                 -4.2025510000      1.6690540000      1.3137870000
C                 -3.9768960000      2.5914060000      2.5301070000
C                 -5.1428220000      0.4995480000      1.6734320000
H                  1.3945480000     -0.8267790000     -0.2153740000
H                  2.0713770000      1.5192560000     -0.4446330000
H                  1.3400560000      1.5880300000     -2.0659550000
H                  2.7762070000      0.5610230000     -1.7649730000
H                  0.0886700000     -2.0388070000     -1.9005180000
H                  1.6270520000     -1.5003630000     -2.6089060000
H                  0.1125960000     -0.6136200000     -2.9667160000
H                 -4.7053180000      2.2625700000      0.5486250000
H                 -4.9381440000      2.9356920000      2.9422580000
H                 -3.3996730000      3.4742880000      2.2341790000
H                 -3.4237330000      2.0488910000      3.3000970000
H                 -6.0871750000      0.8744650000      2.0977640000
H                 -4.6510590000     -0.1525990000      2.3987340000
H                 -5.3821660000     -0.0835040000      0.7773280000
$end
$rem
MAX_SCF_CYCLES=200
BASIS  =  6-311++G(d,p)
GUI  =  2
JOB_TYPE  =  SP
METHOD  =  B3LYP
SOLVENT_METHOD = COSMO
$end
$solvent
dielectric 37.219
opticaldielectric 1.43
$end

--------------------------------------------------------------

             Standard Nuclear Orientation (Angstroms)
    I     Atom           X                Y                Z
 ----------------------------------------------------------------
    1      C       0.2394125954    -1.4779067473     0.0006147363
    2      C      -1.0957450984    -0.9129435323     0.0004805640
    3      C      -1.2586303067     0.4771683517     0.0000389499
    4      C      -0.2394030297     1.4779064160    -0.0002475955
    5      C       1.0957526547     0.9129440830    -0.0003264989
    6      C       1.2586401051    -0.4771684829     0.0001532140
    7      O      -0.4535840613     2.7494360268    -0.0003982582
    8      O       0.4535973923    -2.7494348077     0.0005438850
    9      Br      3.0908211096    -1.2654449765    -0.0001206378
   10      Br     -3.0908152155     1.2654340303     0.0000933551
   11      C       2.2670982354     1.8891701173     0.0000655782
   12      C       2.2870081924     2.7626906980     1.2719781558
   13      C       2.2875968193     2.7631655767    -1.2714675374
   14      C      -2.2671016379    -1.8891583542    -0.0000960020
   15      C      -2.2875573213    -2.7634444894     1.2712391435
   16      C      -2.2870949956    -2.7623818968    -1.2722120635
   17      H       3.1851654918     1.2995429478     0.0002146135
   18      H       2.3830930084     2.1324785772     2.1629525481
   19      H       1.3555899117     3.3294597303     1.3385019424
   20      H       3.1399616794     3.4587983058     1.2539314708
   21      H       2.3845326990     2.1333253976    -2.1626153571
   22      H       3.1403130642     3.4595236855    -1.2524786540
   23      H       1.3560247557     3.3296493839    -1.3383041634
   24      H      -3.1851590621    -1.2995149452    -0.0000688623
   25      H      -3.1402853477    -3.4597840587     1.2521307299
   26      H      -2.3844398062    -2.1338081741     2.1625372381
   27      H      -1.3559939326    -3.3299625611     1.3378976552
   28      H      -3.1400625490    -3.4584765773    -1.2542805176
   29      H      -1.3556905068    -3.3291495305    -1.3389179594
   30      H      -2.3832196210    -2.1319592587    -2.1630346708
 ----------------------------------------------------------------

   10   -5764.6053903403      8.35e-06  Convergence criterion met
 Total energy in the final basis set =    -5764.6053903403
    5   -5764.8651414835      8.50e-06  Convergence criterion met
 Total energy in the final basis set =    -5764.8651414835

                    Orbital Energies (a.u.)
 --------------------------------------------------------------

 Alpha MOs
 -- Occupied --
********-482.7999 -62.4528 -62.4528 -56.2729 -56.2729 -56.2697 -56.2697
-56.2694 -56.2694 -19.0208 -19.0208 -10.1855 -10.1855 -10.1831 -10.1831
-10.1539 -10.1539 -10.1461 -10.1461 -10.1350 -10.1350 -10.1350 -10.1350
 -8.6615  -8.6615  -6.4915  -6.4915  -6.4810  -6.4810  -6.4802  -6.4802
 -2.6028  -2.6028  -2.5997  -2.5997  -2.5991  -2.5991  -2.5909  -2.5909
 -2.5908  -2.5908  -0.9439  -0.9399  -0.8163  -0.7950  -0.7636  -0.7596
 -0.7359  -0.6776  -0.6614  -0.6613  -0.6459  -0.5985  -0.5501  -0.5316
 -0.5059  -0.4763  -0.4341  -0.4208  -0.4201  -0.4063  -0.3996  -0.3877
 -0.3841  -0.3741  -0.3712  -0.3707  -0.3628  -0.3521  -0.3298  -0.3255
 -0.3245  -0.3224  -0.3200  -0.3177  -0.3124  -0.3097  -0.2861  -0.2794
 -0.2648  -0.2559  -0.2298  -0.2066  -0.2000  -0.1995  -0.1274

          Ground-State Mulliken Net Atomic Charges

     Atom                 Charge (a.u.)
  ----------------------------------------
      1 C                    -1.115620
      2 C                     1.170745
      3 C                    -0.155394
      4 C                    -1.114926
      5 C                     1.170164
      6 C                    -0.154637
      7 O                    -0.596218
      8 O                    -0.596259
      9 Br                   -0.288595
     10 Br                   -0.288529
     11 C                     0.412476
     12 C                    -0.736187
     13 C                    -0.736338
     14 C                     0.411880
     15 C                    -0.736252
     16 C                    -0.736143
     17 H                     0.155676
     18 H                     0.123422
     19 H                     0.184870
     20 H                     0.136440
     21 H                     0.123375
     22 H                     0.136479
     23 H                     0.184683
     24 H                     0.155670
     25 H                     0.136488
     26 H                     0.123411
     27 H                     0.184861
     28 H                     0.136391
     29 H                     0.184629
     30 H                     0.123441
  ----------------------------------------
  Sum of atomic charges =    -2.000000

                    Cartesian Multipole Moments
 -----------------------------------------------------------------
    Charge (ESU x 10^10)
                -9.6064
    Dipole Moment (Debye)
         X       0.0011      Y       0.0008      Z       0.0005
       Tot       0.0014
    Quadrupole Moments (Debye-Ang)
        XX    -158.9426     XY      17.5222     YY    -192.5515
        XZ       0.0028     YZ       0.0114     ZZ    -134.9123

 Total job time:  135.99s(wall), 896.10s(cpu)
        *  Thank you very much for using Q-Chem.  Have a nice day.  *
