 Gaussian 16, Revision A.03,
 Gaussian 16:  ES64L-G16RevA.03 25-Dec-2016

 ----------------------------------------------------------------
 #P UB3LYP/6-311++G(d,p) SCRF=(PCM,Solvent=n,n-DiMethylFormamide)
 ----------------------------------------------------------------

 ------------------
 Radical PCM in DMF
 ------------------
 Symbolic Z-matrix:
 Charge = -1 Multiplicity = 2

                         Standard orientation:
 ---------------------------------------------------------------------
 Center     Atomic      Atomic             Coordinates (Angstroms)
 Number     Number       Type             X           Y           Z
 ---------------------------------------------------------------------
      1          6           0        3.671176   -1.754499    0.011987
      2          6           0        4.986953   -1.335663    0.051968
      3          6           0        5.284318    0.042647    0.075731
      4          6           0        2.611439   -0.824191   -0.006505
      5          6           0        2.910237    0.565476    0.017167
      6          6           0        4.261645    0.970660    0.058485
      7          6           0        1.228231   -1.319989   -0.050071
      8          6           0        0.181922   -0.294678   -0.072429
      9          6           0        0.485797    1.101710   -0.044207
     10          6           0        1.858295    1.590592    0.002335
     11          6           0       -1.163903   -0.703381   -0.117100
     12          6           0       -0.580250    2.033639   -0.062915
     13          6           0       -1.893397    1.628611   -0.099993
     14          8           0        0.963595   -2.541542   -0.062341
     15          8           0        2.129696    2.816285    0.028299
     16          1           0        3.411562   -2.806580   -0.007148
     17          1           0       -2.705456    2.344158   -0.122902
     18          1           0        4.461740    2.035605    0.076147
     19          1           0       -1.378240   -1.764355   -0.149415
     20          1           0       -0.320833    3.085564   -0.048813
     21          6           0       -2.173220    0.239334   -0.128058
     22          1           0        6.318241    0.373032    0.107053
     23          1           0        5.791299   -2.064771    0.064899
     24         16           0       -3.864890   -0.297298   -0.109701
     25          8           0       -3.934900   -1.707165   -0.509524
     26          8           0       -4.730628    0.687529   -0.768150
     27          7           0       -4.275939   -0.152722    1.550038
     28          1           0       -3.957005   -0.977600    2.052050
     29          1           0       -5.289043   -0.081689    1.608439
 ---------------------------------------------------------------------

 SCF Done:  E(UB3LYP) =  -1293.12525625     A.U. after   20 cycles

 The electronic state is 2-A.
 Alpha  occ. eigenvalues --  -89.07712 -19.13080 -19.13051 -19.08643 -19.08283
 Alpha  occ. eigenvalues --  -14.34548 -10.23633 -10.23075 -10.21667 -10.19657
 Alpha  occ. eigenvalues --  -10.19274 -10.18604 -10.18546 -10.18350 -10.18068
 Alpha  occ. eigenvalues --  -10.18017 -10.17846 -10.17771 -10.17543 -10.17462
 Alpha  occ. eigenvalues --   -8.13894  -6.10175  -6.10152  -6.09968  -1.13242
 Alpha  occ. eigenvalues --   -1.02289  -1.01543  -1.00931  -0.91260  -0.87880
 Alpha  occ. eigenvalues --   -0.86156  -0.80369  -0.77367  -0.75647  -0.75566
 Alpha  occ. eigenvalues --   -0.69781  -0.66985  -0.64094  -0.61696  -0.59849
 Alpha  occ. eigenvalues --   -0.56831  -0.55454  -0.54176  -0.52759  -0.51849
 Alpha  occ. eigenvalues --   -0.49685  -0.48555  -0.47370  -0.46693  -0.46037
 Alpha  occ. eigenvalues --   -0.44361  -0.43152  -0.43010  -0.42643  -0.42132
 Alpha  occ. eigenvalues --   -0.41637  -0.40071  -0.38915  -0.38199  -0.37192
 Alpha  occ. eigenvalues --   -0.36765  -0.35722  -0.35184  -0.34702  -0.34234
 Alpha  occ. eigenvalues --   -0.33333  -0.32305  -0.30170  -0.27798  -0.27472
 Alpha  occ. eigenvalues --   -0.26158  -0.25861  -0.25499  -0.24540  -0.15157
 Alpha virt. eigenvalues --   -0.06749  -0.04186  -0.01431  -0.00993   0.00018
 Alpha virt. eigenvalues --    0.01139   0.01593   0.02177   0.02378   0.03113
 Alpha virt. eigenvalues --    0.03753   0.04140   0.04338   0.04736   0.05333

  Beta  occ. eigenvalues --  -89.07712 -19.13072 -19.13048 -19.08133 -19.07691
  Beta  occ. eigenvalues --  -14.34542 -10.23501 -10.22911 -10.21590 -10.19698
  Beta  occ. eigenvalues --  -10.19178 -10.18494 -10.18408 -10.18354 -10.18022
  Beta  occ. eigenvalues --  -10.17958 -10.17821 -10.17729 -10.17546 -10.17448
  Beta  occ. eigenvalues --   -8.13894  -6.10172  -6.10151  -6.09970  -1.13226
  Beta  occ. eigenvalues --   -1.02278  -1.00655  -0.99892  -0.91240  -0.87641
  Beta  occ. eigenvalues --   -0.86020  -0.79965  -0.77154  -0.75446  -0.75419
  Beta  occ. eigenvalues --   -0.69421  -0.66489  -0.63893  -0.61500  -0.59783
  Beta  occ. eigenvalues --   -0.56650  -0.55293  -0.54007  -0.52707  -0.51768
  Beta  occ. eigenvalues --   -0.49552  -0.48376  -0.47191  -0.46569  -0.45996
  Beta  occ. eigenvalues --   -0.44332  -0.42936  -0.42503  -0.41897  -0.41632
  Beta  occ. eigenvalues --   -0.41423  -0.39819  -0.37833  -0.37129  -0.36672
  Beta  occ. eigenvalues --   -0.36625  -0.35615  -0.34725  -0.34180  -0.34015
  Beta  occ. eigenvalues --   -0.33278  -0.32257  -0.29946  -0.26946  -0.25814
  Beta  occ. eigenvalues --   -0.25453  -0.25197  -0.24999  -0.24018
  Beta virt. eigenvalues --   -0.09318  -0.05944  -0.03100  -0.01190  -0.00976
  Beta virt. eigenvalues --    0.00028   0.01153   0.01624   0.02229   0.02721
  Beta virt. eigenvalues --    0.03349   0.03787   0.04185   0.04373   0.04969

 Mulliken charges and spin densities:
               1          2
     1  C    0.070836   0.014842
     2  C   -0.449706   0.035537
     3  C   -0.479095   0.017388
     4  C    0.305352   0.023753
     5  C    0.331157   0.007723
     6  C    0.079082   0.036076
     7  C   -0.721857   0.071890
     8  C    0.297106   0.079766
     9  C    0.620219   0.094668
    10  C   -0.411777   0.094503
    11  C   -0.097306  -0.020878
    12  C   -0.118222   0.018004
    13  C   -0.363626   0.086894
    14  O   -0.419079   0.188944
    15  O   -0.437375   0.220743
    16  H    0.166281  -0.001174
    17  H    0.254645  -0.005080
    18  H    0.168837  -0.002460
    19  H    0.226412   0.001095
    20  H    0.169491  -0.000613
    21  C   -0.431933   0.035102
    22  H    0.186422  -0.001671
    23  H    0.187497  -0.002755
    24  S    0.272491   0.006684
    25  O   -0.258277   0.002277
    26  O   -0.330062  -0.002588
    27  N   -0.446621   0.000316
    28  H    0.303454  -0.000290
    29  H    0.325653   0.001303
 Sum of Mulliken charges =  -1.00000   1.00000

 Dipole moment (field-independent basis, Debye):
    X=             -0.7216    Y=             -0.5759    Z=              3.8083  Tot=              3.9186
 Quadrupole moment (field-independent basis, Debye-Ang):
   XX=           -149.7973   YY=           -158.6019   ZZ=           -127.2801
   XY=             -9.1883   XZ=            -18.4302   YZ=             -4.6918

 Normal termination of Gaussian 16 at Tue Jan 16 06:04:48 2024.
