 Gaussian 16, Revision A.03,
 Gaussian 16:  ES64L-G16RevA.03 25-Dec-2016

 ----------------------------------------------------------------
 #P UB3LYP/6-311++G(d,p) SCRF=(PCM,Solvent=n,n-DiMethylFormamide)
 ----------------------------------------------------------------

 ------------------
 Radical PCM in DMF
 ------------------
 Symbolic Z-matrix:
 Charge = -1 Multiplicity = 2

                         Standard orientation:
 ---------------------------------------------------------------------
 Center     Atomic      Atomic             Coordinates (Angstroms)
 Number     Number       Type             X           Y           Z
 ---------------------------------------------------------------------
      1          6           0        4.991693   -1.494003    0.000357
      2          6           0        3.684852   -0.736839    0.000343
      3          6           0        3.683616    0.676477    0.000321
      4          6           0        2.518011    1.425584    0.000083
      5          6           0        2.650325    2.932364   -0.000199
      6          6           0        1.253594    0.750462   -0.000070
      7          6           0       -0.014811    1.477759   -0.000279
      8          8           0       -0.079631    2.735429   -0.000486
      9          6           0       -1.248047    0.676739   -0.000176
     10          6           0       -2.469409    1.385542    0.000016
     11          6           0       -3.684860    0.736804    0.000149
     12          6           0       -4.991705    1.493994    0.000672
     13          6           0       -3.683617   -0.676480    0.000004
     14          6           0       -2.517980   -1.425581   -0.000152
     15          6           0       -2.650297   -2.932364   -0.000065
     16          6           0       -1.253613   -0.750451   -0.000203
     17          6           0        0.014820   -1.477752   -0.000248
     18          8           0        0.079604   -2.735414   -0.000452
     19          6           0        1.248036   -0.676723   -0.000011
     20          6           0        2.469404   -1.385545    0.000170
     21          1           0        5.597746   -1.250561   -0.880962
     22          1           0        5.598042   -1.250137    0.881351
     23          1           0        4.820057   -2.573168    0.000638
     24          1           0        4.636662    1.201504    0.000457
     25          1           0        2.161960    3.378979   -0.868319
     26          1           0        2.160979    3.379527    0.867058
     27          1           0        3.710542    3.208512    0.000241
     28          1           0       -2.407241    2.467859    0.000022
     29          1           0       -5.598765    1.249537   -0.879663
     30          1           0       -4.820019    2.573146   -0.000470
     31          1           0       -5.597038    1.251169    0.882658
     32          1           0       -4.636644   -1.201543    0.000055
     33          1           0       -3.710510   -3.208512   -0.000031
     34          1           0       -2.161451   -3.379150    0.867692
     35          1           0       -2.161397   -3.379345   -0.867677
     36          1           0        2.407224   -2.467862    0.000199
 ---------------------------------------------------------------------

 SCF Done:  E(UB3LYP) =  -846.389278470     A.U. after   18 cycles

 The electronic state is 2-A.
 Alpha  occ. eigenvalues --  -19.06540 -19.06539 -10.21716 -10.21715 -10.17927
 Alpha  occ. eigenvalues --  -10.17927 -10.17463 -10.17463 -10.16711 -10.16710
 Alpha  occ. eigenvalues --  -10.16514 -10.16513 -10.16171 -10.16171 -10.15973
 Alpha  occ. eigenvalues --  -10.15973 -10.15609 -10.15609 -10.15174 -10.15174
 Alpha  occ. eigenvalues --   -0.99529  -0.99276  -0.85767  -0.85090  -0.79041
 Alpha  occ. eigenvalues --   -0.77464  -0.77237  -0.74806  -0.69767  -0.68936
 Alpha  occ. eigenvalues --   -0.68211  -0.67643  -0.63712  -0.61714  -0.58607
 Alpha  occ. eigenvalues --   -0.55765  -0.53424  -0.52668  -0.49675  -0.47382
 Alpha  occ. eigenvalues --   -0.45659  -0.45331  -0.43332  -0.42891  -0.41847
 Alpha  occ. eigenvalues --   -0.41140  -0.40977  -0.40702  -0.40688  -0.40619
 Alpha  occ. eigenvalues --   -0.39763  -0.39700  -0.38833  -0.38690  -0.38392
 Alpha  occ. eigenvalues --   -0.36857  -0.36454  -0.35781  -0.35707  -0.33645
 Alpha  occ. eigenvalues --   -0.33591  -0.33392  -0.32418  -0.32186  -0.25494
 Alpha  occ. eigenvalues --   -0.24354  -0.24064  -0.23414  -0.23413  -0.22525
 Alpha  occ. eigenvalues --   -0.13265
 Alpha virt. eigenvalues --   -0.04142  -0.01743  -0.00538   0.00123   0.00378
 Alpha virt. eigenvalues --    0.00816   0.01427   0.02074   0.02889   0.02932
 Alpha virt. eigenvalues --    0.03424   0.03502   0.03684   0.04845   0.04860

  Beta  occ. eigenvalues --  -19.05987 -19.05986 -10.21542 -10.21542 -10.17921
  Beta  occ. eigenvalues --  -10.17921 -10.17403 -10.17403 -10.16664 -10.16663
  Beta  occ. eigenvalues --  -10.16415 -10.16414 -10.16176 -10.16176 -10.15930
  Beta  occ. eigenvalues --  -10.15930 -10.15603 -10.15603 -10.15174 -10.15174
  Beta  occ. eigenvalues --   -0.98568  -0.98291  -0.85532  -0.84975  -0.78690
  Beta  occ. eigenvalues --   -0.77336  -0.77113  -0.74632  -0.69657  -0.68509
  Beta  occ. eigenvalues --   -0.68154  -0.67589  -0.63226  -0.61502  -0.58415
  Beta  occ. eigenvalues --   -0.55697  -0.53169  -0.52466  -0.49538  -0.47195
  Beta  occ. eigenvalues --   -0.45487  -0.45258  -0.43144  -0.42347  -0.41723
  Beta  occ. eigenvalues --   -0.40889  -0.40724  -0.40567  -0.40550  -0.40429
  Beta  occ. eigenvalues --   -0.39590  -0.39484  -0.38808  -0.38313  -0.37908
  Beta  occ. eigenvalues --   -0.36401  -0.35693  -0.35584  -0.34805  -0.33510
  Beta  occ. eigenvalues --   -0.33354  -0.33131  -0.32290  -0.31025  -0.23760
  Beta  occ. eigenvalues --   -0.23507  -0.23469  -0.22917  -0.22815  -0.22030
  Beta virt. eigenvalues --   -0.07460  -0.03163  -0.00783  -0.00528   0.00121
  Beta virt. eigenvalues --    0.00603   0.00822   0.01429   0.02080   0.02958
  Beta virt. eigenvalues --    0.03091   0.03430   0.03517   0.03679   0.04859

 Mulliken charges and spin densities:
               1          2
     1  C   -0.369147  -0.004292
     2  C    0.483304   0.040577
     3  C   -0.410378   0.045091
     4  C    0.407448   0.016129
     5  C   -0.544415   0.003251
     6  C    0.234747   0.022461
     7  C   -0.907994   0.090491
     8  O   -0.428144   0.203878
     9  C    0.149616   0.060353
    10  C   -0.312800   0.021680
    11  C    0.483323   0.040553
    12  C   -0.369155  -0.004290
    13  C   -0.410384   0.045096
    14  C    0.407488   0.016123
    15  C   -0.544394   0.003251
    16  C    0.234741   0.022449
    17  C   -0.907992   0.090479
    18  O   -0.428122   0.203868
    19  C    0.149607   0.060386
    20  C   -0.312794   0.021660
    21  H    0.162057   0.002879
    22  H    0.162007   0.002877
    23  H    0.157623   0.000132
    24  H    0.115166  -0.003213
    25  H    0.160996   0.000056
    26  H    0.160983   0.000055
    27  H    0.145529  -0.000488
    28  H    0.133363  -0.001893
    29  H    0.161952   0.002873
    30  H    0.157623   0.000132
    31  H    0.162111   0.002879
    32  H    0.115163  -0.003213
    33  H    0.145531  -0.000488
    34  H    0.160987   0.000055
    35  H    0.160990   0.000055
    36  H    0.133364  -0.001892
 Sum of Mulliken charges =  -1.00000   1.00000

 Dipole moment (field-independent basis, Debye):
    X=              0.0000    Y=             -0.0003    Z=              0.0024  Tot=              0.0025
 Quadrupole moment (field-independent basis, Debye-Ang):
   XX=           -115.5689   YY=           -153.8531   ZZ=           -125.3738
   XY=              1.0624   XZ=             -0.0034   YZ=              0.0002

 Normal termination of Gaussian 16 at Sun Jan 14 01:15:35 2024.
