 Q-Chem 5.4, Q-Chem, Inc., Pleasanton, CA (2021)
 Q-Chem 5.4.0 for Intel X86 EM64T Linux

User input:
--------------------------------------------------------------
$molecule
-2 1
C                 -2.0775870000      2.9962350000      0.4624520000
C                 -2.8193860000      2.3165150000      1.4088860000
C                 -2.3543390000      1.0796740000      1.9184610000
C                 -0.8473540000      2.4839530000     -0.0202050000
C                 -0.3723670000      1.2265510000      0.4987930000
C                 -1.1525500000      0.5605780000      1.4616310000
C                 -0.0863110000      3.1972250000     -1.0054340000
C                  1.1405220000      2.5819100000     -1.4170610000
C                  1.6299420000      1.3700960000     -0.9456630000
C                  0.8937140000      0.6310770000      0.0491940000
O                 -0.4094290000      4.3284310000     -1.5454470000
O                  1.3101430000     -0.4792760000      0.5117500000
H                 -2.4144890000      3.9452820000      0.0580360000
H                 -3.7606030000      2.7309450000      1.7637020000
H                 -2.9360820000      0.5426880000      2.6636220000
H                 -0.7686240000     -0.3838350000      1.8338810000
C                  2.9277280000      0.7985850000     -1.4577880000
O                  1.8172370000      3.3162910000     -2.3613410000
H                  3.1086040000      1.1531060000     -2.4791140000
H                  2.8299800000     -0.2928240000     -1.4817310000
H                  1.2002660000      4.0810780000     -2.4620390000
C                  4.1512890000      1.1490100000     -0.5867970000
C                  5.4568160000      0.5332980000     -1.1057380000
C                  6.6936960000      0.8795700000     -0.2664370000
H                  3.9576970000      0.7997750000      0.4331790000
H                  4.2547030000      2.2400550000     -0.5393990000
H                  5.6246120000      0.8618080000     -2.1413660000
H                  5.3455620000     -0.5588670000     -1.1479740000
H                  6.5305980000      0.5495980000      0.7680340000
H                  6.8041170000      1.9713960000     -0.2215160000
C                  7.9958180000      0.2631460000     -0.7945810000
C                  9.2387670000      0.6153350000      0.0329970000
C                 10.5377810000     -0.0004010000     -0.5026990000
C                 11.7829080000      0.3556040000      0.3200110000
C                 13.0798620000     -0.2606090000     -0.2195870000
C                 14.3251970000      0.0987950000      0.6015470000
C                 15.6189900000     -0.5156510000      0.0591510000
H                  8.1521470000      0.5874270000     -1.8324150000
H                  7.8870980000     -0.8291220000     -0.8334120000
H                  9.0858150000      0.2894270000      1.0704510000
H                  9.3473460000      1.7074520000      0.0729290000
H                 10.6885960000      0.3228190000     -1.5414170000
H                 10.4309720000     -1.0927700000     -0.5399330000
H                 11.6340210000      0.0316010000      1.3586670000
H                 11.8906240000      1.4478620000      0.3568050000
H                 13.2301000000      0.0614530000     -1.2584060000
H                 12.9761200000     -1.3530400000     -0.2548650000
H                 14.1773280000     -0.2239870000      1.6400960000
H                 14.4294540000      1.1907840000      0.6382420000
H                 15.5685980000     -1.6105090000      0.0462680000
H                 16.4858910000     -0.2382010000      0.6685270000
H                 15.8227660000     -0.1823510000     -0.9649690000
$end
$rem
MAX_SCF_CYCLES=200
BASIS  =  6-311++G(d,p)
GUI  =  2
JOB_TYPE  =  SP
SCF_ALGORITHM = RCA_DIIS
SCF_CONVERGENCE = 8
scf_guess = GWH
THRESH = 14
METHOD  =  B3LYP
SOLVENT_METHOD = PCM
$end
$pcm
theory = CPCM
$end
$solvent
dielectric 37.219
opticaldielectric 1.43
$end

--------------------------------------------------------------

             Standard Nuclear Orientation (Angstroms)
    I     Atom           X                Y                Z
 ----------------------------------------------------------------
    1      C      -2.0775870000     2.9962350000     0.4624520000
    2      C      -2.8193860000     2.3165150000     1.4088860000
    3      C      -2.3543390000     1.0796740000     1.9184610000
    4      C      -0.8473540000     2.4839530000    -0.0202050000
    5      C      -0.3723670000     1.2265510000     0.4987930000
    6      C      -1.1525500000     0.5605780000     1.4616310000
    7      C      -0.0863110000     3.1972250000    -1.0054340000
    8      C       1.1405220000     2.5819100000    -1.4170610000
    9      C       1.6299420000     1.3700960000    -0.9456630000
   10      C       0.8937140000     0.6310770000     0.0491940000
   11      O      -0.4094290000     4.3284310000    -1.5454470000
   12      O       1.3101430000    -0.4792760000     0.5117500000
   13      H      -2.4144890000     3.9452820000     0.0580360000
   14      H      -3.7606030000     2.7309450000     1.7637020000
   15      H      -2.9360820000     0.5426880000     2.6636220000
   16      H      -0.7686240000    -0.3838350000     1.8338810000
   17      C       2.9277280000     0.7985850000    -1.4577880000
   18      O       1.8172370000     3.3162910000    -2.3613410000
   19      H       3.1086040000     1.1531060000    -2.4791140000
   20      H       2.8299800000    -0.2928240000    -1.4817310000
   21      H       1.2002660000     4.0810780000    -2.4620390000
   22      C       4.1512890000     1.1490100000    -0.5867970000
   23      C       5.4568160000     0.5332980000    -1.1057380000
   24      C       6.6936960000     0.8795700000    -0.2664370000
   25      H       3.9576970000     0.7997750000     0.4331790000
   26      H       4.2547030000     2.2400550000    -0.5393990000
   27      H       5.6246120000     0.8618080000    -2.1413660000
   28      H       5.3455620000    -0.5588670000    -1.1479740000
   29      H       6.5305980000     0.5495980000     0.7680340000
   30      H       6.8041170000     1.9713960000    -0.2215160000
   31      C       7.9958180000     0.2631460000    -0.7945810000
   32      C       9.2387670000     0.6153350000     0.0329970000
   33      C      10.5377810000    -0.0004010000    -0.5026990000
   34      C      11.7829080000     0.3556040000     0.3200110000
   35      C      13.0798620000    -0.2606090000    -0.2195870000
   36      C      14.3251970000     0.0987950000     0.6015470000
   37      C      15.6189900000    -0.5156510000     0.0591510000
   38      H       8.1521470000     0.5874270000    -1.8324150000
   39      H       7.8870980000    -0.8291220000    -0.8334120000
   40      H       9.0858150000     0.2894270000     1.0704510000
   41      H       9.3473460000     1.7074520000     0.0729290000
   42      H      10.6885960000     0.3228190000    -1.5414170000
   43      H      10.4309720000    -1.0927700000    -0.5399330000
   44      H      11.6340210000     0.0316010000     1.3586670000
   45      H      11.8906240000     1.4478620000     0.3568050000
   46      H      13.2301000000     0.0614530000    -1.2584060000
   47      H      12.9761200000    -1.3530400000    -0.2548650000
   48      H      14.1773280000    -0.2239870000     1.6400960000
   49      H      14.4294540000     1.1907840000     0.6382420000
   50      H      15.5685980000    -1.6105090000     0.0462680000
   51      H      16.4858910000    -0.2382010000     0.6685270000
   52      H      15.8227660000    -0.1823510000    -0.9649690000
 ----------------------------------------------------------------

   84   -1043.3435475420      2.86E-09 Convergence criterion met
 Total energy in the final basis set = -1043.34354754

                    Orbital Energies (a.u.)
 --------------------------------------------------------------

 Alpha MOs
 -- Occupied --
-19.1120 -19.0268 -19.0196 -10.1750 -10.1725 -10.1610 -10.1568 -10.1540
-10.1537 -10.1533 -10.1528 -10.1521 -10.1508 -10.1507 -10.1486 -10.1467
-10.1447 -10.1436 -10.1432 -10.1421 -10.1400 -10.1345 -10.1306 -10.1225
 -1.0268  -0.9439  -0.9347  -0.8234  -0.8050  -0.7923  -0.7768  -0.7602
 -0.7388  -0.7205  -0.7146  -0.6889  -0.6588  -0.6324  -0.6150  -0.5894
 -0.5797  -0.5704  -0.5662  -0.5629  -0.5518  -0.5341  -0.5022  -0.4780
 -0.4704  -0.4649  -0.4506  -0.4415  -0.4291  -0.4263  -0.4223  -0.4172
 -0.4140  -0.4018  -0.3994  -0.3971  -0.3885  -0.3847  -0.3741  -0.3683
 -0.3663  -0.3609  -0.3561  -0.3503  -0.3471  -0.3427  -0.3352  -0.3321
 -0.3272  -0.3210  -0.3194  -0.3157  -0.3146  -0.3131  -0.3116  -0.3098
 -0.3062  -0.3008  -0.2981  -0.2874  -0.2291  -0.2249  -0.2158  -0.1980
 -0.1916  -0.1062

          Ground-State Mulliken Net Atomic Charges

     Atom                 Charge (a.u.)
  ----------------------------------------
      1 C                    -0.106353
      2 C                    -0.405458
      3 C                    -0.518275
      4 C                     0.472025
      5 C                    -0.097365
      6 C                    -0.010633
      7 C                    -0.912137
      8 C                    -0.636137
      9 C                     1.960799
     10 C                    -0.638397
     11 O                    -0.751485
     12 O                    -0.673052
     13 H                     0.143191
     14 H                     0.169813
     15 H                     0.163703
     16 H                     0.143583
     17 C                    -0.399213
     18 O                    -0.350720
     19 H                     0.202169
     20 H                     0.171636
     21 H                     0.286368
     22 C                    -0.872070
     23 C                    -0.334590
     24 C                    -0.077804
     25 H                     0.174915
     26 H                     0.159250
     27 H                     0.112256
     28 H                     0.117555
     29 H                     0.129609
     30 H                     0.128816
     31 C                     0.032784
     32 C                     0.043536
     33 C                    -0.046898
     34 C                    -0.301556
     35 C                    -0.502349
     36 C                    -0.299571
     37 C                    -0.717618
     38 H                     0.135097
     39 H                     0.136428
     40 H                     0.134170
     41 H                     0.133538
     42 H                     0.133019
     43 H                     0.132851
     44 H                     0.131868
     45 H                     0.131582
     46 H                     0.128718
     47 H                     0.129189
     48 H                     0.135527
     49 H                     0.135340
     50 H                     0.144987
     51 H                     0.152278
     52 H                     0.145077
  ----------------------------------------
  Sum of atomic charges =    -2.000000

                    Cartesian Multipole Moments
 -----------------------------------------------------------------
    Charge (ESU x 10^10)
                -9.6064
    Dipole Moment (Debye)
         X      -3.4164      Y     -18.1979      Z       4.1047
       Tot      18.9653
    Quadrupole Moments (Debye-Ang)
        XX    -181.6587     XY       7.0530     YY    -232.8335
        XZ       3.4225     YZ      23.4111     ZZ    -175.3643

 Total job time:  2521.26s(wall), 14799.15s(cpu)
        *  Thank you very much for using Q-Chem.  Have a nice day.  *
