 Q-Chem 5.4, Q-Chem, Inc., Pleasanton, CA (2021)
 Q-Chem 5.4.0 for Intel X86 EM64T Linux

User input:
--------------------------------------------------------------
$molecule
-1 2
C                  4.9885520000     -2.4957580000      0.2066480000
C                  5.6799570000     -1.6602160000     -0.6501530000
C                  4.9704230000     -0.8059750000     -1.5188900000
C                  3.5793920000     -2.5107440000      0.2291800000
C                  2.8631550000     -1.6501750000     -0.6459810000
C                  3.5889710000     -0.8051230000     -1.5126940000
C                  2.8894930000     -3.4192300000      1.1605730000
C                  1.4215040000     -3.3803120000      1.1284740000
C                  0.7099640000     -2.5102660000      0.2435290000
C                  1.3940960000     -1.6133890000     -0.6759670000
C                  0.7003220000     -4.2193070000      1.9892710000
C                 -0.7059190000     -2.5311540000      0.2721860000
C                 -1.3975690000     -3.3600280000      1.1224760000
O                  3.5215300000     -4.1735560000      1.9275450000
O                  0.7720270000     -0.8476720000     -1.4551970000
H                  5.5052410000     -3.1636910000      0.8861330000
H                 -2.4798970000     -3.3613380000      1.1294510000
H                  3.0189380000     -0.1587900000     -2.1698370000
H                  1.2538730000     -4.8718630000      2.6529830000
H                 -1.2253190000     -1.8644830000     -0.4061270000
C                 -0.6914200000     -4.2272770000      2.0047450000
H                  5.5115170000     -0.1485310000     -2.1930540000
C                 -1.3795750000     -5.1342740000      2.9351460000
O                 -0.8582570000     -5.9041980000      3.7192240000
O                 -2.7471630000     -5.0392810000      2.8453070000
C                 -3.4795680000     -5.8942390000      3.7230530000
H                 -4.5313460000     -5.6921380000      3.5210260000
H                 -3.2455890000     -5.6765600000      4.7678800000
H                 -3.2510750000     -6.9447370000      3.5280900000
H                  6.7657020000     -1.6606340000     -0.6552620000
$end
$rem
MAX_SCF_CYCLES=200
BASIS  =  6-311++G(d,p)
GUI  =  2
JOB_TYPE  =  SP
METHOD  =  B3LYP
SOLVENT_METHOD = PCM
$end
$pcm
theory = CPCM
$end
$solvent
dielectric 37.219
opticaldielectric 1.43
$end

--------------------------------------------------------------

             Standard Nuclear Orientation (Angstroms)
    I     Atom           X                Y                Z
 ----------------------------------------------------------------
    1      C       4.9885520000    -2.4957580000     0.2066480000
    2      C       5.6799570000    -1.6602160000    -0.6501530000
    3      C       4.9704230000    -0.8059750000    -1.5188900000
    4      C       3.5793920000    -2.5107440000     0.2291800000
    5      C       2.8631550000    -1.6501750000    -0.6459810000
    6      C       3.5889710000    -0.8051230000    -1.5126940000
    7      C       2.8894930000    -3.4192300000     1.1605730000
    8      C       1.4215040000    -3.3803120000     1.1284740000
    9      C       0.7099640000    -2.5102660000     0.2435290000
   10      C       1.3940960000    -1.6133890000    -0.6759670000
   11      C       0.7003220000    -4.2193070000     1.9892710000
   12      C      -0.7059190000    -2.5311540000     0.2721860000
   13      C      -1.3975690000    -3.3600280000     1.1224760000
   14      O       3.5215300000    -4.1735560000     1.9275450000
   15      O       0.7720270000    -0.8476720000    -1.4551970000
   16      H       5.5052410000    -3.1636910000     0.8861330000
   17      H      -2.4798970000    -3.3613380000     1.1294510000
   18      H       3.0189380000    -0.1587900000    -2.1698370000
   19      H       1.2538730000    -4.8718630000     2.6529830000
   20      H      -1.2253190000    -1.8644830000    -0.4061270000
   21      C      -0.6914200000    -4.2272770000     2.0047450000
   22      H       5.5115170000    -0.1485310000    -2.1930540000
   23      C      -1.3795750000    -5.1342740000     2.9351460000
   24      O      -0.8582570000    -5.9041980000     3.7192240000
   25      O      -2.7471630000    -5.0392810000     2.8453070000
   26      C      -3.4795680000    -5.8942390000     3.7230530000
   27      H      -4.5313460000    -5.6921380000     3.5210260000
   28      H      -3.2455890000    -5.6765600000     4.7678800000
   29      H      -3.2510750000    -6.9447370000     3.5280900000
   30      H       6.7657020000    -1.6606340000    -0.6552620000
 ----------------------------------------------------------------

    8    -917.0525699570      7.26e-06  Convergence criterion met
 Total energy in the final basis set =     -917.0525699570

                    Orbital Energies (a.u.)
 --------------------------------------------------------------

 Alpha MOs
 -- Occupied --
-19.1678 -19.1169 -19.0869 -19.0815 -10.3067 -10.2374 -10.2292 -10.2166
-10.1910 -10.1846 -10.1808 -10.1803 -10.1803 -10.1792 -10.1785 -10.1764
-10.1754 -10.1748 -10.1739 -10.1727  -1.1076  -1.0228  -1.0167  -1.0077
 -0.8703  -0.8584  -0.7984  -0.7657  -0.7550  -0.7534  -0.7214  -0.6762
 -0.6486  -0.6287  -0.5963  -0.5779  -0.5633  -0.5433  -0.5349  -0.4995
 -0.4871  -0.4838  -0.4747  -0.4626  -0.4582  -0.4380  -0.4323  -0.4298
 -0.4270  -0.4223  -0.4114  -0.4107  -0.4075  -0.3890  -0.3886  -0.3688
 -0.3658  -0.3561  -0.3485  -0.3442  -0.3383  -0.3120  -0.2921  -0.2744
 -0.2666  -0.2602  -0.2552  -0.2548  -0.2447  -0.1491

 Beta MOs
 -- Occupied --
-19.1677 -19.1163 -19.0825 -19.0760 -10.3066 -10.2360 -10.2273 -10.2166
-10.1902 -10.1850 -10.1797 -10.1794 -10.1792 -10.1788 -10.1779 -10.1762
-10.1750 -10.1748 -10.1739 -10.1725  -1.1071  -1.0221  -1.0089  -0.9977
 -0.8677  -0.8573  -0.7946  -0.7635  -0.7529  -0.7521  -0.7203  -0.6693
 -0.6470  -0.6262  -0.5956  -0.5768  -0.5612  -0.5416  -0.5335  -0.4976
 -0.4864  -0.4829  -0.4719  -0.4613  -0.4575  -0.4373  -0.4319  -0.4265
 -0.4183  -0.4172  -0.4098  -0.4088  -0.4041  -0.3874  -0.3666  -0.3654
 -0.3653  -0.3550  -0.3480  -0.3370  -0.3327  -0.3106  -0.2915  -0.2618
 -0.2554  -0.2519  -0.2504  -0.2496  -0.2399

          Ground-State Mulliken Net Atomic Charges

     Atom                 Charge (a.u.)    Spin (a.u.)
  --------------------------------------------------------
      1 C                     0.041497       0.012929
      2 C                    -0.464011       0.040094
      3 C                    -0.462809       0.014117
      4 C                     0.441995       0.029083
      5 C                     0.341486       0.002999
      6 C                     0.017356       0.039382
      7 C                    -0.621117       0.076640
      8 C                     0.323934       0.070187
      9 C                     0.261187       0.088929
     10 C                    -0.706443       0.103507
     11 C                    -0.026427      -0.019935
     12 C                    -0.116011       0.031268
     13 C                    -0.635992       0.067425
     14 O                    -0.440066       0.167949
     15 O                    -0.466256       0.213322
     16 H                     0.172738      -0.000903
     17 H                     0.214087      -0.004777
     18 H                     0.174974      -0.002616
     19 H                     0.167090       0.001177
     20 H                     0.180970      -0.001438
     21 C                     0.203094       0.060502
     22 H                     0.202737      -0.001584
     23 C                     0.212323      -0.006922
     24 O                    -0.360609       0.020305
     25 O                    -0.151038       0.001722
     26 C                    -0.256201      -0.000535
     27 H                     0.171353      -0.000065
     28 H                     0.188372       0.000158
     29 H                     0.188369       0.000157
     30 H                     0.203418      -0.003078
  --------------------------------------------------------
  Sum of atomic charges =    -1.000000

                    Cartesian Multipole Moments
 -----------------------------------------------------------------
    Charge (ESU x 10^10)
                -4.8032
    Dipole Moment (Debye)
         X      -9.1961      Y      14.4941      Z      -3.6275
       Tot      17.5444
    Quadrupole Moments (Debye-Ang)
        XX    -127.4783     XY      40.3663     YY    -181.4364
        XZ     -19.8891     YZ      28.4399     ZZ    -141.0561

 Total job time:  86.49s(wall), 455.25s(cpu)
        *  Thank you very much for using Q-Chem.  Have a nice day.  *
