 Gaussian 16, Revision A.03,
 Gaussian 16:  ES64L-G16RevA.03 25-Dec-2016

 --------------------------------------
 #P UB3LYP/6-311++G(d,p) nosym opt freq
 --------------------------------------

 -------
 Radical
 -------
 Symbolic Z-matrix:
 Charge = -1 Multiplicity = 2

 SCF Done:  E(UB3LYP) =  -916.973009656     A.U. after   24 cycles
 Optimization completed.
    -- Stationary point found.
 Normal termination of Gaussian 16 at Sun Jan  7 06:55:42 2024.

 ----------------------------------------------------------------------
 #P Geom=AllCheck Guess=TCheck SCRF=Check GenChk UB3LYP/6-311++G(d,p) F
 req
 ----------------------------------------------------------------------

 Structure from the checkpoint file:  "221-rad.chk"
 -------
 Radical
 -------
 Charge = -1 Multiplicity = 2

                          Input orientation:
 ---------------------------------------------------------------------
 Center     Atomic      Atomic             Coordinates (Angstroms)
 Number     Number       Type             X           Y           Z
 ---------------------------------------------------------------------
      1          6           0        4.988552   -2.495758    0.206648
      2          6           0        5.679957   -1.660216   -0.650153
      3          6           0        4.970423   -0.805975   -1.518890
      4          6           0        3.579392   -2.510744    0.229180
      5          6           0        2.863155   -1.650175   -0.645981
      6          6           0        3.588971   -0.805123   -1.512694
      7          6           0        2.889493   -3.419230    1.160573
      8          6           0        1.421504   -3.380312    1.128474
      9          6           0        0.709964   -2.510266    0.243529
     10          6           0        1.394096   -1.613389   -0.675967
     11          6           0        0.700322   -4.219307    1.989271
     12          6           0       -0.705919   -2.531154    0.272186
     13          6           0       -1.397569   -3.360028    1.122476
     14          8           0        3.521530   -4.173556    1.927545
     15          8           0        0.772027   -0.847672   -1.455197
     16          1           0        5.505241   -3.163691    0.886133
     17          1           0       -2.479897   -3.361338    1.129451
     18          1           0        3.018938   -0.158790   -2.169837
     19          1           0        1.253873   -4.871863    2.652983
     20          1           0       -1.225319   -1.864483   -0.406127
     21          6           0       -0.691420   -4.227277    2.004745
     22          1           0        5.511517   -0.148531   -2.193054
     23          6           0       -1.379575   -5.134274    2.935146
     24          8           0       -0.858257   -5.904198    3.719224
     25          8           0       -2.747163   -5.039281    2.845307
     26          6           0       -3.479568   -5.894239    3.723053
     27          1           0       -4.531346   -5.692138    3.521026
     28          1           0       -3.245589   -5.676560    4.767880
     29          1           0       -3.251075   -6.944737    3.528090
     30          1           0        6.765702   -1.660634   -0.655262
 ---------------------------------------------------------------------

 SCF Done:  E(UB3LYP) =  -916.973009656     A.U. after    1 cycles

 Alpha  occ. eigenvalues --  -19.06916 -19.00538 -18.96155 -18.95521 -10.19607
 Alpha  occ. eigenvalues --  -10.14087 -10.11365 -10.10420 -10.07455 -10.07021
 Alpha  occ. eigenvalues --  -10.06899 -10.06629 -10.06620 -10.06310 -10.06293
 Alpha  occ. eigenvalues --  -10.06218 -10.06151 -10.06062 -10.05997 -10.05810
 Alpha  occ. eigenvalues --   -1.00569  -0.91640  -0.89009  -0.88047  -0.75288
 Alpha  occ. eigenvalues --   -0.74471  -0.68421  -0.65424  -0.64198  -0.64033
 Alpha  occ. eigenvalues --   -0.62305  -0.55981  -0.53803  -0.51530  -0.48839
 Alpha  occ. eigenvalues --   -0.46978  -0.44908  -0.43571  -0.42201  -0.39253
 Alpha  occ. eigenvalues --   -0.38863  -0.37918  -0.35806  -0.35006  -0.34631
 Alpha  occ. eigenvalues --   -0.33989  -0.31669  -0.31429  -0.31329  -0.30319
 Alpha  occ. eigenvalues --   -0.29977  -0.29487  -0.29270  -0.27532  -0.26997
 Alpha  occ. eigenvalues --   -0.26142  -0.25470  -0.24356  -0.23660  -0.22596
 Alpha  occ. eigenvalues --   -0.22164  -0.21384  -0.18102  -0.15414  -0.14901
 Alpha  occ. eigenvalues --   -0.14441  -0.14102  -0.12730  -0.11805  -0.02705
 Alpha virt. eigenvalues --    0.04625   0.06434   0.07018   0.07755   0.09320
 Alpha virt. eigenvalues --    0.09776   0.10176   0.10230   0.10677   0.11430
 Alpha virt. eigenvalues --    0.11930   0.12596   0.13311   0.13924   0.14756

  Beta  occ. eigenvalues --  -19.06907 -19.00462 -18.95664 -18.94870 -10.19587
  Beta  occ. eigenvalues --  -10.14087 -10.11284 -10.10289 -10.07370 -10.07001
  Beta  occ. eigenvalues --  -10.06843 -10.06685 -10.06529 -10.06327 -10.06245
  Beta  occ. eigenvalues --  -10.06146 -10.06134 -10.05927 -10.05881 -10.05816
  Beta  occ. eigenvalues --   -1.00519  -0.91537  -0.88173  -0.86925  -0.75030
  Beta  occ. eigenvalues --   -0.74357  -0.68052  -0.65256  -0.64009  -0.63917
  Beta  occ. eigenvalues --   -0.62147  -0.55317  -0.53635  -0.51289  -0.48757
  Beta  occ. eigenvalues --   -0.46904  -0.44755  -0.43383  -0.42056  -0.39180
  Beta  occ. eigenvalues --   -0.38731  -0.37813  -0.35544  -0.34879  -0.34543
  Beta  occ. eigenvalues --   -0.33930  -0.31642  -0.31305  -0.31051  -0.29832
  Beta  occ. eigenvalues --   -0.29303  -0.29033  -0.29030  -0.27265  -0.26901
  Beta  occ. eigenvalues --   -0.25123  -0.24242  -0.23977  -0.23590  -0.21977
  Beta  occ. eigenvalues --   -0.21468  -0.21152  -0.18023  -0.14598  -0.13644
  Beta  occ. eigenvalues --   -0.13459  -0.13021  -0.12234  -0.11238
  Beta virt. eigenvalues --    0.02949   0.05441   0.06432   0.07749   0.07991
  Beta virt. eigenvalues --    0.09316   0.09770   0.10179   0.10469   0.10733
  Beta virt. eigenvalues --    0.11431   0.11926   0.13307   0.13326   0.13920

 Mulliken charges and spin densities:
               1          2
     1  C    0.019111  -0.000606
     2  C   -0.386222   0.044758
     3  C   -0.381423   0.013649
     4  C    0.527176   0.044061
     5  C    0.466784   0.017664
     6  C   -0.008028   0.031209
     7  C   -0.768546   0.038349
     8  C    0.380892   0.075809
     9  C    0.311189   0.111868
    10  C   -0.994142   0.060367
    11  C   -0.017331  -0.030565
    12  C   -0.099874   0.019107
    13  C   -0.545488   0.075388
    14  O   -0.334226   0.182196
    15  O   -0.353114   0.244100
    16  H    0.155675  -0.000306
    17  H    0.160519  -0.005254
    18  H    0.160416  -0.002675
    19  H    0.183818   0.001732
    20  H    0.168103  -0.001128
    21  C    0.123599   0.060495
    22  H    0.129025  -0.001465
    23  C    0.161111  -0.003165
    24  O   -0.300854   0.026555
    25  O   -0.119253   0.001799
    26  C   -0.232758  -0.000619
    27  H    0.128786  -0.000092
    28  H    0.167613   0.000169
    29  H    0.167645   0.000168
    30  H    0.129798  -0.003568
 Sum of Mulliken charges =  -1.00000   1.00000

 Dipole moment (field-independent basis, Debye):
    X=             -8.6052    Y=             14.4493    Z=             -3.5856  Tot=             17.1956
 Quadrupole moment (field-independent basis, Debye-Ang):
   XX=           -144.7643   YY=           -182.9130   ZZ=           -142.8980
   XY=             29.2681   XZ=             -9.8334   YZ=             29.7970

  Exact polarizability: 381.404  75.556 209.325 -78.600-103.715 214.526
 Approx polarizability: 576.143  64.650 341.943 -68.138-174.111 350.013

                      1                      2                      3
                      A                      A                      A
 Frequencies --     33.4320                49.2654                75.2515
 Red. masses --      5.4467                 7.4353                 5.2480
 Frc consts  --      0.0036                 0.0106                 0.0175
 IR Inten    --      3.8718                 0.1284                 2.4953

                      4                      5                      6
                      A                      A                      A
 Frequencies --    102.2932               117.8909               131.5653
 Red. masses --      5.2414                 2.1288                 2.5849
 Frc consts  --      0.0323                 0.0174                 0.0264
 IR Inten    --      1.7218                 1.4755                 1.1171

                      7                      8                      9
                      A                      A                      A
 Frequencies --    150.0270               161.6131               201.3457
 Red. masses --      1.9538                 6.5900                 5.4256
 Frc consts  --      0.0259                 0.1014                 0.1296
 IR Inten    --      1.7498                 4.7830                 0.5214

                     10                     11                     12
                      A                      A                      A
 Frequencies --    221.6613               246.1742               272.3459
 Red. masses --      5.2224                 7.8936                 6.1708
 Frc consts  --      0.1512                 0.2818                 0.2697
 IR Inten    --      0.3100                 2.1551                 0.2618

                     13                     14                     15
                      A                      A                      A
 Frequencies --    292.3801               343.0597               379.9833
 Red. masses --      6.9528                 4.7777                10.6909
 Frc consts  --      0.3502                 0.3313                 0.9095
 IR Inten    --      1.4446                17.0700                 3.6022

                     16                     17                     18
                      A                      A                      A
 Frequencies --    413.4488               421.0695               426.7529
 Red. masses --      7.4307                 3.4393                 6.2469
 Frc consts  --      0.7484                 0.3593                 0.6703
 IR Inten    --      6.9731                 1.4243                 0.0001

                     19                     20                     21
                      A                      A                      A
 Frequencies --    467.4328               469.8666               497.4715
 Red. masses --      3.2091                 8.5345                 7.9167
 Frc consts  --      0.4131                 1.1101                 1.1543
 IR Inten    --      0.0033                 1.0661                 7.5692

                     22                     23                     24
                      A                      A                      A
 Frequencies --    508.1318               510.9228               638.2525
 Red. masses --      4.6759                 8.2352                 4.7143
 Frc consts  --      0.7113                 1.2666                 1.1315
 IR Inten    --      0.3275                 9.7941                 1.5388

                     25                     26                     27
                      A                      A                      A
 Frequencies --    638.4447               648.9795               695.8601
 Red. masses --      6.8442                 6.6998                 6.7767
 Frc consts  --      1.6437                 1.6626                 1.9333
 IR Inten    --      7.8315                 5.5004                 0.4948

                     28                     29                     30
                      A                      A                      A
 Frequencies --    701.9138               705.5669               727.9901
 Red. masses --      6.9083                 2.3681                 4.9907
 Frc consts  --      2.0053                 0.6946                 1.5583
 IR Inten    --      0.8115                87.2130                 0.2342

                     31                     32                     33
                      A                      A                      A
 Frequencies --    767.6172               787.0595               790.2449
 Red. masses --      2.4542                 5.8974                 2.7844
 Frc consts  --      0.8520                 2.1524                 1.0245
 IR Inten    --      0.8775                21.1616                28.5255

                     34                     35                     36
                      A                      A                      A
 Frequencies --    808.8227               843.1878               843.4747
 Red. masses --      3.4333                 5.9623                 1.7498
 Frc consts  --      1.3233                 2.4975                 0.7335
 IR Inten    --      0.9584                31.6609                12.9928

                     37                     38                     39
                      A                      A                      A
 Frequencies --    878.4536               936.1400               951.0136
 Red. masses --      1.5247                 6.7721                 6.9425
 Frc consts  --      0.6932                 3.4967                 3.6995
 IR Inten    --      0.3586                 4.9918                34.0053

                     40                     41                     42
                      A                      A                      A
 Frequencies --    977.8932               985.6717               988.5855
 Red. masses --      1.3980                 1.3628                 1.2789
 Frc consts  --      0.7877                 0.7801                 0.7364
 IR Inten    --      3.0708                 3.3433                 0.0311

                     43                     44                     45
                      A                      A                      A
 Frequencies --    996.7990              1024.3811              1041.1699
 Red. masses --      1.3259                 3.4719                 1.9853
 Frc consts  --      0.7762                 2.1465                 1.2680
 IR Inten    --      2.5516                 8.6120                69.8687

                     46                     47                     48
                      A                      A                      A
 Frequencies --   1098.3233              1110.2230              1128.3824
 Red. masses --      3.2111                 2.1251                 2.2037
 Frc consts  --      2.2823                 1.5433                 1.6532
 IR Inten    --     37.1260                19.8882               671.2379

                     49                     50                     51
                      A                      A                      A
 Frequencies --   1149.0619              1167.9808              1169.7705
 Red. masses --      1.5041                 2.3452                 1.2820
 Frc consts  --      1.1700                 1.8850                 1.0336
 IR Inten    --     53.9876               273.6331                 0.5885

                     52                     53                     54
                      A                      A                      A
 Frequencies --   1195.2071              1201.2130              1217.2949
 Red. masses --      1.8236                 1.8408                 2.0017
 Frc consts  --      1.5348                 1.5649                 1.7476
 IR Inten    --    197.6237               132.5868                48.3405

                     55                     56                     57
                      A                      A                      A
 Frequencies --   1232.4761              1245.5073              1282.1097
 Red. masses --      2.2371                 2.7260                 2.3345
 Frc consts  --      2.0021                 2.4916                 2.2610
 IR Inten    --     55.0163               413.8703               398.8865

                     58                     59                     60
                      A                      A                      A
 Frequencies --   1330.4301              1357.0821              1367.6274
 Red. masses --      2.3336                10.4364                 8.8883
 Frc consts  --      2.4337                11.3244                 9.7950
 IR Inten    --     35.1880                 4.9929               161.0931

                     61                     62                     63
                      A                      A                      A
 Frequencies --   1417.2788              1463.0623              1467.2929
 Red. masses --      3.3228                 1.2805                 2.6414
 Frc consts  --      3.9325                 1.6149                 3.3505
 IR Inten    --    168.6903                54.9951                54.8443

                     64                     65                     66
                      A                      A                      A
 Frequencies --   1477.3852              1479.0063              1495.2988
 Red. masses --      1.0463                 2.8204                 2.6543
 Frc consts  --      1.3455                 3.6349                 3.4967
 IR Inten    --      5.9758                30.7674                46.2746

                     67                     68                     69
                      A                      A                      A
 Frequencies --   1501.3862              1510.4286              1547.5893
 Red. masses --      1.0980                 5.8260                 7.0175
 Frc consts  --      1.4583                 7.8311                 9.9025
 IR Inten    --     15.8326               223.6836               247.2554

                     70                     71                     72
                      A                      A                      A
 Frequencies --   1554.1011              1594.7722              1625.2388
 Red. masses --      6.4480                 7.4432                 6.0832
 Frc consts  --      9.1756                11.1533                 9.4672
 IR Inten    --     37.5090               419.3303                45.7609

                     73                     74                     75
                      A                      A                      A
 Frequencies --   1645.2250              1730.8488              3030.0529
 Red. masses --      7.8541                11.4203                 1.0296
 Frc consts  --     12.5255                20.1579                 5.5697
 IR Inten    --     88.8349               639.4014               109.5137

                     76                     77                     78
                      A                      A                      A
 Frequencies --   3092.9841              3124.6687              3137.3203
 Red. masses --      1.1057                 1.1049                 1.0850
 Frc consts  --      6.2321                 6.3562                 6.2919
 IR Inten    --     33.1445                31.5105                16.0011

                     79                     80                     81
                      A                      A                      A
 Frequencies --   3156.2680              3179.9887              3184.4276
 Red. masses --      1.0913                 1.0867                 1.0915
 Frc consts  --      6.4054                 6.4746                 6.5214
 IR Inten    --     52.7834                 0.7210                 9.4183

                     82                     83                     84
                      A                      A                      A
 Frequencies --   3187.0370              3199.2266              3201.9782
 Red. masses --      1.0929                 1.0933                 1.0900
 Frc consts  --      6.5401                 6.5932                 6.5842
 IR Inten    --     32.6918                13.9292                 2.3704

 - Thermochemistry -
 -------------------
 Temperature   298.150 Kelvin.  Pressure   1.00000 Atm.
 Atom     1 has atomic number  6 and mass  12.00000

 Molecular mass:   266.05791 amu.
 Principal axes and moments of inertia in atomic units:
                           1         2         3
     Eigenvalues --  1942.37814********************
           X            0.76203   0.64753   0.00365
           Y            0.45099  -0.53477   0.71459
           Z           -0.46467   0.54289   0.69954
 This molecule is an asymmetric top.
 Rotational symmetry number  1.
 Warning -- assumption of classical behavior for rotation
           may cause significant error
 Rotational temperatures (Kelvin)      0.04459     0.00854     0.00718
 Rotational constants (GHZ):           0.92914     0.17800     0.14952
 Zero-point vibrational energy     574963.9 (Joules/Mol)
                                  137.41968 (Kcal/Mol)
 Warning -- explicit consideration of  23 degrees of freedom as
           vibrations may cause significant error
 Vibrational temperatures:     48.10    70.88   108.27   147.18   169.62
          (Kelvin)            189.29   215.86   232.53   289.69   318.92
                              354.19   391.85   420.67   493.59   546.71
                              594.86   605.83   614.00   672.53   676.03
                              715.75   731.09   735.10   918.30   918.58
                              933.74  1001.19  1009.90  1015.15  1047.42
                             1104.43  1132.40  1136.99  1163.72  1213.16
                             1213.57  1263.90  1346.90  1368.30  1406.97
                             1418.16  1422.35  1434.17  1473.86  1498.01
                             1580.24  1597.36  1623.49  1653.24  1680.46
                             1683.04  1719.64  1728.28  1751.42  1773.26
                             1792.01  1844.67  1914.19  1952.54  1967.71
                             2039.15  2105.02  2111.11  2125.63  2127.96
                             2151.40  2160.16  2173.17  2226.64  2236.00
                             2294.52  2338.36  2367.11  2490.31  4359.57
                             4450.11  4495.70  4513.90  4541.17  4575.29
                             4581.68  4585.44  4602.97  4606.93

 Zero-point correction=                           0.218992 (Hartree/Particle)
 Thermal correction to Energy=                    0.234872
 Thermal correction to Enthalpy=                  0.235816
 Thermal correction to Gibbs Free Energy=         0.174316
 Sum of electronic and zero-point Energies=           -916.754017
 Sum of electronic and thermal Energies=              -916.738138
 Sum of electronic and thermal Enthalpies=            -916.737194
 Sum of electronic and thermal Free Energies=         -916.798694

                     E (Thermal)             CV                S
                      KCal/Mol        Cal/Mol-Kelvin    Cal/Mol-Kelvin
 Total                  147.384             61.607            129.438
 Electronic               0.000              0.000              1.377
 Translational            0.889              2.981             42.635
 Rotational               0.889              2.981             33.830
 Vibrational            145.607             55.646             51.596
 Vibration     1          0.594              1.983              5.615
 Vibration     2          0.595              1.978              4.847
 Vibration     3          0.599              1.966              4.011
 Vibration     4          0.604              1.947              3.410
 Vibration     5          0.608              1.934              3.135
 Vibration     6          0.612              1.922              2.923
 Vibration     7          0.618              1.903              2.672
 Vibration     8          0.622              1.889              2.531
 Vibration     9          0.638              1.838              2.121
 Vibration    10          0.648              1.808              1.945
 Vibration    11          0.661              1.769              1.758
 Vibration    12          0.675              1.724              1.581
 Vibration    13          0.688              1.688              1.460
 Vibration    14          0.722              1.589              1.198
 Vibration    15          0.750              1.513              1.039
 Vibration    16          0.777              1.441              0.915
 Vibration    17          0.784              1.424              0.888
 Vibration    18          0.788              1.412              0.869
 Vibration    19          0.825              1.322              0.745
 Vibration    20          0.827              1.317              0.738
 Vibration    21          0.853              1.256              0.664
 Vibration    22          0.863              1.232              0.638
 Vibration    23          0.866              1.226              0.631

 Optimization completed.
    -- Stationary point found.
 Normal termination of Gaussian 16 at Sun Jan  7 08:24:04 2024.
