 Gaussian 16, Revision A.03,
 Gaussian 16:  ES64L-G16RevA.03 25-Dec-2016

 ----------------------------------------------------------------------
 #P UB3LYP/6-311++G(d,p) nosym opt freq SCRF=(PCM,Solvent=n,n-DiMethylF
 ormamide)
 ----------------------------------------------------------------------

 -------
 Reduced
 -------
 Symbolic Z-matrix:
 Charge = -2 Multiplicity = 1

 SCF Done:  E(UB3LYP) =  -1615.62776410     A.U. after   16 cycles
 SCF Done:  E(UB3LYP) =  -1615.62655680     A.U. after   12 cycles
 SCF Done:  E(UB3LYP) =  -1615.62823513     A.U. after   12 cycles
 SCF Done:  E(UB3LYP) =  -1615.62770499     A.U. after   13 cycles
 SCF Done:  E(UB3LYP) =  -1615.62814344     A.U. after   13 cycles
 SCF Done:  E(UB3LYP) =  -1615.62866554     A.U. after    8 cycles
 SCF Done:  E(UB3LYP) =  -1615.62875172     A.U. after   11 cycles
 SCF Done:  E(UB3LYP) =  -1615.62811115     A.U. after   12 cycles
 SCF Done:  E(UB3LYP) =  -1615.62876530     A.U. after   12 cycles
 SCF Done:  E(UB3LYP) =  -1615.62876639     A.U. after    9 cycles
 SCF Done:  E(UB3LYP) =  -1615.62876661     A.U. after    9 cycles
 SCF Done:  E(UB3LYP) =  -1615.62876695     A.U. after    8 cycles
 Optimization completed.
    -- Stationary point found.
 Normal termination of Gaussian 16 at Sat Feb 10 11:46:28 2024.

 ----------------------------------------------------------------------
 #P Geom=AllCheck Guess=TCheck SCRF=Check GenChk UB3LYP/6-311++G(d,p) F
 req
 ----------------------------------------------------------------------

 Structure from the checkpoint file:  "018-an.chk"
 -------
 Reduced
 -------
 Charge = -2 Multiplicity = 1

                          Input orientation:
 ---------------------------------------------------------------------
 Center     Atomic      Atomic             Coordinates (Angstroms)
 Number     Number       Type             X           Y           Z
 ---------------------------------------------------------------------
      1          6           0       -1.579326    0.716646    1.497221
      2          6           0       -2.761700    1.146068    0.774103
      3          6           0       -2.689637    1.066451   -0.627898
      4          6           0       -1.578535    0.635740   -1.427359
      5          6           0       -0.395220    0.208815   -0.704328
      6          6           0       -0.467903    0.286746    0.697740
      7          8           0       -1.648544    0.633610   -2.725507
      8          8           0       -1.510210    0.716553    2.795437
      9         17           0        0.933410   -0.159004    1.753990
     10         17           0       -4.092471    1.507881   -1.683938
     11          6           0        0.792519   -0.288753   -1.592657
     12          6           0        1.249630    0.874935   -2.510346
     13          6           0        2.081838   -0.792397   -0.904687
     14          6           0        0.302444   -1.489553   -2.445055
     15          6           0       -3.947647    1.648368    1.662175
     16          6           0       -3.452266    2.847141    2.514483
     17          6           0       -5.234406    2.158226    0.973928
     18          6           0       -4.410047    0.486943    2.579964
     19          1           0        0.406980    1.279821   -3.067118
     20          1           0        2.010747    0.521549   -3.216531
     21          1           0        1.701230    1.671339   -1.908492
     22          1           0        2.586005   -0.019937   -0.324522
     23          1           0        2.766358   -1.110587   -1.699385
     24          1           0        1.909168   -1.650485   -0.254610
     25          1           0        0.089152   -2.346317   -1.796301
     26          1           0        1.085523   -1.794456   -3.149572
     27          1           0       -0.595073   -1.226757   -3.000839
     28          1           0       -2.555593    2.580791    3.069918
     29          1           0       -4.233768    3.155139    3.219391
     30          1           0       -3.235851    3.703070    1.865658
     31          1           0       -5.056842    3.013257    0.321108
     32          1           0       -5.916107    2.483159    1.768322
     33          1           0       -5.744117    1.387381    0.396536
     34          1           0       -3.569275    0.079121    3.137432
     35          1           0       -4.864262   -0.308012    1.978173
     36          1           0       -5.170302    0.843610    3.285435
 ---------------------------------------------------------------------

 SCF Done:  E(UB3LYP) =  -1615.62876695     A.U. after    1 cycles

 Alpha  occ. eigenvalues -- -101.51127-101.51126 -19.00705 -19.00704 -10.18083
 Alpha  occ. eigenvalues --  -10.18082 -10.17584 -10.17583 -10.17018 -10.17017
 Alpha  occ. eigenvalues --  -10.14547 -10.14545 -10.13545 -10.13544 -10.13006
 Alpha  occ. eigenvalues --  -10.13004 -10.12941 -10.12940  -9.42645  -9.42644
 Alpha  occ. eigenvalues --   -7.19030  -7.19029  -7.18205  -7.18205  -7.18089
 Alpha  occ. eigenvalues --   -7.18088  -0.93170  -0.92652  -0.82679  -0.82269
 Alpha  occ. eigenvalues --   -0.79019  -0.78624  -0.75114  -0.68319  -0.66174
 Alpha  occ. eigenvalues --   -0.66171  -0.65822  -0.65688  -0.63313  -0.58391
 Alpha  occ. eigenvalues --   -0.52502  -0.51784  -0.49972  -0.45928  -0.44162
 Alpha  occ. eigenvalues --   -0.43718  -0.41727  -0.41639  -0.40971  -0.40058
 Alpha  occ. eigenvalues --   -0.38946  -0.38773  -0.38728  -0.37591  -0.36698
 Alpha  occ. eigenvalues --   -0.35842  -0.35453  -0.34920  -0.34639  -0.33994
 Alpha  occ. eigenvalues --   -0.33125  -0.32173  -0.32016  -0.31876  -0.31314
 Alpha  occ. eigenvalues --   -0.31290  -0.30368  -0.30038  -0.28569  -0.28409
 Alpha  occ. eigenvalues --   -0.26828  -0.26312  -0.21791  -0.20097  -0.18894
 Alpha  occ. eigenvalues --   -0.18552  -0.11740
 Alpha virt. eigenvalues --   -0.00293   0.00623   0.01401   0.01514   0.01764
 Alpha virt. eigenvalues --    0.02739   0.02915   0.02940   0.03619   0.03851
 Alpha virt. eigenvalues --    0.04412   0.04623   0.04768   0.05070   0.05833

  Beta  occ. eigenvalues -- -101.51127-101.51126 -19.00705 -19.00704 -10.18083
  Beta  occ. eigenvalues --  -10.18082 -10.17584 -10.17583 -10.17018 -10.17017
  Beta  occ. eigenvalues --  -10.14547 -10.14545 -10.13545 -10.13544 -10.13006
  Beta  occ. eigenvalues --  -10.13004 -10.12941 -10.12940  -9.42645  -9.42644
  Beta  occ. eigenvalues --   -7.19030  -7.19029  -7.18205  -7.18205  -7.18089
  Beta  occ. eigenvalues --   -7.18088  -0.93170  -0.92652  -0.82679  -0.82269
  Beta  occ. eigenvalues --   -0.79019  -0.78624  -0.75114  -0.68319  -0.66174
  Beta  occ. eigenvalues --   -0.66171  -0.65822  -0.65688  -0.63313  -0.58391
  Beta  occ. eigenvalues --   -0.52502  -0.51784  -0.49972  -0.45928  -0.44162
  Beta  occ. eigenvalues --   -0.43718  -0.41727  -0.41639  -0.40971  -0.40058
  Beta  occ. eigenvalues --   -0.38946  -0.38773  -0.38728  -0.37591  -0.36698
  Beta  occ. eigenvalues --   -0.35842  -0.35453  -0.34920  -0.34639  -0.33994
  Beta  occ. eigenvalues --   -0.33125  -0.32173  -0.32016  -0.31876  -0.31314
  Beta  occ. eigenvalues --   -0.31290  -0.30368  -0.30038  -0.28569  -0.28409
  Beta  occ. eigenvalues --   -0.26828  -0.26312  -0.21791  -0.20097  -0.18894
  Beta  occ. eigenvalues --   -0.18552  -0.11740
  Beta virt. eigenvalues --   -0.00293   0.00623   0.01401   0.01514   0.01764
  Beta virt. eigenvalues --    0.02739   0.02915   0.02940   0.03619   0.03851
  Beta virt. eigenvalues --    0.04412   0.04623   0.04768   0.05070   0.05833

 Mulliken charges and spin densities:
               1          2
     1  C   -0.980118  -0.000000
     2  C    0.227590  -0.000000
     3  C   -0.157436   0.000000
     4  C   -0.980390  -0.000000
     5  C    0.228086   0.000000
     6  C   -0.158316   0.000000
     7  O   -0.545557   0.000000
     8  O   -0.545572   0.000000
     9  Cl   0.426942  -0.000000
    10  Cl   0.426469  -0.000000
    11  C    0.714601   0.000000
    12  C   -0.650952   0.000000
    13  C   -0.623594   0.000000
    14  C   -0.655785  -0.000000
    15  C    0.715100   0.000000
    16  C   -0.656391  -0.000000
    17  C   -0.623213  -0.000000
    18  C   -0.650701  -0.000000
    19  H    0.188204   0.000000
    20  H    0.129822  -0.000000
    21  H    0.122758   0.000000
    22  H    0.123532  -0.000000
    23  H    0.120370   0.000000
    24  H    0.125866  -0.000000
    25  H    0.120320   0.000000
    26  H    0.129487  -0.000000
    27  H    0.184240   0.000000
    28  H    0.184061   0.000000
    29  H    0.129517   0.000000
    30  H    0.120153  -0.000000
    31  H    0.125920  -0.000000
    32  H    0.120409  -0.000000
    33  H    0.123536   0.000000
    34  H    0.188342   0.000000
    35  H    0.122866  -0.000000
    36  H    0.129833   0.000000
 Sum of Mulliken charges =  -2.00000   0.00000

 Dipole moment (field-independent basis, Debye):
    X=             15.1713    Y=             -6.4872    Z=             -0.3356  Tot=             16.5035
 Quadrupole moment (field-independent basis, Debye-Ang):
   XX=           -180.9928   YY=           -144.1396   ZZ=           -197.9426
   XY=             17.1701   XZ=             -8.6026   YZ=              1.3810

  Exact polarizability: 358.306 -46.557 249.028   4.858   3.368 367.069
 Approx polarizability: 368.763 -43.398 264.910  14.728  -0.186 406.792

                      1                      2                      3
                      A                      A                      A
 Frequencies --      9.3623                51.3237                58.4947
 Red. masses --      4.3850                 2.9623                 4.0437
 Frc consts  --      0.0002                 0.0046                 0.0082
 IR Inten    --      7.5995                 0.0386                 0.0042

                      4                      5                      6
                      A                      A                      A
 Frequencies --     89.6712                93.7123               174.6785
 Red. masses --     11.0413                 4.9352                 3.8048
 Frc consts  --      0.0523                 0.0255                 0.0684
 IR Inten    --      9.0314                 0.0048                13.9139

                      7                      8                      9
                      A                      A                      A
 Frequencies --    199.6806               207.0397               212.4976
 Red. masses --      1.6785                 1.5287                 2.8591
 Frc consts  --      0.0394                 0.0386                 0.0761
 IR Inten    --      7.4603                 0.0056                 0.0113

                     10                     11                     12
                      A                      A                      A
 Frequencies --    220.1189               223.1227               239.0266
 Red. masses --      3.8677                 1.6696                 2.0503
 Frc consts  --      0.1104                 0.0490                 0.0690
 IR Inten    --     10.3300                 0.0253                 6.5930

                     13                     14                     15
                      A                      A                      A
 Frequencies --    245.1292               247.2424               270.2174
 Red. masses --      1.2345                 1.6001                 3.0031
 Frc consts  --      0.0437                 0.0576                 0.1292
 IR Inten    --      1.6133                 0.0241                 0.0006

                     16                     17                     18
                      A                      A                      A
 Frequencies --    301.2657               309.9481               321.0555
 Red. masses --      9.3045                 3.5680                 3.2556
 Frc consts  --      0.4976                 0.2020                 0.1977
 IR Inten    --      0.0003                 0.0004                 7.1491

                     19                     20                     21
                      A                      A                      A
 Frequencies --    330.5984               331.8949               348.9835
 Red. masses --      3.3386                11.4058                 3.8933
 Frc consts  --      0.2150                 0.7402                 0.2794
 IR Inten    --      4.7592                 0.0334                16.0196

                     22                     23                     24
                      A                      A                      A
 Frequencies --    373.0721               393.2991               397.6080
 Red. masses --      7.6517                14.5246                 2.0257
 Frc consts  --      0.6275                 1.3237                 0.1887
 IR Inten    --      0.0001                 7.3461                 0.0080

                     25                     26                     27
                      A                      A                      A
 Frequencies --    402.5253               406.3126               408.2529
 Red. masses --      1.1910                 1.1583                 2.2123
 Frc consts  --      0.1137                 0.1127                 0.2172
 IR Inten    --      2.1867                 0.0038                 0.0023

                     28                     29                     30
                      A                      A                      A
 Frequencies --    418.4711               431.0010               484.9620
 Red. masses --      1.8165                 2.5567                 8.8539
 Frc consts  --      0.1874                 0.2798                 1.2269
 IR Inten    --      0.3893                19.4519                 0.0000

                     31                     32                     33
                      A                      A                      A
 Frequencies --    500.0036               530.4253               547.4611
 Red. masses --      4.9200                 3.5731                 2.6490
 Frc consts  --      0.7247                 0.5923                 0.4678
 IR Inten    --      0.0006                40.3029                 0.0004

                     34                     35                     36
                      A                      A                      A
 Frequencies --    605.3849               647.7595               730.1811
 Red. masses --      8.7523                 5.3382                10.0370
 Frc consts  --      1.8899                 1.3197                 3.1529
 IR Inten    --      0.1625               148.7341                15.9675

                     37                     38                     39
                      A                      A                      A
 Frequencies --    731.9913               759.6032               775.9556
 Red. masses --      9.2006                10.6105                 5.1841
 Frc consts  --      2.9045                 3.6071                 1.8391
 IR Inten    --      0.0072                 0.0007                 0.0002

                     40                     41                     42
                      A                      A                      A
 Frequencies --    813.2142               839.6782               903.1133
 Red. masses --      3.5036                 4.1692                 4.3737
 Frc consts  --      1.3651                 1.7319                 2.1018
 IR Inten    --    179.2026                 0.0012               404.2503

                     43                     44                     45
                      A                      A                      A
 Frequencies --    919.6061               919.8203               922.8666
 Red. masses --      1.8663                 1.8501                 1.8427
 Frc consts  --      0.9299                 0.9222                 0.9247
 IR Inten    --     21.5417                 2.3121                 0.0217

                     46                     47                     48
                      A                      A                      A
 Frequencies --    922.9031               952.4463               952.6317
 Red. masses --      1.8574                 1.2051                 1.2051
 Frc consts  --      0.9321                 0.6441                 0.6444
 IR Inten    --     13.9659                 0.9379                 2.6206

                     49                     50                     51
                      A                      A                      A
 Frequencies --    986.4976              1026.6275              1045.8385
 Red. masses --      4.1861                 1.6321                 1.3646
 Frc consts  --      2.4002                 1.0135                 0.8794
 IR Inten    --      0.0000                87.8513                 0.0235

                     52                     53                     54
                      A                      A                      A
 Frequencies --   1046.4127              1047.4404              1095.0501
 Red. masses --      1.3680                 1.3751                 6.6846
 Frc consts  --      0.8826                 0.8889                 4.7228
 IR Inten    --      0.4795                 0.0004               385.1891

                     55                     56                     57
                      A                      A                      A
 Frequencies --   1122.4639              1205.2532              1205.9703
 Red. masses --      3.7761                 2.6428                 2.6419
 Frc consts  --      2.8031                 2.2619                 2.2638
 IR Inten    --     81.6324                 0.0006                25.2238

                     58                     59                     60
                      A                      A                      A
 Frequencies --   1209.0498              1209.6298              1245.3490
 Red. masses --      2.5803                 2.4920                 2.6219
 Frc consts  --      2.2223                 2.1483                 2.3958
 IR Inten    --      0.0108                16.3187                 0.0126

                     61                     62                     63
                      A                      A                      A
 Frequencies --   1253.3282              1334.4029              1347.4721
 Red. masses --      3.2743                 5.6245                 2.2814
 Frc consts  --      3.0304                 5.9008                 2.4405
 IR Inten    --    165.6850                 0.0474              1288.7764

                     64                     65                     66
                      A                      A                      A
 Frequencies --   1356.8425              1357.0176              1369.1369
 Red. masses --      1.2179                 1.2246                10.0014
 Frc consts  --      1.3210                 1.3287                11.0460
 IR Inten    --      2.0893                72.4893                93.2128

                     67                     68                     69
                      A                      A                      A
 Frequencies --   1373.7781              1388.5709              1395.5486
 Red. masses --      1.3935                 1.7787                 7.8757
 Frc consts  --      1.5496                 2.0207                 9.0371
 IR Inten    --      0.0078               551.6666                 0.0003

                     70                     71                     72
                      A                      A                      A
 Frequencies --   1410.8691              1414.0662              1461.1913
 Red. masses --      1.2301                 1.3083                 1.0482
 Frc consts  --      1.4426                 1.5413                 1.3186
 IR Inten    --      0.0083               116.2108                 0.0064

                     73                     74                     75
                      A                      A                      A
 Frequencies --   1461.2633              1477.2655              1478.4176
 Red. masses --      1.0482                 1.0785                 1.0762
 Frc consts  --      1.3187                 1.3867                 1.3859
 IR Inten    --      1.6026                 0.0003                 4.1549

                     76                     77                     78
                      A                      A                      A
 Frequencies --   1489.3551              1489.6931              1489.8979
 Red. masses --      1.0557                 1.0529                 1.0503
 Frc consts  --      1.3798                 1.3767                 1.3736
 IR Inten    --      0.0317                 6.4796                 0.4992

                     79                     80                     81
                      A                      A                      A
 Frequencies --   1490.0634              1508.2489              1508.3317
 Red. masses --      1.0526                 1.0517                 1.0519
 Frc consts  --      1.3770                 1.4096                 1.4100
 IR Inten    --      7.9454                 1.0902                 9.1398

                     82                     83                     84
                      A                      A                      A
 Frequencies --   1516.9882              1518.9369              1546.4238
 Red. masses --      1.0945                 1.0568                 7.2027
 Frc consts  --      1.4840                 1.4365                10.1485
 IR Inten    --      0.0038                17.7333                 0.0006

                     85                     86                     87
                      A                      A                      A
 Frequencies --   2993.9613              2994.0076              2998.2798
 Red. masses --      1.0394                 1.0394                 1.0407
 Frc consts  --      5.4894                 5.4895                 5.5120
 IR Inten    --     54.6564               151.2328               200.2952

                     88                     89                     90
                      A                      A                      A
 Frequencies --   2998.8727              3015.4179              3015.9425
 Red. masses --      1.0408                 1.0477                 1.0475
 Frc consts  --      5.5146                 5.6128                 5.6138
 IR Inten    --      0.5815               341.4167                 0.9016

                     91                     92                     93
                      A                      A                      A
 Frequencies --   3046.9420              3047.0082              3049.9662
 Red. masses --      1.1003                 1.1003                 1.0988
 Frc consts  --      6.0187                 6.0191                 6.0223
 IR Inten    --      6.2695               109.1119               257.4287

                     94                     95                     96
                      A                      A                      A
 Frequencies --   3050.1528              3083.5675              3083.6567
 Red. masses --      1.0987                 1.0858                 1.0858
 Frc consts  --      6.0226                 6.0829                 6.0832
 IR Inten    --      1.7612                57.0533               102.6056

                     97                     98                     99
                      A                      A                      A
 Frequencies --   3119.5094              3119.6253              3122.4529
 Red. masses --      1.1018                 1.1018                 1.0981
 Frc consts  --      6.3175                 6.3176                 6.3077
 IR Inten    --     31.7552                53.4986                32.1636

                    100                    101                    102
                      A                      A                      A
 Frequencies --   3122.5025              3124.4296              3124.5137
 Red. masses --      1.0981                 1.0972                 1.0972
 Frc consts  --      6.3081                 6.3109                 6.3108
 IR Inten    --     12.2159                36.6555                 0.1237

 - Thermochemistry -
 -------------------
 Temperature   298.150 Kelvin.  Pressure   1.00000 Atm.
 Atom     1 has atomic number  6 and mass  12.00000

 Molecular mass:   288.06839 amu.
 Principal axes and moments of inertia in atomic units:
                           1         2         3
     Eigenvalues --  3620.393406541.247519349.15136
           X            0.86263   0.36566   0.34953
           Y           -0.33927  -0.09430   0.93595
           Z           -0.37520   0.92596  -0.04271
 This molecule is an asymmetric top.
 Rotational symmetry number  1.
 Warning -- assumption of classical behavior for rotation
           may cause significant error
 Rotational temperatures (Kelvin)      0.02392     0.01324     0.00926
 Rotational constants (GHZ):           0.49849     0.27590     0.19304
 Zero-point vibrational energy     748677.6 (Joules/Mol)
                                  178.93823 (Kcal/Mol)
 Warning -- explicit consideration of  34 degrees of freedom as
           vibrations may cause significant error
 Vibrational temperatures:     13.47    73.84    84.16   129.02   134.83
          (Kelvin)            251.32   287.30   297.88   305.74   316.70
                              321.02   343.91   352.69   355.73   388.78
                              433.45   445.95   461.93   475.66   477.52
                              502.11   536.77   565.87   572.07   579.14
                              584.59   587.38   602.09   620.11   697.75
                              719.39   763.16   787.67   871.01   931.98
                             1050.57  1053.17  1092.90  1116.43  1170.03
                             1208.11  1299.38  1323.11  1323.42  1327.80
                             1327.85  1370.36  1370.62  1419.35  1477.09
                             1504.73  1505.55  1507.03  1575.53  1614.98
                             1734.09  1735.12  1739.55  1740.39  1791.78
                             1803.26  1919.91  1938.71  1952.19  1952.45
                             1969.88  1976.56  1997.84  2007.88  2029.93
                             2034.53  2102.33  2102.43  2125.46  2127.11
                             2142.85  2143.34  2143.63  2143.87  2170.03
                             2170.15  2182.61  2185.41  2224.96  4307.64
                             4307.71  4313.86  4314.71  4338.51  4339.27
                             4383.87  4383.97  4388.22  4388.49  4436.57
                             4436.69  4488.28  4488.45  4492.51  4492.58
                             4495.36  4495.48

 Zero-point correction=                           0.285156 (Hartree/Particle)
 Thermal correction to Energy=                    0.304573
 Thermal correction to Enthalpy=                  0.305518
 Thermal correction to Gibbs Free Energy=         0.237682
 Sum of electronic and zero-point Energies=          -1615.343611
 Sum of electronic and thermal Energies=             -1615.324194
 Sum of electronic and thermal Enthalpies=           -1615.323249
 Sum of electronic and thermal Free Energies=        -1615.391085

                     E (Thermal)             CV                S
                      KCal/Mol        Cal/Mol-Kelvin    Cal/Mol-Kelvin
 Total                  191.123             75.102            142.771
 Electronic               0.000              0.000              0.000
 Translational            0.889              2.981             42.872
 Rotational               0.889              2.981             33.759
 Vibrational            189.345             69.140             66.140
 Vibration     1          0.593              1.987              8.142
 Vibration     2          0.596              1.977              4.766
 Vibration     3          0.596              1.974              4.507
 Vibration     4          0.602              1.956              3.667
 Vibration     5          0.603              1.954              3.581
 Vibration     6          0.627              1.874              2.385
 Vibration     7          0.638              1.840              2.136
 Vibration     8          0.641              1.830              2.070
 Vibration     9          0.644              1.822              2.022
 Vibration    10          0.647              1.810              1.958
 Vibration    11          0.649              1.806              1.934
 Vibration    12          0.657              1.781              1.810
 Vibration    13          0.660              1.771              1.765
 Vibration    14          0.661              1.767              1.750
 Vibration    15          0.674              1.728              1.595
 Vibration    16          0.693              1.671              1.410
 Vibration    17          0.699              1.655              1.363
 Vibration    18          0.707              1.633              1.305
 Vibration    19          0.713              1.614              1.257
 Vibration    20          0.714              1.612              1.251
 Vibration    21          0.726              1.577              1.171
 Vibration    22          0.744              1.527              1.067
 Vibration    23          0.760              1.484              0.988
 Vibration    24          0.764              1.475              0.971
 Vibration    25          0.768              1.465              0.953
 Vibration    26          0.771              1.456              0.940
 Vibration    27          0.773              1.452              0.933
 Vibration    28          0.781              1.430              0.897
 Vibration    29          0.792              1.403              0.855
 Vibration    30          0.841              1.283              0.697
 Vibration    31          0.855              1.250              0.658
 Vibration    32          0.885              1.183              0.586
 Vibration    33          0.903              1.145              0.549
 Vibration    34          0.964              1.020              0.440

                           ! Non-Optimized Parameters !
 Normal termination of Gaussian 16 at Sat Feb 10 13:28:58 2024.
