 Gaussian 16, Revision A.03,
 Gaussian 16:  ES64L-G16RevA.03 25-Dec-2016

 ----------------------------------------------------------------
 #P UB3LYP/6-311++G(d,p) SCRF=(PCM,Solvent=n,n-DiMethylFormamide)
 ----------------------------------------------------------------

 ------------------
 Quinone PCM in DMF
 ------------------
 Symbolic Z-matrix:
 Charge =  0 Multiplicity = 1

                         Standard orientation:
 ---------------------------------------------------------------------
 Center     Atomic      Atomic             Coordinates (Angstroms)
 Number     Number       Type             X           Y           Z
 ---------------------------------------------------------------------
      1          6           0        4.033248    0.129928    0.000493
      2          8           0        2.889455   -0.725974    0.000015
      3          6           0        1.676500   -0.169692   -0.000012
      4          6           0        1.400601    1.155785   -0.000101
      5          6           0        0.029450    1.672872   -0.000193
      6          8           0       -0.187602    2.876995   -0.000213
      7          6           0       -1.090685    0.680688   -0.000095
      8          6           0       -2.412001    1.128980   -0.000010
      9          6           0       -3.458797    0.211782    0.000187
     10          6           0       -3.191732   -1.159327    0.000291
     11          6           0       -1.877422   -1.613916    0.000189
     12          6           0       -0.821650   -0.697789    0.000007
     13          6           0        0.578063   -1.206098   -0.000064
     14          8           0        0.845434   -2.389856   -0.000648
     15          1           0        4.048057    0.758784   -0.894490
     16          1           0        4.894843   -0.533626    0.001043
     17          1           0        4.047104    0.759050    0.895297
     18          1           0        2.175638    1.910954   -0.000151
     19          1           0       -2.595837    2.196345   -0.000055
     20          1           0       -4.484325    0.563365    0.000261
     21          1           0       -4.009302   -1.871093    0.000468
     22          1           0       -1.647918   -2.672389    0.000253
 ---------------------------------------------------------------------

 SCF Done:  E(UB3LYP) =  -649.831937636     A.U. after   16 cycles

 The electronic state is 1-A.
 Alpha  occ. eigenvalues --  -19.19115 -19.14431 -19.12955 -10.29383 -10.28256
 Alpha  occ. eigenvalues --  -10.27747 -10.23524 -10.21164 -10.21003 -10.20125
 Alpha  occ. eigenvalues --  -10.20061 -10.19936 -10.19908 -10.19871  -1.11339
 Alpha  occ. eigenvalues --   -1.07446  -1.06274  -0.89308  -0.83813  -0.78135
 Alpha  occ. eigenvalues --   -0.77978  -0.74721  -0.68841  -0.65411  -0.62993
 Alpha  occ. eigenvalues --   -0.59624  -0.55937  -0.55132  -0.52771  -0.49945
 Alpha  occ. eigenvalues --   -0.49764  -0.47732  -0.46924  -0.45454  -0.45327
 Alpha  occ. eigenvalues --   -0.45151  -0.43883  -0.43577  -0.42262  -0.38757
 Alpha  occ. eigenvalues --   -0.38755  -0.37511  -0.36593  -0.36581  -0.29389
 Alpha  occ. eigenvalues --   -0.29090  -0.28120  -0.28066  -0.26881
 Alpha virt. eigenvalues --   -0.12449  -0.05789  -0.02845  -0.00692   0.00162
 Alpha virt. eigenvalues --    0.01132   0.01801   0.02186   0.02338   0.03272
 Alpha virt. eigenvalues --    0.03761   0.04653   0.04860   0.05366   0.05914

  Beta  occ. eigenvalues --  -19.19115 -19.14431 -19.12955 -10.29383 -10.28256
  Beta  occ. eigenvalues --  -10.27747 -10.23524 -10.21164 -10.21003 -10.20125
  Beta  occ. eigenvalues --  -10.20061 -10.19936 -10.19908 -10.19871  -1.11339
  Beta  occ. eigenvalues --   -1.07446  -1.06274  -0.89308  -0.83813  -0.78135
  Beta  occ. eigenvalues --   -0.77978  -0.74721  -0.68841  -0.65411  -0.62993
  Beta  occ. eigenvalues --   -0.59624  -0.55937  -0.55132  -0.52771  -0.49945
  Beta  occ. eigenvalues --   -0.49764  -0.47732  -0.46924  -0.45454  -0.45327
  Beta  occ. eigenvalues --   -0.45151  -0.43883  -0.43577  -0.42262  -0.38757
  Beta  occ. eigenvalues --   -0.38755  -0.37511  -0.36593  -0.36581  -0.29389
  Beta  occ. eigenvalues --   -0.29090  -0.28120  -0.28066  -0.26881
  Beta virt. eigenvalues --   -0.12449  -0.05789  -0.02845  -0.00692   0.00162
  Beta virt. eigenvalues --    0.01132   0.01801   0.02186   0.02338   0.03272
  Beta virt. eigenvalues --    0.03761   0.04653   0.04860   0.05366   0.05914

 Mulliken charges and spin densities:
               1          2
     1  C   -0.315205   0.000000
     2  O   -0.156946   0.000000
     3  C   -0.182333  -0.000000
     4  C    0.755740  -0.000000
     5  C   -0.625351  -0.000000
     6  O   -0.315460  -0.000000
     7  C    0.596405   0.000000
     8  C    0.156146  -0.000000
     9  C   -0.387303   0.000000
    10  C   -0.474968   0.000000
    11  C    0.155965  -0.000000
    12  C    0.463449  -0.000000
    13  C   -0.994300   0.000000
    14  O   -0.275342  -0.000000
    15  H    0.185773  -0.000000
    16  H    0.207822  -0.000000
    17  H    0.185715  -0.000000
    18  H    0.232242  -0.000000
    19  H    0.181415  -0.000000
    20  H    0.211893   0.000000
    21  H    0.211774  -0.000000
    22  H    0.182867   0.000000
 Sum of Mulliken charges =  -0.00000   0.00000

 Dipole moment (field-independent basis, Debye):
    X=              0.0815    Y=              0.0270    Z=              0.0025  Tot=              0.0859
 Quadrupole moment (field-independent basis, Debye-Ang):
   XX=            -51.1212   YY=            -99.1910   ZZ=            -81.6128
   XY=             10.5612   XZ=              0.0028   YZ=             -0.0034

 Normal termination of Gaussian 16 at Sun Jan 21 07:58:33 2024.
