 Gaussian 16, Revision A.03,
 Gaussian 16:  ES64L-G16RevA.03 25-Dec-2016

 ----------------------------------------------------------------
 #P UB3LYP/6-311++G(d,p) SCRF=(PCM,Solvent=n,n-DiMethylFormamide)
 ----------------------------------------------------------------

 ------------------
 Quinone PCM in DMF
 ------------------
 Symbolic Z-matrix:
 Charge =  0 Multiplicity = 1

                         Standard orientation:
 ---------------------------------------------------------------------
 Center     Atomic      Atomic             Coordinates (Angstroms)
 Number     Number       Type             X           Y           Z
 ---------------------------------------------------------------------
      1          6           0       -4.681329   -0.260765    0.001384
      2          6           0       -3.250080    0.206304    0.002241
      3          6           0       -2.939012    1.555013    0.005341
      4          6           0       -1.618457    2.011283    0.003013
      5          6           0       -0.576579    1.098391   -0.000846
      6          6           0        0.816347    1.636691   -0.001927
      7          8           0        1.034358    2.838803   -0.002899
      8          6           0        1.933134    0.653739   -0.001150
      9          6           0        3.253963    1.113762   -0.002005
     10          6           0        4.307563    0.208437   -0.000363
     11          6           0        4.048339   -1.165432    0.002308
     12          6           0        2.738524   -1.629588    0.003161
     13          6           0        1.671161   -0.725021    0.001365
     14          6           0        0.274993   -1.256324    0.000897
     15          8           0        0.102538   -2.480935    0.004331
     16          6           0       -0.836735   -0.297621   -0.002803
     17          6           0       -2.191015   -0.749738   -0.003112
     18          7           0       -2.492747   -2.074612   -0.016744
     19          1           0       -4.911170   -0.868863    0.884795
     20          1           0       -4.908781   -0.868347   -0.882664
     21          1           0       -5.365437    0.588388    0.001856
     22          1           0       -3.749582    2.276715    0.008782
     23          1           0       -1.387922    3.068283    0.004395
     24          1           0        3.427157    2.182797   -0.003843
     25          1           0        5.330501    0.567583   -0.001072
     26          1           0        4.870949   -1.871743    0.003609
     27          1           0        2.516950   -2.689231    0.004945
     28          1           0       -3.446613   -2.383477    0.032619
     29          1           0       -1.726895   -2.737557    0.007313
 ---------------------------------------------------------------------

 SCF Done:  E(UB3LYP) =  -783.676839319     A.U. after   14 cycles

 The electronic state is 1-A.
 Alpha  occ. eigenvalues --  -19.12540 -19.12490 -14.33508 -10.27798 -10.27776
 Alpha  occ. eigenvalues --  -10.24631 -10.20605 -10.20436 -10.20248 -10.20202
 Alpha  occ. eigenvalues --  -10.20011 -10.19700 -10.19629 -10.19560 -10.19465
 Alpha  occ. eigenvalues --  -10.19275 -10.18518 -10.17835  -1.06101  -1.05809
 Alpha  occ. eigenvalues --   -0.94646  -0.88838  -0.86692  -0.81590  -0.78158
 Alpha  occ. eigenvalues --   -0.77634  -0.75789  -0.71719  -0.68069  -0.65830
 Alpha  occ. eigenvalues --   -0.63807  -0.61060  -0.58836  -0.57519  -0.54824
 Alpha  occ. eigenvalues --   -0.52818  -0.50861  -0.50087  -0.47600  -0.47144
 Alpha  occ. eigenvalues --   -0.46839  -0.45635  -0.45292  -0.44962  -0.44074
 Alpha  occ. eigenvalues --   -0.43587  -0.42929  -0.41608  -0.40192  -0.39026
 Alpha  occ. eigenvalues --   -0.38959  -0.37882  -0.37102  -0.36786  -0.36497
 Alpha  occ. eigenvalues --   -0.33449  -0.28615  -0.28463  -0.27687  -0.27181
 Alpha  occ. eigenvalues --   -0.26993  -0.22554
 Alpha virt. eigenvalues --   -0.11390  -0.06573  -0.03294  -0.01459  -0.00862
 Alpha virt. eigenvalues --   -0.00113   0.00675   0.01593   0.01852   0.03074
 Alpha virt. eigenvalues --    0.03437   0.03703   0.03731   0.03884   0.04515

  Beta  occ. eigenvalues --  -19.12540 -19.12490 -14.33508 -10.27798 -10.27776
  Beta  occ. eigenvalues --  -10.24631 -10.20605 -10.20436 -10.20248 -10.20202
  Beta  occ. eigenvalues --  -10.20011 -10.19700 -10.19629 -10.19560 -10.19465
  Beta  occ. eigenvalues --  -10.19275 -10.18518 -10.17835  -1.06101  -1.05809
  Beta  occ. eigenvalues --   -0.94646  -0.88838  -0.86692  -0.81590  -0.78158
  Beta  occ. eigenvalues --   -0.77634  -0.75789  -0.71719  -0.68069  -0.65830
  Beta  occ. eigenvalues --   -0.63807  -0.61060  -0.58836  -0.57519  -0.54824
  Beta  occ. eigenvalues --   -0.52818  -0.50861  -0.50087  -0.47600  -0.47144
  Beta  occ. eigenvalues --   -0.46839  -0.45635  -0.45292  -0.44962  -0.44074
  Beta  occ. eigenvalues --   -0.43587  -0.42929  -0.41608  -0.40192  -0.39026
  Beta  occ. eigenvalues --   -0.38959  -0.37882  -0.37102  -0.36786  -0.36497
  Beta  occ. eigenvalues --   -0.33449  -0.28615  -0.28463  -0.27687  -0.27181
  Beta  occ. eigenvalues --   -0.26993  -0.22554
  Beta virt. eigenvalues --   -0.11390  -0.06573  -0.03294  -0.01459  -0.00862
  Beta virt. eigenvalues --   -0.00113   0.00675   0.01593   0.01852   0.03074
  Beta virt. eigenvalues --    0.03437   0.03703   0.03731   0.03884   0.04515

 Mulliken charges and spin densities:
               1          2
     1  C   -0.447140  -0.000000
     2  C    0.713364   0.000000
     3  C   -0.825940  -0.000000
     4  C   -0.111975   0.000000
     5  C    0.528180   0.000000
     6  C   -0.675523   0.000000
     7  O   -0.285416   0.000000
     8  C    0.011793   0.000000
     9  C    0.181711   0.000000
    10  C   -0.428647  -0.000000
    11  C   -0.491761   0.000000
    12  C    0.239217  -0.000000
    13  C    0.119239  -0.000000
    14  C   -0.431740  -0.000000
    15  O   -0.314586  -0.000000
    16  C    0.128688  -0.000000
    17  C    0.188490   0.000000
    18  N   -0.431150  -0.000000
    19  H    0.182893   0.000000
    20  H    0.182664   0.000000
    21  H    0.185067   0.000000
    22  H    0.168799   0.000000
    23  H    0.179936   0.000000
    24  H    0.181243  -0.000000
    25  H    0.204738  -0.000000
    26  H    0.205265  -0.000000
    27  H    0.186740   0.000000
    28  H    0.308923   0.000000
    29  H    0.346927   0.000000
 Sum of Mulliken charges =  -0.00000  -0.00000

 Dipole moment (field-independent basis, Debye):
    X=             -2.9564    Y=             -2.3710    Z=              0.1278  Tot=              3.7919
 Quadrupole moment (field-independent basis, Debye-Ang):
   XX=            -65.9478   YY=           -112.7424   ZZ=           -108.2115
   XY=             -1.2689   XZ=             -0.3948   YZ=             -0.2907

 Normal termination of Gaussian 16 at Sun Jan 14 01:05:05 2024.
