 Gaussian 16, Revision A.03,
 Gaussian 16:  ES64L-G16RevA.03 25-Dec-2016

 ----------------------------------------------
 #P UB3LYP/6-311++G(d,p) nosym opt freq SCF=YQC
 ----------------------------------------------

 -------
 Reduced
 -------
 Symbolic Z-matrix:
 Charge = -2 Multiplicity = 1

 SCF Done:  E(UB3LYP) =  -764.186141698     a.u. after    7 cycles
 SCF Done:  E(UB3LYP) =  -764.186340758     A.U. after   30 cycles
 SCF Done:  E(UB3LYP) =  -764.186419583     a.u. after    7 cycles
 SCF Done:  E(UB3LYP) =  -764.186527031     A.U. after   33 cycles
 SCF Done:  E(UB3LYP) =  -764.186717256     a.u. after    7 cycles
 SCF Done:  E(UB3LYP) =  -764.186739067     a.u. after    7 cycles
 SCF Done:  E(UB3LYP) =  -764.186790414     A.U. after   22 cycles
 SCF Done:  E(UB3LYP) =  -764.186780148     a.u. after    1 cycles
 SCF Done:  E(UB3LYP) =  -764.186821170     A.U. after   24 cycles
 SCF Done:  E(UB3LYP) =  -764.186822285     a.u. after    1 cycles
 SCF Done:  E(UB3LYP) =  -764.186824753     a.u. after    1 cycles
 SCF Done:  E(UB3LYP) =  -764.186834999     A.U. after   23 cycles
 SCF Done:  E(UB3LYP) =  -764.186832372     a.u. after    1 cycles
 SCF Done:  E(UB3LYP) =  -764.186837190     A.U. after   22 cycles
 SCF Done:  E(UB3LYP) =  -764.186836454     a.u. after    1 cycles
 SCF Done:  E(UB3LYP) =  -764.186837334     A.U. after   21 cycles
 SCF Done:  E(UB3LYP) =  -764.186835952     a.u. after    1 cycles
 SCF Done:  E(UB3LYP) =  -764.186837765     A.U. after   22 cycles
 Optimization completed.
    -- Stationary point found.
 Normal termination of Gaussian 16 at Wed Jan 10 06:11:16 2024.

 ----------------------------------------------------------------------
 #P Geom=AllCheck Guess=TCheck SCRF=Check GenChk UB3LYP/6-311++G(d,p) F
 req
 ----------------------------------------------------------------------

 Structure from the checkpoint file:  "329-an.chk"
 -------
 Reduced
 -------
 Charge = -2 Multiplicity = 1

                          Input orientation:
 ---------------------------------------------------------------------
 Center     Atomic      Atomic             Coordinates (Angstroms)
 Number     Number       Type             X           Y           Z
 ---------------------------------------------------------------------
      1          6           0       -0.648390    2.678613   -0.973368
      2          6           0       -1.719167    2.061503   -0.376382
      3          6           0       -1.591172    0.748819    0.168236
      4          6           0        0.636719    2.042878   -1.070111
      5          6           0        0.756094    0.697153   -0.531196
      6          6           0       -0.373692    0.099076    0.078082
      7          6           0        1.749533    2.638640   -1.660730
      8          6           0        3.000574    1.986702   -1.766523
      9          6           0        3.115388    0.628719   -1.219762
     10          6           0        2.006614    0.045617   -0.635656
     11          6           0        4.119686    2.614418   -2.376626
     12          6           0        5.315769    1.844926   -2.406519
     13          6           0        5.466531    0.553133   -1.897275
     14          6           0        4.390923   -0.136378   -1.277248
     15          8           0        4.164094    3.818232   -2.904817
     16          8           0        4.480191   -1.317085   -0.800527
     17          8           0        6.356779    2.510909   -3.006501
     18          1           0       -0.757226    3.679449   -1.385785
     19          1           0       -2.675754    2.577036   -0.308320
     20          1           0       -2.443148    0.272584    0.646389
     21          1           0       -0.262732   -0.905303    0.482756
     22          1           0        1.675423    3.640901   -2.073252
     23          1           0        2.129291   -0.959940   -0.241523
     24          1           0        6.427957    0.051908   -1.972618
     25          1           0        5.882019    3.359761   -3.226982
 ---------------------------------------------------------------------

 SCF Done:  E(UB3LYP) =  -764.186837765     a.u. after    1 cycles
 SCF Done:  E(UB3LYP) =  -764.186837765     A.U. after    1 cycles

 Alpha  occ. eigenvalues --  -18.88604 -18.79589 -18.79301  -9.95934  -9.95794
 Alpha  occ. eigenvalues --   -9.95725  -9.95555  -9.95249  -9.94989  -9.94322
 Alpha  occ. eigenvalues --   -9.94224  -9.93415  -9.92798  -9.92141  -9.91865
 Alpha  occ. eigenvalues --   -9.91506  -9.89327  -0.79897  -0.71339  -0.69069
 Alpha  occ. eigenvalues --   -0.63596  -0.58420  -0.54017  -0.53497  -0.48718
 Alpha  occ. eigenvalues --   -0.48345  -0.41651  -0.39623  -0.36759  -0.36010
 Alpha  occ. eigenvalues --   -0.31505  -0.29527  -0.28479  -0.25889  -0.23087
 Alpha  occ. eigenvalues --   -0.22197  -0.20974  -0.20388  -0.19032  -0.17662
 Alpha  occ. eigenvalues --   -0.16515  -0.15399  -0.15003  -0.14826  -0.13519
 Alpha  occ. eigenvalues --   -0.12705  -0.11261  -0.11077  -0.09408  -0.08511
 Alpha  occ. eigenvalues --   -0.07531  -0.06210  -0.05156   0.00144   0.01822
 Alpha  occ. eigenvalues --    0.01980   0.02885   0.03138   0.12360
 Alpha virt. eigenvalues --    0.13754   0.15606   0.17770   0.18062   0.19095
 Alpha virt. eigenvalues --    0.19231   0.20645   0.21900   0.22273   0.22801
 Alpha virt. eigenvalues --    0.23478   0.24506   0.25256   0.25678   0.26526

  Beta  occ. eigenvalues --  -18.88604 -18.79589 -18.79301  -9.95934  -9.95794
  Beta  occ. eigenvalues --   -9.95725  -9.95555  -9.95249  -9.94989  -9.94322
  Beta  occ. eigenvalues --   -9.94224  -9.93415  -9.92798  -9.92141  -9.91865
  Beta  occ. eigenvalues --   -9.91506  -9.89327  -0.79897  -0.71339  -0.69069
  Beta  occ. eigenvalues --   -0.63596  -0.58420  -0.54017  -0.53497  -0.48718
  Beta  occ. eigenvalues --   -0.48345  -0.41651  -0.39623  -0.36759  -0.36010
  Beta  occ. eigenvalues --   -0.31505  -0.29527  -0.28479  -0.25889  -0.23087
  Beta  occ. eigenvalues --   -0.22197  -0.20974  -0.20388  -0.19032  -0.17662
  Beta  occ. eigenvalues --   -0.16515  -0.15399  -0.15003  -0.14826  -0.13519
  Beta  occ. eigenvalues --   -0.12705  -0.11261  -0.11077  -0.09408  -0.08511
  Beta  occ. eigenvalues --   -0.07531  -0.06210  -0.05156   0.00144   0.01822
  Beta  occ. eigenvalues --    0.01980   0.02885   0.03138   0.12360
  Beta virt. eigenvalues --    0.13754   0.15606   0.17770   0.18062   0.19095
  Beta virt. eigenvalues --    0.19231   0.20645   0.21900   0.22273   0.22801
  Beta virt. eigenvalues --    0.23478   0.24506   0.25256   0.25678   0.26526

 Mulliken charges and spin densities:
               1          2
     1  C   -0.386837   0.000000
     2  C    0.144656  -0.000000
     3  C    0.041745  -0.000000
     4  C    0.279033  -0.000000
     5  C    0.311137   0.000000
     6  C   -0.331525   0.000000
     7  C    0.011060   0.000000
     8  C    0.450595  -0.000000
     9  C    0.438378   0.000000
    10  C    0.164373   0.000000
    11  C   -1.220713  -0.000000
    12  C   -0.325230  -0.000000
    13  C    0.684899   0.000000
    14  C   -0.889165   0.000000
    15  O   -0.586100  -0.000000
    16  O   -0.494774  -0.000000
    17  O   -0.315213  -0.000000
    18  H    0.123584   0.000000
    19  H   -0.419853   0.000000
    20  H   -0.336017   0.000000
    21  H    0.117644  -0.000000
    22  H    0.093943  -0.000000
    23  H    0.097359  -0.000000
    24  H    0.106538   0.000000
    25  H    0.240484   0.000000
 Sum of Mulliken charges =  -2.00000   0.00000

 Dipole moment (field-independent basis, Debye):
    X=            -27.0829    Y=            -13.0525    Z=             13.6446  Tot=             33.0155
 Quadrupole moment (field-independent basis, Debye-Ang):
   XX=           -278.9813   YY=           -166.5427   ZZ=           -147.6879
   XY=            -32.3848   XZ=             64.9491   YZ=             32.9600

  Exact polarizability:2422.335-123.587 673.515-677.914-257.322 487.996
 Approx polarizability:5284.665 -60.111 543.596********-151.941 786.152

                      1                      2                      3
                      A                      A                      A
 Frequencies --     65.9868                87.3212               131.5453
 Red. masses --      6.4719                 5.0402                 9.3739
 Frc consts  --      0.0166                 0.0226                 0.0956
 IR Inten    --      0.2832                 0.5322                 9.1845

                      4                      5                      6
                      A                      A                      A
 Frequencies --    168.5133               198.7939               244.4188
 Red. masses --      7.1318                 7.3468                 4.6941
 Frc consts  --      0.1193                 0.1711                 0.1652
 IR Inten    --      9.7420                 1.6803                19.9144

                      7                      8                      9
                      A                      A                      A
 Frequencies --    283.7732               302.0099               313.1225
 Red. masses --      5.6521                 9.8256                 5.2905
 Frc consts  --      0.2682                 0.5280                 0.3056
 IR Inten    --      4.5536                 0.9356               118.6199

                     10                     11                     12
                      A                      A                      A
 Frequencies --    332.1784               372.3012               403.2250
 Red. masses --      6.3065                 5.3476                10.6406
 Frc consts  --      0.4100                 0.4367                 1.0193
 IR Inten    --     58.9780                18.8446               569.1950

                     13                     14                     15
                      A                      A                      A
 Frequencies --    441.9400               463.9901               476.6582
 Red. masses --      3.9883                 2.8794                10.5170
 Frc consts  --      0.4589                 0.3652                 1.4078
 IR Inten    --     14.0736                45.7096              1208.5370

                     16                     17                     18
                      A                      A                      A
 Frequencies --    496.5914               520.3856               586.0248
 Red. masses --      6.6543                 4.0790                 7.1884
 Frc consts  --      0.9668                 0.6508                 1.4545
 IR Inten    --     24.0507                11.5099                29.9255

                     19                     20                     21
                      A                      A                      A
 Frequencies --    602.7002               622.7351               651.8111
 Red. masses --      3.4638                 6.7283                 6.2029
 Frc consts  --      0.7413                 1.5373                 1.5527
 IR Inten    --     26.3519                 3.7574                14.9639

                     22                     23                     24
                      A                      A                      A
 Frequencies --    703.5290               704.7526               714.8937
 Red. masses --      4.6154                 5.0293                 2.8441
 Frc consts  --      1.3459                 1.4717                 0.8564
 IR Inten    --     10.3390                 3.6699               116.0128

                     25                     26                     27
                      A                      A                      A
 Frequencies --    739.2340               748.6017               758.5982
 Red. masses --      1.6431                 2.7161                 5.1800
 Frc consts  --      0.5290                 0.8968                 1.7563
 IR Inten    --     24.3168                 1.3042               419.9426

                     28                     29                     30
                      A                      A                      A
 Frequencies --    781.5708               788.9951               794.6063
 Red. masses --      4.7032                 1.5287                 2.0790
 Frc consts  --      1.6927                 0.5607                 0.7734
 IR Inten    --     73.8965                79.9869                27.8506

                     31                     32                     33
                      A                      A                      A
 Frequencies --    831.1643               878.7409               898.2448
 Red. masses --      1.1208                 1.4650                 1.8926
 Frc consts  --      0.4562                 0.6665                 0.8997
 IR Inten    --     82.0576                 3.2819               124.3907

                     34                     35                     36
                      A                      A                      A
 Frequencies --    903.1400               934.5454               948.2589
 Red. masses --      2.1018                 1.3600                 1.3058
 Frc consts  --      1.0101                 0.6998                 0.6918
 IR Inten    --    224.6833                 2.2406                81.8258

                     37                     38                     39
                      A                      A                      A
 Frequencies --    986.6364              1005.8356              1048.3431
 Red. masses --      3.9414                 2.3194                 3.2771
 Frc consts  --      2.2606                 1.3825                 2.1220
 IR Inten    --     87.3864               329.5545                16.7489

                     40                     41                     42
                      A                      A                      A
 Frequencies --   1131.4300              1149.8300              1157.5888
 Red. masses --      1.5918                 1.5633                 1.8012
 Frc consts  --      1.2006                 1.2178                 1.4221
 IR Inten    --     44.9279               144.5630                97.3499

                     43                     44                     45
                      A                      A                      A
 Frequencies --   1189.3044              1196.4762              1208.9832
 Red. masses --      2.8179                 1.5476                 2.3912
 Frc consts  --      2.3483                 1.3053                 2.0592
 IR Inten    --     36.0404               200.5571              2765.8613

                     46                     47                     48
                      A                      A                      A
 Frequencies --   1253.4369              1273.5806              1297.4018
 Red. masses --      2.6439                 2.0606                 3.5496
 Frc consts  --      2.4474                 1.9692                 3.5203
 IR Inten    --    502.4590                21.5451               278.1579

                     49                     50                     51
                      A                      A                      A
 Frequencies --   1336.4843              1364.4511              1383.7580
 Red. masses --      2.9513                 3.7467                 3.3128
 Frc consts  --      3.1059                 4.1097                 3.7373
 IR Inten    --   3862.4651              3159.5183               818.3785

                     52                     53                     54
                      A                      A                      A
 Frequencies --   1415.1002              1425.3037              1452.7163
 Red. masses --      7.8478                 4.1548                 3.1151
 Frc consts  --      9.2592                 4.9730                 3.8734
 IR Inten    --   4772.1141              1501.5637               874.3910

                     55                     56                     57
                      A                      A                      A
 Frequencies --   1469.5751              1498.4335              1520.8146
 Red. masses --      3.0959                 3.1179                 4.9666
 Frc consts  --      3.9393                 4.1247                 6.7681
 IR Inten    --   1573.6124                59.2662               773.6129

                     58                     59                     60
                      A                      A                      A
 Frequencies --   1544.6516              1572.5722              1590.8165
 Red. masses --      5.7996                 2.6258                 6.8910
 Frc consts  --      8.1528                 3.8258                10.2749
 IR Inten    --   1709.8297              2020.3028              3475.6879

                     61                     62                     63
                      A                      A                      A
 Frequencies --   1610.5363              3098.6247              3112.9489
 Red. masses --      5.2039                 1.0829                 1.0858
 Frc consts  --      7.9528                 6.1260                 6.1994
 IR Inten    --     18.1968               287.8127               200.5247

                     64                     65                     66
                      A                      A                      A
 Frequencies --   3127.1710              3136.3790              3140.3152
 Red. masses --      1.0920                 1.0882                 1.0948
 Frc consts  --      6.2917                 6.3067                 6.3610
 IR Inten    --    184.0772               343.4822               150.5884

                     67                     68                     69
                      A                      A                      A
 Frequencies --   3143.6953              3148.4348              3229.8444
 Red. masses --      1.0884                 1.0880                 1.0636
 Frc consts  --      6.3378                 6.3546                 6.5375
 IR Inten    --     34.8400                24.8190               812.7727

 - Thermochemistry -
 -------------------
 Temperature   298.150 Kelvin.  Pressure   1.00000 Atm.
 Atom     1 has atomic number  6 and mass  12.00000

 Molecular mass:   224.04734 amu.
 Principal axes and moments of inertia in atomic units:
                           1         2         3
     Eigenvalues --  1783.767235685.525657469.23538
           X            0.94815  -0.17042   0.26828
           Y            0.05820   0.92292   0.38057
           Z           -0.31245  -0.34522   0.88498
 This molecule is an asymmetric top.
 Rotational symmetry number  1.
 Warning -- assumption of classical behavior for rotation
           may cause significant error
 Rotational temperatures (Kelvin)      0.04856     0.01523     0.01160
 Rotational constants (GHZ):           1.01176     0.31743     0.24162
 Zero-point vibrational energy     467239.7 (Joules/Mol)
                                  111.67297 (Kcal/Mol)
 Warning -- explicit consideration of  19 degrees of freedom as
           vibrations may cause significant error
 Vibrational temperatures:     94.94   125.64   189.26   242.45   286.02
          (Kelvin)            351.66   408.29   434.52   450.51   477.93
                              535.66   580.15   635.85   667.58   685.80
                              714.48   748.72   843.16   867.15   895.98
                              937.81  1012.22  1013.98  1028.57  1063.59
                             1077.07  1091.45  1124.51  1135.19  1143.26
                             1195.86  1264.31  1292.37  1299.42  1344.60
                             1364.33  1419.55  1447.17  1508.33  1627.88
                             1654.35  1665.51  1711.14  1721.46  1739.46
                             1803.42  1832.40  1866.67  1922.90  1963.14
                             1990.92  2036.01  2050.69  2090.13  2114.39
                             2155.91  2188.11  2222.41  2262.58  2288.83
                             2317.20  4458.23  4478.84  4499.30  4512.55
                             4518.21  4523.08  4529.90  4647.03

 Zero-point correction=                           0.177962 (Hartree/Particle)
 Thermal correction to Energy=                    0.190314
 Thermal correction to Enthalpy=                  0.191258
 Thermal correction to Gibbs Free Energy=         0.139530
 Sum of electronic and zero-point Energies=           -764.008876
 Sum of electronic and thermal Energies=              -763.996524
 Sum of electronic and thermal Enthalpies=            -763.995580
 Sum of electronic and thermal Free Energies=         -764.047307

                     E (Thermal)             CV                S
                      KCal/Mol        Cal/Mol-Kelvin    Cal/Mol-Kelvin
 Total                  119.424             51.117            108.870
 Electronic               0.000              0.000              0.000
 Translational            0.889              2.981             42.123
 Rotational               0.889              2.981             32.693
 Vibrational            117.646             45.155             34.054
 Vibration     1          0.597              1.970              4.270
 Vibration     2          0.601              1.958              3.719
 Vibration     3          0.612              1.922              2.923
 Vibration     4          0.625              1.881              2.452
 Vibration     5          0.637              1.842              2.144
 Vibration     6          0.660              1.772              1.770
 Vibration     7          0.682              1.704              1.511
 Vibration     8          0.694              1.670              1.406
 Vibration     9          0.701              1.649              1.346
 Vibration    10          0.714              1.611              1.249
 Vibration    11          0.744              1.529              1.070
 Vibration    12          0.769              1.463              0.951
 Vibration    13          0.802              1.379              0.821
 Vibration    14          0.822              1.330              0.755
 Vibration    15          0.833              1.302              0.719
 Vibration    16          0.852              1.258              0.667
 Vibration    17          0.875              1.205              0.609
 Vibration    18          0.943              1.062              0.474
 Vibration    19          0.961              1.026              0.445

 Optimization completed.
    -- Stationary point found.
 Normal termination of Gaussian 16 at Wed Jan 10 07:00:43 2024.
