 Q-Chem 5.4, Q-Chem, Inc., Pleasanton, CA (2021)
 Q-Chem 5.4.0 for Intel X86 EM64T Linux

User input:
--------------------------------------------------------------
$molecule
-2 1
C                 -0.6483900000      2.6786130000     -0.9733680000
C                 -1.7191670000      2.0615030000     -0.3763820000
C                 -1.5911720000      0.7488190000      0.1682360000
C                  0.6367190000      2.0428780000     -1.0701110000
C                  0.7560940000      0.6971530000     -0.5311960000
C                 -0.3736920000      0.0990760000      0.0780820000
C                  1.7495330000      2.6386400000     -1.6607300000
C                  3.0005740000      1.9867020000     -1.7665230000
C                  3.1153880000      0.6287190000     -1.2197620000
C                  2.0066140000      0.0456170000     -0.6356560000
C                  4.1196860000      2.6144180000     -2.3766260000
C                  5.3157690000      1.8449260000     -2.4065190000
C                  5.4665310000      0.5531330000     -1.8972750000
C                  4.3909230000     -0.1363780000     -1.2772480000
O                  4.1640940000      3.8182320000     -2.9048170000
O                  4.4801910000     -1.3170850000     -0.8005270000
O                  6.3567790000      2.5109090000     -3.0065010000
H                 -0.7572260000      3.6794490000     -1.3857850000
H                 -2.6757540000      2.5770360000     -0.3083200000
H                 -2.4431480000      0.2725840000      0.6463890000
H                 -0.2627320000     -0.9053030000      0.4827560000
H                  1.6754230000      3.6409010000     -2.0732520000
H                  2.1292910000     -0.9599400000     -0.2415230000
H                  6.4279570000      0.0519080000     -1.9726180000
H                  5.8820190000      3.3597610000     -3.2269820000
$end
$rem
MAX_SCF_CYCLES=200
BASIS  =  6-311++G(d,p)
GUI  =  2
JOB_TYPE  =  SP
METHOD  =  B3LYP
SOLVENT_METHOD = PCM
$end
$pcm
theory = CPCM
$end
$solvent
dielectric 37.219
opticaldielectric 1.43
$end

--------------------------------------------------------------

             Standard Nuclear Orientation (Angstroms)
    I     Atom           X                Y                Z
 ----------------------------------------------------------------
    1      C      -0.6483900000     2.6786130000    -0.9733680000
    2      C      -1.7191670000     2.0615030000    -0.3763820000
    3      C      -1.5911720000     0.7488190000     0.1682360000
    4      C       0.6367190000     2.0428780000    -1.0701110000
    5      C       0.7560940000     0.6971530000    -0.5311960000
    6      C      -0.3736920000     0.0990760000     0.0780820000
    7      C       1.7495330000     2.6386400000    -1.6607300000
    8      C       3.0005740000     1.9867020000    -1.7665230000
    9      C       3.1153880000     0.6287190000    -1.2197620000
   10      C       2.0066140000     0.0456170000    -0.6356560000
   11      C       4.1196860000     2.6144180000    -2.3766260000
   12      C       5.3157690000     1.8449260000    -2.4065190000
   13      C       5.4665310000     0.5531330000    -1.8972750000
   14      C       4.3909230000    -0.1363780000    -1.2772480000
   15      O       4.1640940000     3.8182320000    -2.9048170000
   16      O       4.4801910000    -1.3170850000    -0.8005270000
   17      O       6.3567790000     2.5109090000    -3.0065010000
   18      H      -0.7572260000     3.6794490000    -1.3857850000
   19      H      -2.6757540000     2.5770360000    -0.3083200000
   20      H      -2.4431480000     0.2725840000     0.6463890000
   21      H      -0.2627320000    -0.9053030000     0.4827560000
   22      H       1.6754230000     3.6409010000    -2.0732520000
   23      H       2.1292910000    -0.9599400000    -0.2415230000
   24      H       6.4279570000     0.0519080000    -1.9726180000
   25      H       5.8820190000     3.3597610000    -3.2269820000
 ----------------------------------------------------------------

    9    -764.4536949958      3.56e-06  Convergence criterion met
 Total energy in the final basis set =     -764.4536949958

                    Orbital Energies (a.u.)
 --------------------------------------------------------------

 Alpha MOs
 -- Occupied --
-19.1160 -19.0320 -19.0306 -10.1889 -10.1858 -10.1651 -10.1642 -10.1637
-10.1628 -10.1619 -10.1608 -10.1586 -10.1529 -10.1485 -10.1479 -10.1448
-10.1232  -1.0302  -0.9523  -0.9296  -0.8539  -0.8067  -0.7606  -0.7564
 -0.7096  -0.7060  -0.6435  -0.6153  -0.5891  -0.5774  -0.5422  -0.5151
 -0.5040  -0.4784  -0.4557  -0.4400  -0.4317  -0.4212  -0.4093  -0.3988
 -0.3963  -0.3781  -0.3733  -0.3728  -0.3710  -0.3510  -0.3430  -0.3356
 -0.3193  -0.3186  -0.3030  -0.2884  -0.2722  -0.2302  -0.2213  -0.2092
 -0.2076  -0.2028  -0.1139

          Ground-State Mulliken Net Atomic Charges

     Atom                 Charge (a.u.)
  ----------------------------------------
      1 C                    -0.234709
      2 C                    -0.360065
      3 C                    -0.404244
      4 C                     0.140263
      5 C                     0.165807
      6 C                    -0.200677
      7 C                    -0.049951
      8 C                     0.248135
      9 C                     0.295816
     10 C                     0.087919
     11 C                    -0.807275
     12 C                    -0.325041
     13 C                     0.384314
     14 C                    -0.552365
     15 O                    -0.755037
     16 O                    -0.667310
     17 O                    -0.361618
     18 H                     0.163365
     19 H                     0.187332
     20 H                     0.185628
     21 H                     0.165598
     22 H                     0.123777
     23 H                     0.121636
     24 H                     0.162452
     25 H                     0.286248
  ----------------------------------------
  Sum of atomic charges =    -2.000000

                    Cartesian Multipole Moments
 -----------------------------------------------------------------
    Charge (ESU x 10^10)
                -9.6064
    Dipole Moment (Debye)
         X     -38.4938      Y     -12.5921      Z      17.1209
       Tot      43.9711
    Quadrupole Moments (Debye-Ang)
        XX    -286.9454     XY     -48.0269     YY    -165.5172
        XZ      74.1912     YZ      38.0310     ZZ    -149.4925

 Total job time:  61.45s(wall), 314.18s(cpu)
        *  Thank you very much for using Q-Chem.  Have a nice day.  *
