 Q-Chem 5.4, Q-Chem, Inc., Pleasanton, CA (2021)
 Q-Chem 5.4.0 for Intel X86 EM64T Linux

User input:
--------------------------------------------------------------
$molecule
-2 1
O                 -0.0170490000     -2.5770840000     -0.4867040000
C                 -0.0089410000     -1.3284580000     -0.1542900000
C                  1.2228720000     -0.6194840000      0.0918960000
C                  2.4511710000     -1.3525850000      0.0973480000
C                  3.6499260000     -0.7887220000      0.4735820000
C                  3.7195580000      0.5758080000      0.8651670000
C                  2.5571510000      1.3359570000      0.8053480000
C                  1.3322650000      0.7840680000      0.4087250000
S                  0.0115630000      1.9522440000      0.1592040000
O                  0.0125410000      2.4773590000     -1.3013390000
C                 -1.3224280000      0.8002560000      0.4129420000
C                 -2.5392200000      1.3669820000      0.8135220000
C                 -3.7106480000      0.6211010000      0.8769140000
C                 -3.6589620000     -0.7440880000      0.4848090000
C                 -2.4683940000     -1.3225030000      0.1047130000
C                 -1.2312040000     -0.6045280000      0.0956310000
H                  2.3806440000     -2.3958850000     -0.1923670000
H                  4.5543160000     -1.3958880000      0.4782340000
H                  4.6590180000      1.0206220000      1.1819400000
H                  2.5895790000      2.3964390000      1.0506480000
H                 -2.5579100000      2.4277400000      1.0590820000
H                 -4.6435760000      1.0773100000      1.1967580000
H                 -4.5707020000     -1.3401360000      0.4921140000
H                 -2.4115680000     -2.3665270000     -0.1854230000
$end

$rem
BASIS  =  6-311++G(d,p)
GUI  =  2
JOB_TYPE  =  SP
METHOD  =  B3LYP
SCF_CONVERGENCE  = 8
SOLVENT_METHOD = sm12
$end

$smx
solvent dimethylformamide
charges CM5
$end

--------------------------------------------------------------

             Standard Nuclear Orientation (Angstroms)
    I     Atom           X                Y                Z
 ----------------------------------------------------------------
    1      O      -0.0170490000    -2.5770840000    -0.4867040000
    2      C      -0.0089410000    -1.3284580000    -0.1542900000
    3      C       1.2228720000    -0.6194840000     0.0918960000
    4      C       2.4511710000    -1.3525850000     0.0973480000
    5      C       3.6499260000    -0.7887220000     0.4735820000
    6      C       3.7195580000     0.5758080000     0.8651670000
    7      C       2.5571510000     1.3359570000     0.8053480000
    8      C       1.3322650000     0.7840680000     0.4087250000
    9      S       0.0115630000     1.9522440000     0.1592040000
   10      O       0.0125410000     2.4773590000    -1.3013390000
   11      C      -1.3224280000     0.8002560000     0.4129420000
   12      C      -2.5392200000     1.3669820000     0.8135220000
   13      C      -3.7106480000     0.6211010000     0.8769140000
   14      C      -3.6589620000    -0.7440880000     0.4848090000
   15      C      -2.4683940000    -1.3225030000     0.1047130000
   16      C      -1.2312040000    -0.6045280000     0.0956310000
   17      H       2.3806440000    -2.3958850000    -0.1923670000
   18      H       4.5543160000    -1.3958880000     0.4782340000
   19      H       4.6590180000     1.0206220000     1.1819400000
   20      H       2.5895790000     2.3964390000     1.0506480000
   21      H      -2.5579100000     2.4277400000     1.0590820000
   22      H      -4.6435760000     1.0773100000     1.1967580000
   23      H      -4.5707020000    -1.3401360000     0.4921140000
   24      H      -2.4115680000    -2.3665270000    -0.1854230000
 ----------------------------------------------------------------

   18   -1048.9321233247      3.97e-09  Convergence criterion met
 Total energy in the final basis set =    -1049.2179328716

                    Orbital Energies (a.u.)
 --------------------------------------------------------------

 Alpha MOs
 -- Occupied --
-88.9319 -19.0610 -19.0180 -10.1850 -10.1850 -10.1831 -10.1831 -10.1794
-10.1786 -10.1786 -10.1696 -10.1696 -10.1673 -10.1673 -10.1614 -10.1613
 -8.0060  -5.9688  -5.9676  -5.9625  -0.9755  -0.9354  -0.8540  -0.8480
 -0.7825  -0.7533  -0.7502  -0.7331  -0.6865  -0.6375  -0.6127  -0.5884
 -0.5743  -0.5402  -0.5228  -0.4799  -0.4627  -0.4612  -0.4505  -0.4329
 -0.4278  -0.4143  -0.4068  -0.3965  -0.3839  -0.3700  -0.3664  -0.3561
 -0.3498  -0.3413  -0.3288  -0.3208  -0.2664  -0.2660  -0.2525  -0.2402
 -0.2344  -0.2185  -0.2000  -0.1138

          Ground-State Mulliken Net Atomic Charges

     Atom                 Charge (a.u.)
  ----------------------------------------
      1 O                    -0.420343
      2 C                    -3.050364
      3 C                    -1.637629
      4 C                    -0.870338
      5 C                     1.247053
      6 C                     1.583581
      7 C                     0.986676
      8 C                    -1.552391
      9 S                     0.103251
     10 O                    -0.294641
     11 C                    -1.554819
     12 C                     0.986929
     13 C                     1.582969
     14 C                     1.246184
     15 C                    -0.870880
     16 C                    -1.638650
     17 H                     0.083290
     18 H                     0.360582
     19 H                     0.396097
     20 H                     0.236886
     21 H                     0.236771
     22 H                     0.396020
     23 H                     0.360548
     24 H                     0.083217
  ----------------------------------------
  Sum of atomic charges =    -2.000000

                    Cartesian Multipole Moments
 -----------------------------------------------------------------
    Charge (ESU x 10^10)
                -9.6064
    Dipole Moment (Debye)
         X       0.0242      Y       1.9718      Z       2.4529
       Tot       3.1473
    Quadrupole Moments (Debye-Ang)
        XX    -143.2672     XY      -0.0476     YY    -152.2727
        XZ       0.0588     YZ       4.9578     ZZ    -125.1993

 Total job time:  500.79s(wall), 3900.48s(cpu)
        *  Thank you very much for using Q-Chem.  Have a nice day.  *
