 Q-Chem 5.4, Q-Chem, Inc., Pleasanton, CA (2021)
 Q-Chem 5.4.0 for Intel X86 EM64T Linux

User input:
--------------------------------------------------------------
$molecule
-2 2
O                 -2.4962970000     -2.7906020000     -1.6617900000
S                 -2.9989010000     -2.3505740000     -0.3379530000
O                 -2.5734290000     -3.1546030000      0.8331650000
O                 -4.4844240000     -2.1363620000     -0.3524470000
C                 -2.3325420000     -0.6120180000     -0.0648510000
C                 -3.3466740000      0.3267470000      0.0545170000
C                 -3.0722040000      1.6888030000      0.2583800000
C                 -1.7691250000      2.1202670000      0.3411090000
C                 -0.6991810000      1.2076130000      0.2256850000
C                  0.6508790000      1.7816480000      0.3266600000
O                  0.8356240000      3.0226000000      0.5069970000
C                  1.7604350000      0.8570160000      0.2074830000
C                  3.0931020000      1.3312350000      0.2889570000
C                  4.1666090000      0.4717030000      0.1791260000
C                  3.9430880000     -0.9123920000     -0.0185340000
C                  2.6482650000     -1.3919840000     -0.0995950000
C                  1.5344790000     -0.5340840000      0.0090370000
C                  0.1813440000     -1.1234800000     -0.0867080000
O                  0.0549020000     -2.3458640000     -0.2475250000
C                 -0.9632460000     -0.1927470000      0.0212670000
H                 -4.3652320000     -0.0311790000     -0.0174780000
H                 -3.8949980000      2.3950900000      0.3478650000
H                 -1.5123330000      3.1617550000      0.4952880000
H                  3.2305820000      2.3963150000      0.4410640000
H                  5.1826370000      0.8548050000      0.2439750000
H                  4.7856280000     -1.5938550000     -0.1059810000
H                  2.4410150000     -2.4458560000     -0.2498510000
$end

$rem
BASIS  =  6-311++G(d,p)
GUI  =  2
JOB_TYPE  =  SP
METHOD  =  B3LYP
SCF_CONVERGENCE  = 8
SOLVENT_METHOD = sm12
$end

$smx
solvent dimethylformamide
charges CM5
$end

--------------------------------------------------------------

             Standard Nuclear Orientation (Angstroms)
    I     Atom           X                Y                Z
 ----------------------------------------------------------------
    1      O      -2.4962970000    -2.7906020000    -1.6617900000
    2      S      -2.9989010000    -2.3505740000    -0.3379530000
    3      O      -2.5734290000    -3.1546030000     0.8331650000
    4      O      -4.4844240000    -2.1363620000    -0.3524470000
    5      C      -2.3325420000    -0.6120180000    -0.0648510000
    6      C      -3.3466740000     0.3267470000     0.0545170000
    7      C      -3.0722040000     1.6888030000     0.2583800000
    8      C      -1.7691250000     2.1202670000     0.3411090000
    9      C      -0.6991810000     1.2076130000     0.2256850000
   10      C       0.6508790000     1.7816480000     0.3266600000
   11      O       0.8356240000     3.0226000000     0.5069970000
   12      C       1.7604350000     0.8570160000     0.2074830000
   13      C       3.0931020000     1.3312350000     0.2889570000
   14      C       4.1666090000     0.4717030000     0.1791260000
   15      C       3.9430880000    -0.9123920000    -0.0185340000
   16      C       2.6482650000    -1.3919840000    -0.0995950000
   17      C       1.5344790000    -0.5340840000     0.0090370000
   18      C       0.1813440000    -1.1234800000    -0.0867080000
   19      O       0.0549020000    -2.3458640000    -0.2475250000
   20      C      -0.9632460000    -0.1927470000     0.0212670000
   21      H      -4.3652320000    -0.0311790000    -0.0174780000
   22      H      -3.8949980000     2.3950900000     0.3478650000
   23      H      -1.5123330000     3.1617550000     0.4952880000
   24      H       3.2305820000     2.3963150000     0.4410640000
   25      H       5.1826370000     0.8548050000     0.2439750000
   26      H       4.7856280000    -1.5938550000    -0.1059810000
   27      H       2.4410150000    -2.4458560000    -0.2498510000
 ----------------------------------------------------------------

   19   -1312.2760947091      8.90e-09  Convergence criterion met
 Total energy in the final basis set =    -1312.5425074111

                    Orbital Energies (a.u.)
 --------------------------------------------------------------

 Alpha MOs
 -- Occupied --
-89.0209 -19.0763 -19.0721 -19.0622 -19.0621 -19.0612 -10.2271 -10.2246
-10.1986 -10.1902 -10.1842 -10.1832 -10.1826 -10.1824 -10.1798 -10.1793
-10.1786 -10.1782 -10.1782 -10.1756  -8.0790  -6.0417  -6.0415  -6.0413
 -1.0785  -1.0067  -0.9981  -0.9460  -0.9386  -0.8665  -0.8587  -0.7910
 -0.7608  -0.7573  -0.7458  -0.6718  -0.6483  -0.6241  -0.6102  -0.5758
 -0.5451  -0.5390  -0.5222  -0.4794  -0.4713  -0.4654  -0.4632  -0.4522
 -0.4317  -0.4273  -0.4242  -0.4210  -0.4147  -0.4075  -0.4048  -0.3814
 -0.3803  -0.3748  -0.3695  -0.3521  -0.3442  -0.3429  -0.3061  -0.3005
 -0.2865  -0.2716  -0.2710  -0.2634  -0.2632  -0.2577  -0.2496  -0.2419
 -0.2294  -0.2235  -0.1434

 Beta MOs
 -- Occupied --
-89.0209 -19.0702 -19.0660 -19.0622 -19.0621 -19.0611 -10.2264 -10.2228
-10.1987 -10.1889 -10.1840 -10.1825 -10.1822 -10.1817 -10.1797 -10.1787
-10.1782 -10.1782 -10.1778 -10.1749  -8.0790  -6.0417  -6.0415  -6.0413
 -1.0785  -0.9964  -0.9874  -0.9460  -0.9384  -0.8639  -0.8575  -0.7869
 -0.7590  -0.7556  -0.7438  -0.6646  -0.6468  -0.6216  -0.6094  -0.5744
 -0.5432  -0.5373  -0.5210  -0.4766  -0.4705  -0.4644  -0.4618  -0.4518
 -0.4314  -0.4236  -0.4231  -0.4131  -0.4129  -0.4029  -0.4011  -0.3799
 -0.3716  -0.3686  -0.3575  -0.3507  -0.3412  -0.3325  -0.3057  -0.3003
 -0.2840  -0.2707  -0.2626  -0.2572  -0.2520  -0.2494  -0.2434  -0.2366
 -0.2243  -0.2229

          Ground-State Mulliken Net Atomic Charges

     Atom                 Charge (a.u.)    Spin (a.u.)
  --------------------------------------------------------
      1 O                    -0.355432       0.001007
      2 S                     0.317540       0.001598
      3 O                    -0.352007       0.000983
      4 O                    -0.281682       0.000888
      5 C                    -3.246006      -0.000199
      6 C                     0.405587       0.044985
      7 C                     1.755617       0.028994
      8 C                    -0.069674       0.035206
      9 C                    -0.424969       0.026471
     10 C                    -1.557254       0.096371
     11 O                    -0.200450       0.230003
     12 C                     0.388213       0.005959
     13 C                     1.032725       0.049445
     14 C                     2.294435       0.016088
     15 C                     1.664427       0.060150
     16 C                     0.195445       0.004312
     17 C                    -1.482618       0.066753
     18 C                    -2.196759       0.014206
     19 O                    -0.248711       0.229388
     20 C                    -1.703133       0.104401
     21 H                     0.180822      -0.003805
     22 H                     0.478514      -0.001974
     23 H                     0.228578      -0.002329
     24 H                     0.190050      -0.002705
     25 H                     0.449529      -0.001443
     26 H                     0.394836      -0.004432
     27 H                     0.142377      -0.000321
  --------------------------------------------------------
  Sum of atomic charges =    -2.000000

                    Cartesian Multipole Moments
 -----------------------------------------------------------------
    Charge (ESU x 10^10)
                -9.6064
    Dipole Moment (Debye)
         X      13.7297      Y      11.0741      Z       1.2665
       Tot      17.6846
    Quadrupole Moments (Debye-Ang)
        XX    -194.5643     XY     -49.5247     YY    -199.6921
        XZ      -7.4299     YZ      -8.6961     ZZ    -141.6856

 Total job time:  832.90s(wall), 6386.16s(cpu)
        *  Thank you very much for using Q-Chem.  Have a nice day.  *
