 Gaussian 16, Revision A.03,
 Gaussian 16:  ES64L-G16RevA.03 25-Dec-2016

 --------------------------------------
 #P UB3LYP/6-311++G(d,p) nosym opt freq
 --------------------------------------

 --------
 Oxidized
 --------
 Symbolic Z-matrix:
 Charge =  0 Multiplicity = 1

 SCF Done:  E(UB3LYP) =  -1502.57792425     A.U. after   18 cycles
 SCF Done:  E(UB3LYP) =  -1502.62462741     A.U. after   15 cycles
 SCF Done:  E(UB3LYP) =  -1502.65711188     A.U. after   16 cycles
 SCF Done:  E(UB3LYP) =  -1502.66107805     A.U. after   15 cycles
 SCF Done:  E(UB3LYP) =  -1502.66184632     A.U. after   14 cycles
 SCF Done:  E(UB3LYP) =  -1502.66209549     A.U. after   15 cycles
 SCF Done:  E(UB3LYP) =  -1502.66215968     A.U. after   14 cycles
 SCF Done:  E(UB3LYP) =  -1502.66236496     A.U. after   13 cycles
 SCF Done:  E(UB3LYP) =  -1502.66251773     A.U. after   13 cycles
 SCF Done:  E(UB3LYP) =  -1502.66266159     A.U. after   14 cycles
 SCF Done:  E(UB3LYP) =  -1502.66172876     A.U. after   15 cycles
 SCF Done:  E(UB3LYP) =  -1502.66293666     A.U. after   12 cycles
 SCF Done:  E(UB3LYP) =  -1502.66226430     A.U. after   13 cycles
 SCF Done:  E(UB3LYP) =  -1502.66300295     A.U. after   14 cycles
 SCF Done:  E(UB3LYP) =  -1502.66307729     A.U. after   13 cycles
 SCF Done:  E(UB3LYP) =  -1502.66309778     A.U. after   12 cycles
 SCF Done:  E(UB3LYP) =  -1502.66309887     A.U. after   13 cycles
 SCF Done:  E(UB3LYP) =  -1502.66310876     A.U. after   13 cycles
 SCF Done:  E(UB3LYP) =  -1502.66310912     A.U. after   10 cycles
 Optimization completed.
    -- Stationary point found.
 Normal termination of Gaussian 16 at Thu Dec 21 22:59:02 2023.

 ----------------------------------------------------------------------
 #P Geom=AllCheck Guess=TCheck SCRF=Check GenChk UB3LYP/6-311++G(d,p) F
 req
 ----------------------------------------------------------------------

 Structure from the checkpoint file:  "195.chk"
 --------
 Oxidized
 --------
 Charge =  0 Multiplicity = 1

                          Input orientation:
 ---------------------------------------------------------------------
 Center     Atomic      Atomic             Coordinates (Angstroms)
 Number     Number       Type             X           Y           Z
 ---------------------------------------------------------------------
      1          6           0        4.826259   -3.016063    0.290313
      2          6           0        5.730589   -2.204150   -0.383534
      3          6           0        5.295174   -1.027875   -1.000850
      4          6           0        3.475701   -2.658104    0.352654
      5          6           0        3.037556   -1.474263   -0.268672
      6          6           0        3.955290   -0.663722   -0.944164
      7          6           0        2.523997   -3.533669    1.074877
      8          6           0        1.112575   -3.142629    1.122201
      9          6           0        0.667959   -1.943541    0.493648
     10          6           0        1.611968   -1.073950   -0.217603
     11          6           0        0.200144   -3.970178    1.802303
     12          6           0       -1.163156   -3.579901    1.835942
     13          6           0       -0.688345   -1.582858    0.555477
     14          6           0       -1.595973   -2.421282    1.237895
     15          8           0        2.922026   -4.573713    1.624059
     16          8           0        1.231585   -0.028513   -0.763685
     17          8           0        0.567460   -5.090207    2.420925
     18          1           0        5.143725   -3.930855    0.774452
     19          1           0        6.776440   -2.484815   -0.430276
     20          1           0        6.003813   -0.397565   -1.525528
     21          1           0        1.545195   -5.192295    2.271596
     22          8           0       -1.182160   -0.473859   -0.002372
     23          1           0       -2.640183   -2.139084    1.285242
     24          1           0       -0.427453   -0.005645   -0.436121
     25          1           0        3.597860    0.242950   -1.415695
     26         16           0       -2.406844   -4.628795    2.618622
     27          8           0       -3.645469   -3.872956    2.635432
     28          8           0       -2.358935   -5.965153    2.047342
     29          8           0       -1.839557   -4.668023    4.143350
     30          6           0       -1.520899   -5.952007    4.743141
     31          1           0       -0.847710   -6.514606    4.099567
     32          1           0       -2.435079   -6.513782    4.935062
     33          1           0       -1.031882   -5.693281    5.680050
 ---------------------------------------------------------------------

 SCF Done:  E(UB3LYP) =  -1502.66310912     A.U. after    2 cycles

 Alpha  occ. eigenvalues --  -89.09546 -19.18442 -19.18070 -19.17551 -19.15492
 Alpha  occ. eigenvalues --  -19.15375 -19.13910 -19.13773 -10.30531 -10.30413
 Alpha  occ. eigenvalues --  -10.29494 -10.28560 -10.25061 -10.23920 -10.23124
 Alpha  occ. eigenvalues --  -10.23078 -10.22958 -10.22911 -10.22898 -10.21988
 Alpha  occ. eigenvalues --  -10.21936 -10.21771 -10.21755  -8.15561  -6.11934
 Alpha  occ. eigenvalues --   -6.11743  -6.11665  -1.16436  -1.11299  -1.10616
 Alpha  occ. eigenvalues --   -1.07792  -1.07565  -1.05546  -1.03425  -0.91687
 Alpha  occ. eigenvalues --   -0.90259  -0.84650  -0.80364  -0.80065  -0.78901
 Alpha  occ. eigenvalues --   -0.75649  -0.72240  -0.70064  -0.68388  -0.65790
 Alpha  occ. eigenvalues --   -0.63959  -0.62111  -0.59100  -0.58381  -0.57541
 Alpha  occ. eigenvalues --   -0.56148  -0.54666  -0.52438  -0.52228  -0.51250
 Alpha  occ. eigenvalues --   -0.50012  -0.49177  -0.48947  -0.48113  -0.47580
 Alpha  occ. eigenvalues --   -0.47171  -0.47036  -0.46661  -0.45325  -0.45193
 Alpha  occ. eigenvalues --   -0.45129  -0.44599  -0.42029  -0.41882  -0.40620
 Alpha  occ. eigenvalues --   -0.40522  -0.40176  -0.39688  -0.38864  -0.36575
 Alpha  occ. eigenvalues --   -0.35874  -0.34751  -0.34199  -0.33380  -0.32262
 Alpha  occ. eigenvalues --   -0.31362  -0.30991  -0.29907  -0.29844  -0.29707
 Alpha  occ. eigenvalues --   -0.25214
 Alpha virt. eigenvalues --   -0.14266  -0.09109  -0.06623  -0.03736  -0.01904
 Alpha virt. eigenvalues --   -0.00775  -0.00107   0.00208   0.00561   0.00881
 Alpha virt. eigenvalues --    0.01871   0.02046   0.02330   0.02790   0.03060

  Beta  occ. eigenvalues --  -89.09546 -19.18442 -19.18070 -19.17551 -19.15492
  Beta  occ. eigenvalues --  -19.15375 -19.13910 -19.13773 -10.30531 -10.30413
  Beta  occ. eigenvalues --  -10.29494 -10.28560 -10.25061 -10.23920 -10.23124
  Beta  occ. eigenvalues --  -10.23078 -10.22958 -10.22911 -10.22898 -10.21988
  Beta  occ. eigenvalues --  -10.21936 -10.21771 -10.21755  -8.15561  -6.11934
  Beta  occ. eigenvalues --   -6.11743  -6.11665  -1.16436  -1.11299  -1.10616
  Beta  occ. eigenvalues --   -1.07792  -1.07565  -1.05546  -1.03425  -0.91687
  Beta  occ. eigenvalues --   -0.90259  -0.84650  -0.80364  -0.80065  -0.78901
  Beta  occ. eigenvalues --   -0.75649  -0.72240  -0.70064  -0.68388  -0.65790
  Beta  occ. eigenvalues --   -0.63959  -0.62111  -0.59100  -0.58381  -0.57541
  Beta  occ. eigenvalues --   -0.56148  -0.54666  -0.52438  -0.52228  -0.51250
  Beta  occ. eigenvalues --   -0.50012  -0.49177  -0.48947  -0.48113  -0.47580
  Beta  occ. eigenvalues --   -0.47171  -0.47036  -0.46661  -0.45325  -0.45193
  Beta  occ. eigenvalues --   -0.45129  -0.44599  -0.42029  -0.41882  -0.40620
  Beta  occ. eigenvalues --   -0.40522  -0.40176  -0.39688  -0.38864  -0.36575
  Beta  occ. eigenvalues --   -0.35874  -0.34751  -0.34199  -0.33380  -0.32262
  Beta  occ. eigenvalues --   -0.31362  -0.30991  -0.29907  -0.29844  -0.29707
  Beta  occ. eigenvalues --   -0.25214
  Beta virt. eigenvalues --   -0.14266  -0.09109  -0.06623  -0.03736  -0.01904
  Beta virt. eigenvalues --   -0.00775  -0.00107   0.00208   0.00561   0.00881
  Beta virt. eigenvalues --    0.01871   0.02046   0.02330   0.02790   0.03060

 Mulliken charges and spin densities:
               1          2
     1  C   -0.018786   0.000000
     2  C   -0.329558  -0.000000
     3  C   -0.413489  -0.000000
     4  C    0.445374  -0.000000
     5  C    0.124707   0.000000
     6  C    0.031252   0.000000
     7  C   -0.535547   0.000000
     8  C    0.534767  -0.000000
     9  C    0.705686   0.000000
    10  C   -0.385557   0.000000
    11  C   -0.476872   0.000000
    12  C   -0.567747  -0.000000
    13  C   -0.396584  -0.000000
    14  C   -0.157635   0.000000
    15  O   -0.272780  -0.000000
    16  O   -0.278059  -0.000000
    17  O   -0.291602  -0.000000
    18  H    0.185509  -0.000000
    19  H    0.186978  -0.000000
    20  H    0.184021   0.000000
    21  H    0.407364   0.000000
    22  O   -0.272542   0.000000
    23  H    0.274306   0.000000
    24  H    0.343060   0.000000
    25  H    0.193645  -0.000000
    26  S    0.919095   0.000000
    27  O   -0.049088  -0.000000
    28  O   -0.149039  -0.000000
    29  O   -0.154982  -0.000000
    30  C   -0.334366   0.000000
    31  H    0.197712  -0.000000
    32  H    0.194053  -0.000000
    33  H    0.156705   0.000000
 Sum of Mulliken charges =  -0.00000  -0.00000

 Dipole moment (field-independent basis, Debye):
    X=              6.8660    Y=              1.0626    Z=             -0.2693  Tot=              6.9529
 Quadrupole moment (field-independent basis, Debye-Ang):
   XX=           -128.7569   YY=           -150.0692   ZZ=           -131.4050
   XY=            -16.8390   XZ=              0.7754   YZ=             -5.7300

  Exact polarizability: 322.811  22.543 219.040 -56.338 -71.010 172.546
 Approx polarizability: 502.113 -13.896 394.658 -55.800-115.346 270.792

                      1                      2                      3
                      A                      A                      A
 Frequencies --     32.0014                42.1431                72.2516
 Red. masses --      7.6127                 6.0429                 2.8195
 Frc consts  --      0.0046                 0.0063                 0.0087
 IR Inten    --      0.2687                 1.3050                 5.4757

                      4                      5                      6
                      A                      A                      A
 Frequencies --     76.8662                90.6613                98.8559
 Red. masses --      3.0696                 3.9156                 2.3273
 Frc consts  --      0.0107                 0.0190                 0.0134
 IR Inten    --      1.8191                 0.2132                 0.3314

                      7                      8                      9
                      A                      A                      A
 Frequencies --    124.2148               136.9854               157.6703
 Red. masses --      3.4131                 6.7822                 7.9786
 Frc consts  --      0.0310                 0.0750                 0.1169
 IR Inten    --      1.3185                 0.0261                 0.8625

                     10                     11                     12
                      A                      A                      A
 Frequencies --    177.6955               202.2818               229.6540
 Red. masses --      9.1818                 8.0131                 7.9474
 Frc consts  --      0.1708                 0.1932                 0.2470
 IR Inten    --      0.6528                 0.5952                 0.5482

                     13                     14                     15
                      A                      A                      A
 Frequencies --    232.5125               251.9498               280.8369
 Red. masses --      7.6265                 5.3209                 6.3380
 Frc consts  --      0.2429                 0.1990                 0.2945
 IR Inten    --      1.8692                 5.1482                 3.2522

                     16                     17                     18
                      A                      A                      A
 Frequencies --    292.0252               326.6805               350.6920
 Red. masses --      7.5973                 6.6398                 6.4314
 Frc consts  --      0.3817                 0.4175                 0.4660
 IR Inten    --      1.3851                 1.8597                 4.6998

                     19                     20                     21
                      A                      A                      A
 Frequencies --    388.8487               407.4372               424.5743
 Red. masses --      9.7171                11.3178                 7.7062
 Frc consts  --      0.8657                 1.1070                 0.8185
 IR Inten    --      3.4141                 1.6236                 5.6357

                     22                     23                     24
                      A                      A                      A
 Frequencies --    428.6641               434.6606               449.1784
 Red. masses --      3.4637                 8.9486                12.8230
 Frc consts  --      0.3750                 0.9961                 1.5243
 IR Inten    --      0.6116                25.7722                 0.5639

                     25                     26                     27
                      A                      A                      A
 Frequencies --    468.3203               485.6759               493.5861
 Red. masses --      6.0004                 9.5648                 8.2188
 Frc consts  --      0.7754                 1.3293                 1.1797
 IR Inten    --     11.1935                50.8641                 5.1272

                     28                     29                     30
                      A                      A                      A
 Frequencies --    513.2284               528.6303               554.2122
 Red. masses --      5.7626                 8.1383                 8.3325
 Frc consts  --      0.8943                 1.3399                 1.5079
 IR Inten    --      9.0908                23.2236                 1.4871

                     31                     32                     33
                      A                      A                      A
 Frequencies --    600.9635               632.3465               661.2813
 Red. masses --     10.6965                 5.5875                 6.6061
 Frc consts  --      2.2761                 1.3164                 1.7020
 IR Inten    --    113.5023                11.7130                 2.6739

                     34                     35                     36
                      A                      A                      A
 Frequencies --    677.2735               688.1792               701.6007
 Red. masses --      6.1504                 7.0367                 8.5234
 Frc consts  --      1.6622                 1.9635                 2.4720
 IR Inten    --     23.3473                40.2961               159.7908

                     37                     38                     39
                      A                      A                      A
 Frequencies --    719.4288               740.0643               746.0769
 Red. masses --      5.4376                 6.0469                 2.5842
 Frc consts  --      1.6582                 1.9513                 0.8475
 IR Inten    --     29.9945                 8.2072                56.6523

                     40                     41                     42
                      A                      A                      A
 Frequencies --    780.4570               798.8825               804.0893
 Red. masses --      4.6050                 1.1552                 7.8784
 Frc consts  --      1.6527                 0.4344                 3.0012
 IR Inten    --      6.2655               128.1848                11.4660

                     43                     44                     45
                      A                      A                      A
 Frequencies --    814.6935               832.7947               910.9712
 Red. masses --      1.7511                 1.2061                 7.8055
 Frc consts  --      0.6848                 0.4928                 3.8165
 IR Inten    --     10.1817                74.8321                31.1941

                     46                     47                     48
                      A                      A                      A
 Frequencies --    916.4283               931.3894               931.9845
 Red. masses --      1.3619                 5.0790                 1.5731
 Frc consts  --      0.6739                 2.5959                 0.8051
 IR Inten    --      0.0301                57.2082                14.3339

                     49                     50                     51
                      A                      A                      A
 Frequencies --    995.2339              1005.1044              1011.2536
 Red. masses --     11.1725                 1.3808                 6.0728
 Frc consts  --      6.5201                 0.8219                 3.6590
 IR Inten    --    249.0826                 1.5049                64.1981

                     52                     53                     54
                      A                      A                      A
 Frequencies --   1021.5551              1052.0452              1107.5017
 Red. masses --      1.3327                 2.4745                 3.7343
 Frc consts  --      0.8194                 1.6136                 2.6987
 IR Inten    --      0.0001                15.8632               163.7907

                     55                     56                     57
                      A                      A                      A
 Frequencies --   1115.9666              1135.3109              1167.1662
 Red. masses --      2.3272                 7.7204                 1.2405
 Frc consts  --      1.7076                 5.8630                 0.9957
 IR Inten    --      8.3193               138.1205                 0.3109

                     58                     59                     60
                      A                      A                      A
 Frequencies --   1179.6255              1184.5563              1186.3819
 Red. masses --      1.8297                 1.3336                 1.1631
 Frc consts  --      1.5001                 1.1025                 0.9646
 IR Inten    --     46.2346                 8.9110                22.5737

                     61                     62                     63
                      A                      A                      A
 Frequencies --   1233.8840              1251.5412              1289.0956
 Red. masses --      2.0774                 2.9093                 2.0488
 Frc consts  --      1.8635                 2.6849                 2.0060
 IR Inten    --     36.8642               341.6827                89.8637

                     64                     65                     66
                      A                      A                      A
 Frequencies --   1310.9796              1330.4786              1342.5084
 Red. masses --      7.0408                10.8462                 2.8242
 Frc consts  --      7.1296                11.3121                 2.9991
 IR Inten    --     98.4559               165.6295                94.8638

                     67                     68                     69
                      A                      A                      A
 Frequencies --   1351.9094              1370.0960              1392.3241
 Red. masses --      4.5202                 4.8605                 2.6400
 Frc consts  --      4.8674                 5.3757                 3.0153
 IR Inten    --    210.0276               260.1979               139.9949

                     70                     71                     72
                      A                      A                      A
 Frequencies --   1423.2660              1459.4373              1466.3242
 Red. masses --      7.5733                 3.0737                 1.1972
 Frc consts  --      9.0387                 3.8573                 1.5166
 IR Inten    --     17.8700               357.5522                28.7480

                     73                     74                     75
                      A                      A                      A
 Frequencies --   1486.0506              1486.6372              1494.9421
 Red. masses --      1.0749                 2.4555                 1.0584
 Frc consts  --      1.3985                 3.1975                 1.3937
 IR Inten    --      6.7655                 4.6682                14.3308

                     76                     77                     78
                      A                      A                      A
 Frequencies --   1504.4402              1509.3986              1600.1745
 Red. masses --      2.7343                 2.8570                 4.1963
 Frc consts  --      3.6463                 3.8350                 6.3308
 IR Inten    --     61.0909                11.5244                83.3341

                     79                     80                     81
                      A                      A                      A
 Frequencies --   1611.8040              1619.1156              1625.5137
 Red. masses --      5.7237                 5.1529                 3.7753
 Frc consts  --      8.7610                 7.9591                 5.8773
 IR Inten    --     16.6304               154.4026                83.7129

                     82                     83                     84
                      A                      A                      A
 Frequencies --   1668.3334              1682.9074              3059.6720
 Red. masses --      8.7780                 8.8278                 1.0285
 Frc consts  --     14.3949                14.7307                 5.6727
 IR Inten    --    268.8626                25.6836                43.1491

                     85                     86                     87
                      A                      A                      A
 Frequencies --   3146.7267              3164.9733              3174.8197
 Red. masses --      1.1071                 1.1083                 1.0874
 Frc consts  --      6.4587                 6.5410                 6.4577
 IR Inten    --     11.1335                 4.1002                 2.7290

                     88                     89                     90
                      A                      A                      A
 Frequencies --   3188.6819              3204.7069              3207.0807
 Red. masses --      1.0921                 1.0927                 1.0948
 Frc consts  --      6.5425                 6.6118                 6.6347
 IR Inten    --     10.5242                 0.5462                 6.1744

                     91                     92                     93
                      A                      A                      A
 Frequencies --   3208.3798              3210.6083              3328.2778
 Red. masses --      1.0788                 1.0822                 1.0678
 Frc consts  --      6.5430                 6.5726                 6.9691
 IR Inten    --     83.5208               168.2963               155.4493

 - Thermochemistry -
 -------------------
 Temperature   298.150 Kelvin.  Pressure   1.00000 Atm.
 Atom     1 has atomic number  6 and mass  12.00000

 Molecular mass:   334.01472 amu.
 Principal axes and moments of inertia in atomic units:
                           1         2         3
     Eigenvalues --  3402.54136********************
           X            0.79769  -0.58055   0.16326
           Y            0.41476   0.72465   0.55032
           Z           -0.43780  -0.37127   0.81883
 This molecule is an asymmetric top.
 Rotational symmetry number  1.
 Warning -- assumption of classical behavior for rotation
           may cause significant error
 Rotational temperatures (Kelvin)      0.02546     0.00716     0.00577
 Rotational constants (GHZ):           0.53041     0.14913     0.12025
 Zero-point vibrational energy     605362.4 (Joules/Mol)
                                  144.68509 (Kcal/Mol)
 Warning -- explicit consideration of  31 degrees of freedom as
           vibrations may cause significant error
 Vibrational temperatures:     46.04    60.63   103.95   110.59   130.44
          (Kelvin)            142.23   178.72   197.09   226.85   255.66
                              291.04   330.42   334.53   362.50   404.06
                              420.16   470.02   504.57   559.47   586.21
                              610.87   616.75   625.38   646.27   673.81
                              698.78   710.16   738.42   760.58   797.39
                              864.65   909.81   951.44   974.45   990.14
                             1009.45  1035.10  1064.79  1073.44  1122.90
                             1149.41  1156.91  1172.16  1198.21  1310.68
                             1318.54  1340.06  1340.92  1431.92  1446.12
                             1454.97  1469.79  1513.66  1593.45  1605.63
                             1633.46  1679.29  1697.22  1704.31  1706.94
                             1775.28  1800.69  1854.72  1886.21  1914.26
                             1931.57  1945.10  1971.26  2003.24  2047.76
                             2099.80  2109.71  2138.10  2138.94  2150.89
                             2164.55  2171.69  2302.29  2319.03  2329.55
                             2338.75  2400.36  2421.33  4402.19  4527.44
                             4553.69  4567.86  4587.80  4610.86  4614.27
                             4616.14  4619.35  4788.65

 Zero-point correction=                           0.230570 (Hartree/Particle)
 Thermal correction to Energy=                    0.249644
 Thermal correction to Enthalpy=                  0.250588
 Thermal correction to Gibbs Free Energy=         0.182749
 Sum of electronic and zero-point Energies=          -1502.432539
 Sum of electronic and thermal Energies=             -1502.413465
 Sum of electronic and thermal Enthalpies=           -1502.412521
 Sum of electronic and thermal Free Energies=        -1502.480360

                     E (Thermal)             CV                S
                      KCal/Mol        Cal/Mol-Kelvin    Cal/Mol-Kelvin
 Total                  156.654             73.567            142.779
 Electronic               0.000              0.000              0.000
 Translational            0.889              2.981             43.313
 Rotational               0.889              2.981             34.779
 Vibrational            154.877             67.605             64.687
 Vibration     1          0.594              1.983              5.701
 Vibration     2          0.595              1.980              5.156
 Vibration     3          0.598              1.967              4.091
 Vibration     4          0.599              1.965              3.969
 Vibration     5          0.602              1.956              3.646
 Vibration     6          0.604              1.950              3.477
 Vibration     7          0.610              1.929              3.034
 Vibration     8          0.614              1.916              2.846
 Vibration     9          0.621              1.894              2.578
 Vibration    10          0.628              1.870              2.352
 Vibration    11          0.639              1.837              2.112
 Vibration    12          0.652              1.796              1.882
 Vibration    13          0.653              1.791              1.859
 Vibration    14          0.664              1.759              1.717
 Vibration    15          0.681              1.709              1.529
 Vibration    16          0.687              1.689              1.462
 Vibration    17          0.710              1.622              1.276
 Vibration    18          0.728              1.574              1.163
 Vibration    19          0.757              1.494              1.005
 Vibration    20          0.772              1.454              0.936
 Vibration    21          0.787              1.417              0.877
 Vibration    22          0.790              1.408              0.863
 Vibration    23          0.795              1.395              0.844
 Vibration    24          0.808              1.363              0.798
 Vibration    25          0.826              1.320              0.742
 Vibration    26          0.842              1.282              0.695
 Vibration    27          0.849              1.264              0.674
 Vibration    28          0.868              1.221              0.626
 Vibration    29          0.884              1.187              0.590
 Vibration    30          0.910              1.130              0.536
 Vibration    31          0.959              1.030              0.448

                           ! Non-Optimized Parameters !
 Normal termination of Gaussian 16 at Fri Dec 22 01:03:31 2023.
