 Q-Chem 5.4, Q-Chem, Inc., Pleasanton, CA (2021)
 Q-Chem 5.4.0 for Intel X86 EM64T Linux

User input:
--------------------------------------------------------------
$molecule
-2 1
C                  5.7947660000     -5.1056190000      1.2602130000
C                  6.7865390000     -5.0510130000      0.3118590000
C                  6.6689280000     -4.1199000000     -0.7826290000
C                  4.6392070000     -4.2784540000      1.2183050000
C                  4.5205450000     -3.3378820000      0.1126650000
C                  5.5378660000     -3.2935300000     -0.8450970000
C                  3.6384000000     -4.3860990000      2.2428970000
C                  2.5208630000     -3.4912150000      2.0798290000
C                  2.3933030000     -2.5759510000      1.0150990000
C                  3.3745840000     -2.4439240000     -0.0236970000
O                  3.7308770000     -5.2185630000      3.2329480000
O                  3.2637440000     -1.6106750000     -0.9984570000
C                  7.6796810000     -4.0490330000     -1.7686810000
N                  8.5326230000     -4.0152600000     -2.5672570000
H                  5.8580630000     -5.7974070000      2.0947810000
H                  7.6582290000     -5.6966040000      0.3712610000
H                  5.4176360000     -2.5814460000     -1.6553240000
C                  1.4436500000     -3.5722070000      3.1371330000
C                  1.1846210000     -1.6728420000      0.9230290000
H                  1.7341750000     -4.3393590000      3.8587000000
H                  0.4617260000     -3.8327570000      2.7127910000
H                  1.3067610000     -2.6167020000      3.6668740000
H                  0.2417970000     -2.2373570000      0.8465100000
H                  1.2910980000     -1.0485540000      0.0327930000
H                  1.0800160000     -1.0181750000      1.8026130000
$end
$rem
MAX_SCF_CYCLES=200
BASIS  =  6-311++G(d,p)
GUI  =  2
JOB_TYPE  =  SP
METHOD  =  B3LYP
SOLVENT_METHOD = PCM
$end
$pcm
theory = CPCM
$end
$solvent
dielectric 37.219
opticaldielectric 1.43
$end

--------------------------------------------------------------

             Standard Nuclear Orientation (Angstroms)
    I     Atom           X                Y                Z
 ----------------------------------------------------------------
    1      C       5.7947660000    -5.1056190000     1.2602130000
    2      C       6.7865390000    -5.0510130000     0.3118590000
    3      C       6.6689280000    -4.1199000000    -0.7826290000
    4      C       4.6392070000    -4.2784540000     1.2183050000
    5      C       4.5205450000    -3.3378820000     0.1126650000
    6      C       5.5378660000    -3.2935300000    -0.8450970000
    7      C       3.6384000000    -4.3860990000     2.2428970000
    8      C       2.5208630000    -3.4912150000     2.0798290000
    9      C       2.3933030000    -2.5759510000     1.0150990000
   10      C       3.3745840000    -2.4439240000    -0.0236970000
   11      O       3.7308770000    -5.2185630000     3.2329480000
   12      O       3.2637440000    -1.6106750000    -0.9984570000
   13      C       7.6796810000    -4.0490330000    -1.7686810000
   14      N       8.5326230000    -4.0152600000    -2.5672570000
   15      H       5.8580630000    -5.7974070000     2.0947810000
   16      H       7.6582290000    -5.6966040000     0.3712610000
   17      H       5.4176360000    -2.5814460000    -1.6553240000
   18      C       1.4436500000    -3.5722070000     3.1371330000
   19      C       1.1846210000    -1.6728420000     0.9230290000
   20      H       1.7341750000    -4.3393590000     3.8587000000
   21      H       0.4617260000    -3.8327570000     2.7127910000
   22      H       1.3067610000    -2.6167020000     3.6668740000
   23      H       0.2417970000    -2.2373570000     0.8465100000
   24      H       1.2910980000    -1.0485540000     0.0327930000
   25      H       1.0800160000    -1.0181750000     1.8026130000
 ----------------------------------------------------------------

    9    -706.4492503063      6.40e-06  Convergence criterion met
 Total energy in the final basis set =     -706.4492503063

                    Orbital Energies (a.u.)
 --------------------------------------------------------------

 Alpha MOs
 -- Occupied --
-19.0282 -19.0199 -14.3035 -10.2092 -10.1858 -10.1818 -10.1735 -10.1687
-10.1620 -10.1532 -10.1466 -10.1417 -10.1398 -10.1373 -10.1369 -10.1349
 -0.9461  -0.9346  -0.9029  -0.8393  -0.7888  -0.7488  -0.7367  -0.7013
 -0.6636  -0.6401  -0.5936  -0.5751  -0.5369  -0.5093  -0.4806  -0.4471
 -0.4417  -0.4118  -0.4105  -0.3976  -0.3905  -0.3861  -0.3743  -0.3728
 -0.3646  -0.3626  -0.3583  -0.3552  -0.3431  -0.3276  -0.3224  -0.3157
 -0.3071  -0.3065  -0.2417  -0.2300  -0.2100  -0.2095  -0.1984  -0.1192

          Ground-State Mulliken Net Atomic Charges

     Atom                 Charge (a.u.)
  ----------------------------------------
      1 C                    -0.055678
      2 C                    -0.735487
      3 C                     1.291561
      4 C                     0.108272
      5 C                    -0.119558
      6 C                     0.205784
      7 C                    -0.498822
      8 C                     0.390743
      9 C                     0.629849
     10 C                    -0.537394
     11 O                    -0.715687
     12 O                    -0.670046
     13 C                    -1.375347
     14 N                    -0.372128
     15 H                     0.145228
     16 H                     0.197125
     17 H                     0.168637
     18 C                    -0.489369
     19 C                    -0.471350
     20 H                     0.168767
     21 H                     0.143263
     22 H                     0.143572
     23 H                     0.142268
     24 H                     0.163925
     25 H                     0.141873
  ----------------------------------------
  Sum of atomic charges =    -2.000000

                    Cartesian Multipole Moments
 -----------------------------------------------------------------
    Charge (ESU x 10^10)
                -9.6064
    Dipole Moment (Debye)
         X     -43.8700      Y      34.6919      Z      -4.0733
       Tot      56.0776
    Quadrupole Moments (Debye-Ang)
        XX    -344.1539     XY     165.1571     YY    -250.8806
        XZ       9.0718     YZ      38.1025     ZZ    -159.1132

 Total job time:  39.76s(wall), 273.38s(cpu)
        *  Thank you very much for using Q-Chem.  Have a nice day.  *
