 Gaussian 16, Revision A.03,
 Gaussian 16:  ES64L-G16RevA.03 25-Dec-2016

 --------------------------------------
 #P UB3LYP/6-311++G(d,p) nosym opt freq
 --------------------------------------

 -------
 Reduced
 -------
 Symbolic Z-matrix:
 Charge = -2 Multiplicity = 1

 SCF Done:  E(UB3LYP) =  -706.189024177     A.U. after   24 cycles
 SCF Done:  E(UB3LYP) =  -706.189024298     A.U. after   14 cycles
 SCF Done:  E(UB3LYP) =  -706.189024561     A.U. after   15 cycles
 SCF Done:  E(UB3LYP) =  -706.189024983     A.U. after   16 cycles
 SCF Done:  E(UB3LYP) =  -706.189026433     A.U. after   17 cycles
 SCF Done:  E(UB3LYP) =  -706.146589471     A.U. after   20 cycles
 SCF Done:  E(UB3LYP) =  -706.189251297     A.U. after   20 cycles
 SCF Done:  E(UB3LYP) =  -706.169209809     A.U. after   20 cycles
 SCF Done:  E(UB3LYP) =  -706.187147149     A.U. after   19 cycles
 SCF Done:  E(UB3LYP) =  -706.189297325     A.U. after   14 cycles
 SCF Done:  E(UB3LYP) =  -706.189804871     A.U. after   16 cycles
 SCF Done:  E(UB3LYP) =  -706.189814657     A.U. after   17 cycles
 SCF Done:  E(UB3LYP) =  -706.189821469     A.U. after   16 cycles
 SCF Done:  E(UB3LYP) =  -706.189831203     A.U. after   17 cycles
 SCF Done:  E(UB3LYP) =  -706.189844540     A.U. after   17 cycles
 SCF Done:  E(UB3LYP) =  -706.189848139     A.U. after   16 cycles
 SCF Done:  E(UB3LYP) =  -706.189849305     A.U. after   15 cycles
 SCF Done:  E(UB3LYP) =  -706.189849380     A.U. after   14 cycles
 SCF Done:  E(UB3LYP) =  -706.189849402     A.U. after   14 cycles
 Optimization completed.
    -- Stationary point found.
 Normal termination of Gaussian 16 at Mon Jan 15 17:49:10 2024.

 ----------------------------------------------------------------------
 #P Geom=AllCheck Guess=TCheck SCRF=Check GenChk UB3LYP/6-311++G(d,p) F
 req
 ----------------------------------------------------------------------

 Structure from the checkpoint file:  "228-an.chk"
 -------
 Reduced
 -------
 Charge = -2 Multiplicity = 1

                          Input orientation:
 ---------------------------------------------------------------------
 Center     Atomic      Atomic             Coordinates (Angstroms)
 Number     Number       Type             X           Y           Z
 ---------------------------------------------------------------------
      1          6           0        5.794766   -5.105619    1.260213
      2          6           0        6.786539   -5.051013    0.311859
      3          6           0        6.668928   -4.119900   -0.782629
      4          6           0        4.639207   -4.278454    1.218305
      5          6           0        4.520545   -3.337882    0.112665
      6          6           0        5.537866   -3.293530   -0.845097
      7          6           0        3.638400   -4.386099    2.242897
      8          6           0        2.520863   -3.491215    2.079829
      9          6           0        2.393303   -2.575951    1.015099
     10          6           0        3.374584   -2.443924   -0.023697
     11          8           0        3.730877   -5.218563    3.232948
     12          8           0        3.263744   -1.610675   -0.998457
     13          6           0        7.679681   -4.049033   -1.768681
     14          7           0        8.532623   -4.015260   -2.567257
     15          1           0        5.858063   -5.797407    2.094781
     16          1           0        7.658229   -5.696604    0.371261
     17          1           0        5.417636   -2.581446   -1.655324
     18          6           0        1.443650   -3.572207    3.137133
     19          6           0        1.184621   -1.672842    0.923029
     20          1           0        1.734175   -4.339359    3.858700
     21          1           0        0.461726   -3.832757    2.712791
     22          1           0        1.306761   -2.616702    3.666874
     23          1           0        0.241797   -2.237357    0.846510
     24          1           0        1.291098   -1.048554    0.032793
     25          1           0        1.080016   -1.018175    1.802613
 ---------------------------------------------------------------------

 SCF Done:  E(UB3LYP) =  -706.189849402     A.U. after    1 cycles

 Alpha  occ. eigenvalues --  -18.78129 -18.76901 -14.07294  -9.97818  -9.95001
 Alpha  occ. eigenvalues --   -9.94129  -9.93219  -9.93121  -9.93069  -9.92269
 Alpha  occ. eigenvalues --   -9.92135  -9.91896  -9.90659  -9.90525  -9.90055
 Alpha  occ. eigenvalues --   -9.89953  -0.69823  -0.68362  -0.67283  -0.60220
 Alpha  occ. eigenvalues --   -0.55523  -0.51397  -0.50103  -0.47794  -0.43336
 Alpha  occ. eigenvalues --   -0.40492  -0.36093  -0.34225  -0.30176  -0.27433
 Alpha  occ. eigenvalues --   -0.24822  -0.21275  -0.20800  -0.19059  -0.17608
 Alpha  occ. eigenvalues --   -0.16405  -0.15913  -0.15486  -0.15298  -0.14289
 Alpha  occ. eigenvalues --   -0.14084  -0.13129  -0.11781  -0.11320  -0.11239
 Alpha  occ. eigenvalues --   -0.09652  -0.08275  -0.07598  -0.06796  -0.06634
 Alpha  occ. eigenvalues --   -0.00265   0.01525   0.02701   0.04011   0.05188
 Alpha  occ. eigenvalues --    0.12659
 Alpha virt. eigenvalues --    0.16715   0.17910   0.18602   0.19740   0.20115
 Alpha virt. eigenvalues --    0.20244   0.21086   0.21949   0.22308   0.22965
 Alpha virt. eigenvalues --    0.23013   0.24208   0.24569   0.24997   0.25349

  Beta  occ. eigenvalues --  -18.78129 -18.76901 -14.07294  -9.97818  -9.95001
  Beta  occ. eigenvalues --   -9.94129  -9.93219  -9.93121  -9.93069  -9.92269
  Beta  occ. eigenvalues --   -9.92135  -9.91896  -9.90659  -9.90525  -9.90055
  Beta  occ. eigenvalues --   -9.89953  -0.69823  -0.68362  -0.67283  -0.60220
  Beta  occ. eigenvalues --   -0.55523  -0.51397  -0.50103  -0.47794  -0.43336
  Beta  occ. eigenvalues --   -0.40492  -0.36093  -0.34225  -0.30176  -0.27433
  Beta  occ. eigenvalues --   -0.24822  -0.21275  -0.20800  -0.19059  -0.17608
  Beta  occ. eigenvalues --   -0.16405  -0.15913  -0.15486  -0.15298  -0.14289
  Beta  occ. eigenvalues --   -0.14084  -0.13129  -0.11781  -0.11320  -0.11239
  Beta  occ. eigenvalues --   -0.09652  -0.08275  -0.07598  -0.06796  -0.06634
  Beta  occ. eigenvalues --   -0.00265   0.01525   0.02701   0.04011   0.05188
  Beta  occ. eigenvalues --    0.12659
  Beta virt. eigenvalues --    0.16715   0.17910   0.18602   0.19740   0.20115
  Beta virt. eigenvalues --    0.20244   0.21086   0.21949   0.22308   0.22965
  Beta virt. eigenvalues --    0.23013   0.24208   0.24569   0.24997   0.25349

 Mulliken charges and spin densities:
               1          2
     1  C   -0.000729  -0.000000
     2  C   -0.710007  -0.000000
     3  C    1.344848  -0.000000
     4  C    0.301815  -0.000000
     5  C   -0.001994   0.000000
     6  C    0.225532   0.000000
     7  C   -0.910986  -0.000000
     8  C    0.594067  -0.000000
     9  C    0.832253   0.000000
    10  C   -0.860400  -0.000000
    11  O   -0.546859   0.000000
    12  O   -0.511753  -0.000000
    13  C   -1.397812   0.000000
    14  N   -0.357408  -0.000000
    15  H    0.125770   0.000000
    16  H    0.100604  -0.000000
    17  H    0.148050   0.000000
    18  C   -0.543826   0.000000
    19  C   -0.521869   0.000000
    20  H    0.187056   0.000000
    21  H    0.081257  -0.000000
    22  H    0.081022  -0.000000
    23  H    0.080235   0.000000
    24  H    0.180555   0.000000
    25  H    0.080578   0.000000
 Sum of Mulliken charges =  -2.00000  -0.00000

 Dipole moment (field-independent basis, Debye):
    X=            -44.3534    Y=             34.8760    Z=             -3.8788  Tot=             56.5562
 Quadrupole moment (field-independent basis, Debye-Ang):
   XX=           -365.4270   YY=           -253.7057   ZZ=           -160.2859
   XY=            173.2394   XZ=             16.4430   YZ=             32.8996

  Exact polarizability: 345.903 -73.871 180.687-105.405 -13.519 230.195
 Approx polarizability: 624.479-153.612 300.653-199.046 -24.198 383.702

                      1                      2                      3
                      A                      A                      A
 Frequencies --     53.8861                62.0160                93.3457
 Red. masses --      5.9572                 1.0920                 5.9355
 Frc consts  --      0.0102                 0.0025                 0.0305
 IR Inten    --      0.2938                 0.0026                11.8955

                      4                      5                      6
                      A                      A                      A
 Frequencies --    125.6242               128.4873               134.8445
 Red. masses --      9.6874                 2.6212                 1.1810
 Frc consts  --      0.0901                 0.0255                 0.0127
 IR Inten    --      2.1854                 2.9532                 0.5840

                      7                      8                      9
                      A                      A                      A
 Frequencies --    161.9052               202.6683               261.2286
 Red. masses --      3.8326                 5.4904                 5.4276
 Frc consts  --      0.0592                 0.1329                 0.2182
 IR Inten    --      3.3066                 0.0122                12.3797

                     10                     11                     12
                      A                      A                      A
 Frequencies --    295.1661               308.2884               337.5292
 Red. masses --      4.4342                 3.3086                 4.3172
 Frc consts  --      0.2276                 0.1853                 0.2898
 IR Inten    --      0.1853                 8.2550                 0.7567

                     13                     14                     15
                      A                      A                      A
 Frequencies --    339.0454               387.6255               401.7164
 Red. masses --      4.9503                 6.7326                 7.6183
 Frc consts  --      0.3353                 0.5960                 0.7244
 IR Inten    --      0.0243                 0.0092                 0.1606

                     16                     17                     18
                      A                      A                      A
 Frequencies --    429.7738               452.4875               486.5543
 Red. masses --      6.1296                 3.3174                 5.4064
 Frc consts  --      0.6671                 0.4002                 0.7541
 IR Inten    --     18.2939                 1.8116                 1.3109

                     19                     20                     21
                      A                      A                      A
 Frequencies --    497.7919               557.0702               577.1130
 Red. masses --     10.3399                 6.0971                 6.3423
 Frc consts  --      1.5096                 1.1148                 1.2446
 IR Inten    --     10.5497                16.2579                10.3895

                     22                     23                     24
                      A                      A                      A
 Frequencies --    587.3590               657.0792               666.1357
 Red. masses --      7.4607                 4.7079                 4.6577
 Frc consts  --      1.5165                 1.1976                 1.2177
 IR Inten    --      9.3467                 3.8915                 3.7651

                     25                     26                     27
                      A                      A                      A
 Frequencies --    681.3998               710.7262               732.3280
 Red. masses --      7.0001                 3.1929                 4.8180
 Frc consts  --      1.9150                 0.9502                 1.5224
 IR Inten    --     15.6362                22.4988                14.8287

                     28                     29                     30
                      A                      A                      A
 Frequencies --    752.2008               807.7504               864.8085
 Red. masses --      1.9756                 4.5822                 3.9890
 Frc consts  --      0.6586                 1.7615                 1.7577
 IR Inten    --     10.0233                 6.1724                 4.8364

                     31                     32                     33
                      A                      A                      A
 Frequencies --    911.8171               950.7797               966.6023
 Red. masses --      2.7970                 1.3862                 1.3005
 Frc consts  --      1.3701                 0.7383                 0.7159
 IR Inten    --     21.1984                 8.0668                 2.4401

                     34                     35                     36
                      A                      A                      A
 Frequencies --    987.9604              1006.3943              1024.8795
 Red. masses --      2.7219                 1.9328                 1.4089
 Frc consts  --      1.5653                 1.1534                 0.8719
 IR Inten    --     15.6365                27.3733                 0.0411

                     37                     38                     39
                      A                      A                      A
 Frequencies --   1047.4533              1092.9165              1105.4959
 Red. masses --      1.5161                 2.7183                 1.9004
 Frc consts  --      0.9800                 1.9130                 1.3684
 IR Inten    --      0.0396                73.1647               125.4898

                     40                     41                     42
                      A                      A                      A
 Frequencies --   1125.5173              1187.1816              1199.9428
 Red. masses --      2.0332                 3.7859                 3.9771
 Frc consts  --      1.5175                 3.1438                 3.3739
 IR Inten    --      8.9717               250.3274               121.6773

                     43                     44                     45
                      A                      A                      A
 Frequencies --   1220.0000              1267.0899              1329.9094
 Red. masses --      3.3187                 2.0048                 4.1068
 Frc consts  --      2.9103                 1.8964                 4.2795
 IR Inten    --    423.8857                11.2425               290.4123

                     46                     47                     48
                      A                      A                      A
 Frequencies --   1338.2437              1355.1196              1389.8916
 Red. masses --      1.4295                 1.5675                 3.8952
 Frc consts  --      1.5083                 1.6960                 4.4335
 IR Inten    --    134.8268                 7.1939               125.1206

                     49                     50                     51
                      A                      A                      A
 Frequencies --   1412.8305              1429.3490              1449.7874
 Red. masses --      3.7821                 3.8296                 3.0250
 Frc consts  --      4.4480                 4.6098                 3.7462
 IR Inten    --    116.1512               643.0401                94.1463

                     52                     53                     54
                      A                      A                      A
 Frequencies --   1471.1740              1474.3240              1476.0900
 Red. masses --      1.9188                 2.4350                 1.2726
 Frc consts  --      2.4469                 3.1184                 1.6337
 IR Inten    --     55.4101                16.5297                42.8840

                     55                     56                     57
                      A                      A                      A
 Frequencies --   1486.2425              1502.2019              1502.8634
 Red. masses --      1.0532                 3.1841                 1.0840
 Frc consts  --      1.3706                 4.2334                 1.4426
 IR Inten    --      0.0092               176.1049                11.9619

                     58                     59                     60
                      A                      A                      A
 Frequencies --   1533.0687              1595.4063              2208.9554
 Red. masses --      6.3516                 7.1080                12.6451
 Frc consts  --      8.7954                10.6595                36.3534
 IR Inten    --    434.3093                30.2995              1496.8905

                     61                     62                     63
                      A                      A                      A
 Frequencies --   2937.6455              2946.0606              2947.8111
 Red. masses --      1.0423                 1.0925                 1.0457
 Frc consts  --      5.2997                 5.5865                 5.3535
 IR Inten    --     85.1580                74.1023               515.1039

                     64                     65                     66
                      A                      A                      A
 Frequencies --   2964.3269              3077.9646              3078.7330
 Red. masses --      1.0978                 1.0918                 1.0917
 Frc consts  --      5.6836                 6.0942                 6.0969
 IR Inten    --    194.3679                 4.2080                21.4661

                     67                     68                     69
                      A                      A                      A
 Frequencies --   3131.8210              3160.0437              3164.9331
 Red. masses --      1.0856                 1.0922                 1.0893
 Frc consts  --      6.2738                 6.4259                 6.4289
 IR Inten    --     22.3441                39.0579                 6.5739

 - Thermochemistry -
 -------------------
 Temperature   298.150 Kelvin.  Pressure   1.00000 Atm.
 Atom     1 has atomic number  6 and mass  12.00000

 Molecular mass:   211.06333 amu.
 Principal axes and moments of inertia in atomic units:
                           1         2         3
     Eigenvalues --  1781.672394905.829746665.16562
           X            0.83236  -0.28181   0.47724
           Y           -0.16025   0.70194   0.69397
           Z           -0.53056  -0.65411   0.53911
 This molecule is an asymmetric top.
 Rotational symmetry number  1.
 Warning -- assumption of classical behavior for rotation
           may cause significant error
 Rotational temperatures (Kelvin)      0.04861     0.01766     0.01300
 Rotational constants (GHZ):           1.01295     0.36788     0.27077
 Zero-point vibrational energy     473797.7 (Joules/Mol)
                                  113.24036 (Kcal/Mol)
 Warning -- explicit consideration of  22 degrees of freedom as
           vibrations may cause significant error
 Vibrational temperatures:     77.53    89.23   134.30   180.75   184.86
          (Kelvin)            194.01   232.95   291.59   375.85   424.68
                              443.56   485.63   487.81   557.71   577.98
                              618.35   651.03   700.04   716.21   801.50
                              830.34   845.08   945.39   958.42   980.38
                             1022.58  1053.66  1082.25  1162.17  1244.27
                             1311.90  1367.96  1390.73  1421.45  1447.98
                             1474.57  1507.05  1572.46  1590.56  1619.37
                             1708.09  1726.45  1755.31  1823.06  1913.44
                             1925.43  1949.71  1999.74  2032.75  2056.51
                             2085.92  2116.69  2121.22  2123.76  2138.37
                             2161.33  2162.29  2205.74  2295.43  3178.19
                             4226.62  4238.72  4241.24  4265.01  4428.50
                             4429.61  4505.99  4546.60  4553.63

 Zero-point correction=                           0.180460 (Hartree/Particle)
 Thermal correction to Energy=                    0.194434
 Thermal correction to Enthalpy=                  0.195378
 Thermal correction to Gibbs Free Energy=         0.139609
 Sum of electronic and zero-point Energies=           -706.009389
 Sum of electronic and thermal Energies=              -705.995416
 Sum of electronic and thermal Enthalpies=            -705.994472
 Sum of electronic and thermal Free Energies=         -706.050241

                     E (Thermal)             CV                S
                      KCal/Mol        Cal/Mol-Kelvin    Cal/Mol-Kelvin
 Total                  122.009             53.090            117.376
 Electronic               0.000              0.000              0.000
 Translational            0.889              2.981             41.945
 Rotational               0.889              2.981             32.432
 Vibrational            120.231             47.128             42.999
 Vibration     1          0.596              1.976              4.669
 Vibration     2          0.597              1.972              4.392
 Vibration     3          0.602              1.954              3.589
 Vibration     4          0.611              1.927              3.012
 Vibration     5          0.611              1.925              2.969
 Vibration     6          0.613              1.919              2.876
 Vibration     7          0.622              1.889              2.527
 Vibration     8          0.639              1.836              2.109
 Vibration     9          0.669              1.744              1.654
 Vibration    10          0.689              1.683              1.444
 Vibration    11          0.698              1.658              1.372
 Vibration    12          0.718              1.601              1.224
 Vibration    13          0.719              1.597              1.217
 Vibration    14          0.756              1.497              1.009
 Vibration    15          0.767              1.466              0.956
 Vibration    16          0.791              1.405              0.859
 Vibration    17          0.811              1.355              0.788
 Vibration    18          0.843              1.280              0.693
 Vibration    19          0.853              1.255              0.664
 Vibration    20          0.913              1.124              0.530
 Vibration    21          0.934              1.081              0.491
 Vibration    22          0.944              1.059              0.472

 Optimization completed.
    -- Stationary point found.
 Normal termination of Gaussian 16 at Mon Jan 15 18:09:14 2024.
