 Q-Chem 5.4, Q-Chem, Inc., Pleasanton, CA (2021)
 Q-Chem 5.4.0 for Intel X86 EM64T Linux

User input:
--------------------------------------------------------------
$molecule
-1 2
C                 -3.5119920000      0.6853210000     -0.1981900000
O                 -2.7659420000     -0.5094320000     -0.1918940000
C                 -1.4157260000     -0.4190510000      0.0438260000
C                 -0.7500320000      0.7603920000      0.2675580000
C                  0.6713780000      0.8332870000      0.5288020000
O                  1.2521490000      1.9310270000      0.7760290000
C                  1.3661830000     -0.4463080000      0.4962640000
C                  0.6987410000     -1.6241320000      0.2734130000
C                 -0.7213040000     -1.7105780000      0.0394630000
O                 -1.3191220000     -2.8006640000     -0.1630680000
O                  2.7209080000     -0.5135680000      0.7812190000
C                  3.5686190000      0.2795640000     -0.0465100000
H                 -4.5452110000      0.3969040000     -0.4005290000
H                 -3.1696970000      1.3773910000     -0.9793600000
H                 -3.4633930000      1.2031550000      0.7690370000
H                 -1.2627440000      1.7145520000      0.2827080000
H                  1.2515830000     -2.5576010000      0.2761970000
H                  3.5069210000     -0.0557150000     -1.0917900000
H                  3.3019880000      1.3356440000      0.0209420000
H                  4.5866930000      0.1198110000      0.3176780000
$end
$rem
MAX_SCF_CYCLES=200
BASIS  =  6-311++G(d,p)
GUI  =  2
JOB_TYPE  =  SP
METHOD  =  B3LYP
SOLVENT_METHOD = PCM
$end
$pcm
theory = CPCM
$end
$solvent
dielectric 37.219
opticaldielectric 1.43
$end

--------------------------------------------------------------

             Standard Nuclear Orientation (Angstroms)
    I     Atom           X                Y                Z
 ----------------------------------------------------------------
    1      C      -3.5119920000     0.6853210000    -0.1981900000
    2      O      -2.7659420000    -0.5094320000    -0.1918940000
    3      C      -1.4157260000    -0.4190510000     0.0438260000
    4      C      -0.7500320000     0.7603920000     0.2675580000
    5      C       0.6713780000     0.8332870000     0.5288020000
    6      O       1.2521490000     1.9310270000     0.7760290000
    7      C       1.3661830000    -0.4463080000     0.4962640000
    8      C       0.6987410000    -1.6241320000     0.2734130000
    9      C      -0.7213040000    -1.7105780000     0.0394630000
   10      O      -1.3191220000    -2.8006640000    -0.1630680000
   11      O       2.7209080000    -0.5135680000     0.7812190000
   12      C       3.5686190000     0.2795640000    -0.0465100000
   13      H      -4.5452110000     0.3969040000    -0.4005290000
   14      H      -3.1696970000     1.3773910000    -0.9793600000
   15      H      -3.4633930000     1.2031550000     0.7690370000
   16      H      -1.2627440000     1.7145520000     0.2827080000
   17      H       1.2515830000    -2.5576010000     0.2761970000
   18      H       3.5069210000    -0.0557150000    -1.0917900000
   19      H       3.3019880000     1.3356440000     0.0209420000
   20      H       4.5866930000     0.1198110000     0.3176780000
 ----------------------------------------------------------------

    9    -610.8410402116      7.54e-06  Convergence criterion met
 Total energy in the final basis set =     -610.8410402116

                    Orbital Energies (a.u.)
 --------------------------------------------------------------

 Alpha MOs
 -- Occupied --
-19.1550 -19.1390 -19.0806 -19.0786 -10.2283 -10.2260 -10.2258 -10.2199
-10.2132 -10.2030 -10.1587 -10.1583  -1.0700  -1.0519  -1.0014  -0.9968
 -0.8230  -0.7534  -0.7141  -0.6935  -0.6534  -0.5985  -0.5696  -0.5138
 -0.5054  -0.4945  -0.4688  -0.4560  -0.4429  -0.4394  -0.4144  -0.4117
 -0.4071  -0.4032  -0.3797  -0.3747  -0.3498  -0.3382  -0.3321  -0.2992
 -0.2682  -0.2477  -0.2416  -0.2297  -0.1605

 Beta MOs
 -- Occupied --
-19.1541 -19.1386 -19.0740 -19.0724 -10.2266 -10.2242 -10.2240 -10.2179
-10.2132 -10.2029 -10.1584 -10.1584  -1.0679  -1.0502  -0.9898  -0.9860
 -0.8172  -0.7511  -0.7116  -0.6898  -0.6470  -0.5949  -0.5664  -0.5122
 -0.5032  -0.4916  -0.4648  -0.4525  -0.4417  -0.4372  -0.4101  -0.4075
 -0.4030  -0.3890  -0.3742  -0.3534  -0.3464  -0.3366  -0.3213  -0.2933
 -0.2443  -0.2409  -0.2358  -0.2233

          Ground-State Mulliken Net Atomic Charges

     Atom                 Charge (a.u.)    Spin (a.u.)
  --------------------------------------------------------
      1 C                    -0.325238      -0.000370
      2 O                    -0.217793       0.019494
      3 C                    -0.269842       0.168629
      4 C                     0.646003      -0.020998
      5 C                    -0.380067       0.097604
      6 O                    -0.523374       0.225040
      7 C                    -0.294379       0.155673
      8 C                     0.671500       0.017981
      9 C                    -0.687913       0.088619
     10 O                    -0.532185       0.240068
     11 O                    -0.241130       0.004770
     12 C                    -0.301669       0.007401
     13 H                     0.199330      -0.000191
     14 H                     0.166575       0.001843
     15 H                     0.166293       0.001837
     16 H                     0.229765      -0.002635
     17 H                     0.221332      -0.005234
     18 H                     0.140347       0.000639
     19 H                     0.175636      -0.001303
     20 H                     0.156807       0.001136
  --------------------------------------------------------
  Sum of atomic charges =    -1.000000

                    Cartesian Multipole Moments
 -----------------------------------------------------------------
    Charge (ESU x 10^10)
                -4.8032
    Dipole Moment (Debye)
         X      -0.4995      Y       5.0071      Z      -2.7288
       Tot       5.7242
    Quadrupole Moments (Debye-Ang)
        XX     -75.5337     XY     -20.3541     YY    -105.2050
        XZ      -7.4750     YZ      -5.2966     ZZ     -77.0496

 Total job time:  22.66s(wall), 157.94s(cpu)
        *  Thank you very much for using Q-Chem.  Have a nice day.  *
