 Gaussian 16, Revision A.03,
 Gaussian 16:  ES64L-G16RevA.03 25-Dec-2016

 ----------------------------------------------------------------
 #P UB3LYP/6-311++G(d,p) SCRF=(PCM,Solvent=n,n-DiMethylFormamide)
 ----------------------------------------------------------------

 ------------------
 Quinone PCM in DMF
 ------------------
 Symbolic Z-matrix:
 Charge =  0 Multiplicity = 1

                         Standard orientation:
 ---------------------------------------------------------------------
 Center     Atomic      Atomic             Coordinates (Angstroms)
 Number     Number       Type             X           Y           Z
 ---------------------------------------------------------------------
      1          6           0       -2.679264   -2.588570    0.507042
      2          8           0       -2.460798   -1.307362   -0.116009
      3          6           0       -1.272503   -0.685330   -0.030670
      4          6           0       -1.272552    0.685267    0.030518
      5          8           0       -2.460864    1.307204    0.115469
      6          6           0       -2.679136    2.588784   -0.506917
      7          6           0       -0.005895    1.449696    0.160822
      8          8           0       -0.018696    2.653700    0.372595
      9          6           0        1.278822    0.697305    0.065110
     10          6           0        2.487579    1.390475    0.134126
     11          6           0        3.692141    0.694619    0.066689
     12          6           0        3.692168   -0.694539   -0.066914
     13          6           0        2.487613   -1.390433   -0.134169
     14          6           0        1.278848   -0.697308   -0.065024
     15          6           0       -0.005874   -1.449762   -0.160614
     16          8           0       -0.018573   -2.653820   -0.372111
     17          1           0       -2.316845   -3.397571   -0.123184
     18          1           0       -2.189755   -2.634201    1.482356
     19          1           0       -3.758849   -2.653212    0.637690
     20          1           0       -2.317699    3.397444    0.124285
     21          1           0       -3.758608    2.653114   -0.638687
     22          1           0       -2.188612    2.635258   -1.481674
     23          1           0        2.464317    2.467870    0.241145
     24          1           0        4.630720    1.234427    0.119558
     25          1           0        4.630763   -1.234304   -0.119896
     26          1           0        2.464343   -2.467831   -0.241147
 ---------------------------------------------------------------------

 SCF Done:  E(UB3LYP) =  -764.373448903     A.U. after   15 cycles

 The electronic state is 1-A.
 Alpha  occ. eigenvalues --  -19.17146 -19.17143 -19.13631 -19.13630 -10.28919
 Alpha  occ. eigenvalues --  -10.28917 -10.26418 -10.26355 -10.22497 -10.22495
 Alpha  occ. eigenvalues --  -10.21041 -10.20989 -10.19972 -10.19965 -10.19912
 Alpha  occ. eigenvalues --  -10.19867  -1.10338  -1.08508  -1.06556  -1.05972
 Alpha  occ. eigenvalues --   -0.89305  -0.83698  -0.78274  -0.78076  -0.73556
 Alpha  occ. eigenvalues --   -0.71190  -0.68719  -0.63773  -0.63193  -0.59643
 Alpha  occ. eigenvalues --   -0.56802  -0.54999  -0.53261  -0.50262  -0.49880
 Alpha  occ. eigenvalues --   -0.49643  -0.47272  -0.47027  -0.46661  -0.45572
 Alpha  occ. eigenvalues --   -0.45460  -0.44699  -0.44036  -0.42377  -0.41748
 Alpha  occ. eigenvalues --   -0.38856  -0.38759  -0.37452  -0.37399  -0.37085
 Alpha  occ. eigenvalues --   -0.34149  -0.33569  -0.28833  -0.28404  -0.28112
 Alpha  occ. eigenvalues --   -0.27977  -0.24220
 Alpha virt. eigenvalues --   -0.12543  -0.05632  -0.02839  -0.00859   0.00223
 Alpha virt. eigenvalues --    0.00561   0.01847   0.01930   0.02288   0.02398
 Alpha virt. eigenvalues --    0.02904   0.03632   0.04309   0.04610   0.05561

  Beta  occ. eigenvalues --  -19.17146 -19.17143 -19.13631 -19.13630 -10.28919
  Beta  occ. eigenvalues --  -10.28917 -10.26418 -10.26355 -10.22497 -10.22495
  Beta  occ. eigenvalues --  -10.21041 -10.20989 -10.19972 -10.19965 -10.19912
  Beta  occ. eigenvalues --  -10.19867  -1.10338  -1.08508  -1.06556  -1.05972
  Beta  occ. eigenvalues --   -0.89305  -0.83698  -0.78274  -0.78076  -0.73556
  Beta  occ. eigenvalues --   -0.71190  -0.68719  -0.63773  -0.63193  -0.59643
  Beta  occ. eigenvalues --   -0.56802  -0.54999  -0.53261  -0.50262  -0.49880
  Beta  occ. eigenvalues --   -0.49643  -0.47272  -0.47027  -0.46661  -0.45572
  Beta  occ. eigenvalues --   -0.45460  -0.44699  -0.44036  -0.42377  -0.41748
  Beta  occ. eigenvalues --   -0.38856  -0.38759  -0.37452  -0.37399  -0.37085
  Beta  occ. eigenvalues --   -0.34149  -0.33569  -0.28833  -0.28404  -0.28112
  Beta  occ. eigenvalues --   -0.27977  -0.24220
  Beta virt. eigenvalues --   -0.12543  -0.05632  -0.02839  -0.00859   0.00223
  Beta virt. eigenvalues --    0.00561   0.01847   0.01930   0.02288   0.02398
  Beta virt. eigenvalues --    0.02904   0.03632   0.04309   0.04610   0.05561

 Mulliken charges and spin densities:
               1          2
     1  C   -0.308073   0.000000
     2  O   -0.183254   0.000000
     3  C   -0.053661  -0.000000
     4  C   -0.052883   0.000000
     5  O   -0.183235  -0.000000
     6  C   -0.308051   0.000000
     7  C   -0.567796  -0.000000
     8  O   -0.273920   0.000000
     9  C    0.607471   0.000000
    10  C    0.194929  -0.000000
    11  C   -0.347528   0.000000
    12  C   -0.347426  -0.000000
    13  C    0.195345  -0.000000
    14  C    0.608187  -0.000000
    15  C   -0.567936  -0.000000
    16  O   -0.273931  -0.000000
    17  H    0.189554  -0.000000
    18  H    0.179645  -0.000000
    19  H    0.165121   0.000000
    20  H    0.189565   0.000000
    21  H    0.165124   0.000000
    22  H    0.179675  -0.000000
    23  H    0.185396  -0.000000
    24  H    0.211143   0.000000
    25  H    0.211147  -0.000000
    26  H    0.185391   0.000000
 Sum of Mulliken charges =  -0.00000  -0.00000

 Dipole moment (field-independent basis, Debye):
    X=              2.0640    Y=              0.0024    Z=              0.0001  Tot=              2.0640
 Quadrupole moment (field-independent basis, Debye-Ang):
   XX=            -75.0153   YY=            -95.4613   ZZ=            -93.1368
   XY=             -0.0032   XZ=             -0.0032   YZ=             -7.2359

 Normal termination of Gaussian 16 at Sun Jan 21 08:03:13 2024.
