 Q-Chem 5.4, Q-Chem, Inc., Pleasanton, CA (2021)
 Q-Chem 5.4.0 for Intel X86 EM64T Linux

User input:
--------------------------------------------------------------
$molecule
0 1
C                  6.8985320000     -1.5894660000     -0.2041040000
C                  7.4737940000     -0.6504490000     -1.0573780000
C                  6.6436430000      0.3124630000     -1.6786450000
C                  5.2750690000      0.2936280000     -1.4189950000
C                  4.7024950000     -0.6496030000     -0.5626510000
C                  5.5258500000     -1.6046640000      0.0534770000
C                  4.9669450000     -2.6335040000      0.9757900000
C                  3.4962190000     -2.6045170000      1.2159390000
C                  2.6728350000     -1.6494500000      0.5997720000
C                  3.2317300000     -0.6207670000     -0.3227370000
C                  2.9236750000     -3.5475790000      2.0724280000
C                  1.5551000000     -3.5662440000      2.3322930000
C                  0.7249620000     -2.6033890000      1.7110190000
C                  1.3002170000     -1.6645310000      0.8574950000
O                  5.6838580000     -3.4651930000      1.5121700000
O                  2.5147720000      0.2106880000     -0.8594220000
C                  0.9757560000     -4.6009800000      3.2632320000
C                 -0.7613440000     -2.5862700000      1.9630680000
C                  8.9601610000     -0.6674310000     -1.3092300000
C                  7.2230350000      1.3474280000     -2.6093080000
H                  7.5143240000     -2.3366990000      0.2830080000
H                  4.6193730000      1.0211730000     -1.8832930000
H                  3.5792810000     -4.2751920000      2.5367460000
H                  0.6843450000     -0.9173830000      0.3703530000
H                  1.7543220000     -5.2594460000      3.6503020000
H                  0.2292720000     -5.2215360000      2.7567190000
H                  0.4726200000     -4.1344970000      4.1165400000
H                 -1.2284210000     -3.5308240000      1.6654510000
H                 -1.2438290000     -1.7820240000      1.4063330000
H                 -0.9854360000     -2.4437520000      3.0253100000
H                  9.4425810000     -1.4718000000     -0.7526080000
H                  9.4271340000      0.2770690000     -1.0113280000
H                  9.1844240000     -0.8097600000     -2.3714580000
H                  7.7262540000      0.8812150000     -3.4626960000
H                  7.9694660000      1.9678670000     -2.1025360000
H                  6.4444860000      2.0060050000     -2.9962260000
$end

$rem
BASIS  =  6-311++G(d,p)
GUI  =  2
JOB_TYPE  =  SP
METHOD  =  B3LYP
SCF_CONVERGENCE  = 8
SOLVENT_METHOD = sm12
$end

$smx
solvent dimethylformamide
charges CM5
$end

--------------------------------------------------------------

             Standard Nuclear Orientation (Angstroms)
    I     Atom           X                Y                Z
 ----------------------------------------------------------------
    1      C       6.8985320000    -1.5894660000    -0.2041040000
    2      C       7.4737940000    -0.6504490000    -1.0573780000
    3      C       6.6436430000     0.3124630000    -1.6786450000
    4      C       5.2750690000     0.2936280000    -1.4189950000
    5      C       4.7024950000    -0.6496030000    -0.5626510000
    6      C       5.5258500000    -1.6046640000     0.0534770000
    7      C       4.9669450000    -2.6335040000     0.9757900000
    8      C       3.4962190000    -2.6045170000     1.2159390000
    9      C       2.6728350000    -1.6494500000     0.5997720000
   10      C       3.2317300000    -0.6207670000    -0.3227370000
   11      C       2.9236750000    -3.5475790000     2.0724280000
   12      C       1.5551000000    -3.5662440000     2.3322930000
   13      C       0.7249620000    -2.6033890000     1.7110190000
   14      C       1.3002170000    -1.6645310000     0.8574950000
   15      O       5.6838580000    -3.4651930000     1.5121700000
   16      O       2.5147720000     0.2106880000    -0.8594220000
   17      C       0.9757560000    -4.6009800000     3.2632320000
   18      C      -0.7613440000    -2.5862700000     1.9630680000
   19      C       8.9601610000    -0.6674310000    -1.3092300000
   20      C       7.2230350000     1.3474280000    -2.6093080000
   21      H       7.5143240000    -2.3366990000     0.2830080000
   22      H       4.6193730000     1.0211730000    -1.8832930000
   23      H       3.5792810000    -4.2751920000     2.5367460000
   24      H       0.6843450000    -0.9173830000     0.3703530000
   25      H       1.7543220000    -5.2594460000     3.6503020000
   26      H       0.2292720000    -5.2215360000     2.7567190000
   27      H       0.4726200000    -4.1344970000     4.1165400000
   28      H      -1.2284210000    -3.5308240000     1.6654510000
   29      H      -1.2438290000    -1.7820240000     1.4063330000
   30      H      -0.9854360000    -2.4437520000     3.0253100000
   31      H       9.4425810000    -1.4718000000    -0.7526080000
   32      H       9.4271340000     0.2770690000    -1.0113280000
   33      H       9.1844240000    -0.8097600000    -2.3714580000
   34      H       7.7262540000     0.8812150000    -3.4626960000
   35      H       7.9694660000     1.9678670000    -2.1025360000
   36      H       6.4444860000     2.0060050000    -2.9962260000
 ----------------------------------------------------------------

   13    -846.2647759980      6.22e-09  Convergence criterion met
 Total energy in the final basis set =     -846.2883233849

                    Orbital Energies (a.u.)
 --------------------------------------------------------------

 Alpha MOs
 -- Occupied --
-19.1240 -19.1240 -10.2763 -10.2763 -10.2024 -10.2024 -10.2020 -10.2020
-10.2019 -10.2018 -10.2014 -10.2014 -10.1902 -10.1902 -10.1901 -10.1901
-10.1702 -10.1702 -10.1702 -10.1702  -1.0588  -1.0571  -0.8920  -0.8831
 -0.8272  -0.7959  -0.7852  -0.7845  -0.7274  -0.7208  -0.7169  -0.6836
 -0.6583  -0.6303  -0.6121  -0.6067  -0.5820  -0.5384  -0.5282  -0.5078
 -0.4816  -0.4730  -0.4639  -0.4557  -0.4492  -0.4462  -0.4449  -0.4425
 -0.4351  -0.4335  -0.4250  -0.4142  -0.4035  -0.4027  -0.3934  -0.3922
 -0.3918  -0.3914  -0.3704  -0.3702  -0.3593  -0.3590  -0.3534  -0.3488
 -0.2819  -0.2722  -0.2713  -0.2688  -0.2684  -0.2567

          Ground-State Mulliken Net Atomic Charges

     Atom                 Charge (a.u.)
  ----------------------------------------
      1 C                    -0.435803
      2 C                     0.553738
      3 C                     0.553873
      4 C                    -0.436504
      5 C                    -0.514086
      6 C                    -0.513265
      7 C                    -1.293789
      8 C                    -0.514241
      9 C                    -0.513308
     10 C                    -1.293837
     11 C                    -0.437139
     12 C                     0.554413
     13 C                     0.554250
     14 C                    -0.436417
     15 O                    -0.257197
     16 O                    -0.257196
     17 C                     0.365573
     18 C                     0.368001
     19 C                     0.367994
     20 C                     0.365573
     21 H                     0.119130
     22 H                     0.119270
     23 H                     0.119274
     24 H                     0.119133
     25 H                     0.244290
     26 H                     0.220557
     27 H                     0.220741
     28 H                     0.220797
     29 H                     0.244287
     30 H                     0.220622
     31 H                     0.244277
     32 H                     0.220792
     33 H                     0.220617
     34 H                     0.220755
     35 H                     0.220544
     36 H                     0.244282
  ----------------------------------------
  Sum of atomic charges =     0.000000

                    Cartesian Multipole Moments
 -----------------------------------------------------------------
    Charge (ESU x 10^10)
                 0.0000
    Dipole Moment (Debye)
         X      -0.0000      Y       0.0009      Z       0.0013
       Tot       0.0016
    Quadrupole Moments (Debye-Ang)
        XX     -91.0828     XY      19.8681     YY    -116.5721
        XZ     -20.9792     YZ      -5.9952     ZZ    -111.0821

 Total job time:  951.11s(wall), 7449.42s(cpu)
        *  Thank you very much for using Q-Chem.  Have a nice day.  *
