 Q-Chem 5.4, Q-Chem, Inc., Pleasanton, CA (2021)
 Q-Chem 5.4.0 for Intel X86 EM64T Linux

User input:
--------------------------------------------------------------
$molecule
-2 1
C                  0.5178670000      1.6749560000     -2.0136040000
C                 -0.8282830000      1.9673780000     -2.4578630000
C                 -1.7767540000      0.9952900000     -2.6657120000
C                 -1.5503830000     -0.4306810000     -2.4680840000
C                 -0.2434910000     -0.7268870000     -2.0349740000
C                  0.7790710000      0.2584730000     -1.8047390000
O                  1.3699080000      2.6130020000     -1.8340370000
O                 -2.4998950000     -1.2855370000     -2.6871650000
C                  3.2126500000      0.7968320000     -1.0911280000
C                  4.1626570000      1.0583530000     -2.0955670000
C                  3.4404520000      1.2614030000      0.2173100000
C                  4.6101220000      1.9687510000      0.5060020000
C                  5.3242080000      1.7678200000     -1.7807780000
C                  5.5588970000      2.2232120000     -0.4837660000
H                 -1.0593980000      3.0195860000     -2.6239580000
H                 -2.7770850000      1.2752920000     -3.0015840000
H                  0.0196490000     -1.7654910000     -1.8600490000
H                  4.7744520000      2.3308520000      1.5192720000
H                  6.0500090000      1.9720670000     -2.5658450000
H                  6.4664150000      2.7739660000     -0.2487540000
C                  2.0702500000     -0.1810550000     -1.3617050000
O                  2.3977210000     -1.3782170000     -1.1520980000
C                  2.3981430000      1.0346150000      1.2848780000
H                  2.1534510000     -0.0273310000      1.3793300000
H                  1.4737850000      1.5554810000      1.0164960000
H                  2.7427540000      1.4058970000      2.2565870000
C                  3.8956320000      0.6139070000     -3.5127910000
H                  3.0073450000      1.1234220000     -3.8988830000
H                  3.6964160000     -0.4606650000     -3.5595080000
H                  4.7459070000      0.8445300000     -4.1644610000
$end
$rem
MAX_SCF_CYCLES=200
BASIS  =  6-311++G(d,p)
GUI  =  2
JOB_TYPE  =  SP
METHOD  =  B3LYP
SOLVENT_METHOD = COSMO
$end
$solvent
dielectric 37.219
opticaldielectric 1.43
$end

--------------------------------------------------------------

             Standard Nuclear Orientation (Angstroms)
    I     Atom           X                Y                Z
 ----------------------------------------------------------------
    1      C       1.1389648467    -0.0210899154     1.2074915138
    2      C       2.4404619640    -0.0287802249     1.8407707733
    3      C       3.6182721715    -0.0162636061     1.1334094980
    4      C       3.7041862898     0.0060067212    -0.3211752351
    5      C       2.4431800258     0.0143351000    -0.9481383971
    6      C       1.1870860849     0.0023245633    -0.2469541936
    7      O       0.0669265624    -0.0346232200     1.9065617805
    8      O       4.8572207544     0.0163131587    -0.9134197827
    9      C      -1.4035106873     0.0054409645    -0.3478327027
   10      C      -2.0823180990    -1.2128917286    -0.1615796892
   11      C      -2.0816102721     1.2183672838    -0.1271051282
   12      C      -3.4222202901     1.1994491359     0.2656022135
   13      C      -3.4229057442    -1.2043979356     0.2313438213
   14      C      -4.1020939970    -0.0050286922     0.4432816982
   15      H       2.4421987219    -0.0457132898     2.9306577502
   16      H       4.5715797670    -0.0230698143     1.6654165786
   17      H       2.4059030977     0.0312300514    -2.0329723361
   18      H      -3.9366675439     2.1424656775     0.4413901576
   19      H      -3.9378469786    -2.1517429441     0.3803642333
   20      H      -5.1456811211    -0.0090626437     0.7483377106
   21      C      -0.0267865533     0.0147141854    -1.0104768937
   22      O      -0.0944007147     0.0346971359    -2.2672180013
   23      C      -1.3423388455     2.5264215850    -0.2685759235
   24      H      -0.8792658205     2.6141325477    -1.2556903154
   25      H      -0.5370462026     2.5784712632     0.4707227917
   26      H      -2.0157675690     3.3775046626    -0.1169949393
   27      C      -1.3433652125    -2.5165999878    -0.3394894143
   28      H      -0.5372215755    -2.5881552053     0.3972185668
   29      H      -0.8815779570    -2.5777097310    -1.3292331214
   30      H      -2.0165897260    -3.3714918614    -0.2100406925
 ----------------------------------------------------------------

   12    -804.6960856963      7.32e-06  Convergence criterion met
 Total energy in the final basis set =     -804.6960856963
    6    -804.9775799133      4.56e-06  Convergence criterion met
 Total energy in the final basis set =     -804.9775799133

                    Orbital Energies (a.u.)
 --------------------------------------------------------------

 Alpha MOs
 -- Occupied --
-19.0757 -19.0385 -19.0275 -10.2248 -10.1978 -10.1814 -10.1676 -10.1676
-10.1632 -10.1594 -10.1567 -10.1567 -10.1504 -10.1504 -10.1476 -10.1397
-10.1371 -10.1243  -0.9969  -0.9568  -0.9397  -0.8482  -0.7909  -0.7699
 -0.7540  -0.7230  -0.6837  -0.6673  -0.6627  -0.6170  -0.5796  -0.5590
 -0.5500  -0.5162  -0.4728  -0.4664  -0.4481  -0.4409  -0.4331  -0.4152
 -0.4074  -0.4022  -0.3976  -0.3928  -0.3909  -0.3852  -0.3784  -0.3726
 -0.3605  -0.3471  -0.3457  -0.3389  -0.3319  -0.3266  -0.3256  -0.3205
 -0.2504  -0.2413  -0.2313  -0.2276  -0.2222  -0.2085  -0.1993  -0.1377

          Ground-State Mulliken Net Atomic Charges

     Atom                 Charge (a.u.)
  ----------------------------------------
      1 C                    -0.611396
      2 C                    -0.572155
      3 C                    -0.024950
      4 C                    -0.568962
      5 C                     0.024458
      6 C                     0.614432
      7 O                    -0.502792
      8 O                    -0.771964
      9 C                     1.386051
     10 C                     0.199854
     11 C                     0.196177
     12 C                    -0.637911
     13 C                    -0.638119
     14 C                    -0.260473
     15 H                     0.177922
     16 H                     0.177448
     17 H                     0.162674
     18 H                     0.160290
     19 H                     0.160196
     20 H                     0.203640
     21 C                    -0.352032
     22 O                    -0.463679
     23 C                    -0.543868
     24 H                     0.173303
     25 H                     0.179673
     26 H                     0.162138
     27 C                    -0.545468
     28 H                     0.180239
     29 H                     0.173159
     30 H                     0.162116
  ----------------------------------------
  Sum of atomic charges =    -2.000000

                    Cartesian Multipole Moments
 -----------------------------------------------------------------
    Charge (ESU x 10^10)
                -9.6064
    Dipole Moment (Debye)
         X     -18.6478      Y      -0.0489      Z       3.8311
       Tot      19.0374
    Quadrupole Moments (Debye-Ang)
        XX    -212.7960     XY      -0.3058     YY    -109.2111
        XZ      17.3776     YZ       0.5827     ZZ    -145.4602

 Total job time:  86.29s(wall), 665.35s(cpu)
        *  Thank you very much for using Q-Chem.  Have a nice day.  *
