 Q-Chem 5.4, Q-Chem, Inc., Pleasanton, CA (2021)
 Q-Chem 5.4.0 for Intel X86 EM64T Linux

User input:
--------------------------------------------------------------
$molecule
0 1
C                  0.1667190000      3.7960990000     -0.2079950000
C                 -0.9435890000      3.6787720000     -1.0384350000
C                 -1.0046290000      2.6502930000     -1.9805320000
C                  1.2166770000      2.8818360000     -0.3225590000
C                  1.1581360000      1.8459890000     -1.2692340000
C                  0.0414190000      1.7365620000     -2.0959760000
C                  2.3995900000      2.9919750000      0.5502890000
C                  3.4945910000      1.9936900000      0.3832880000
C                  3.4574510000      0.9804010000     -0.5169010000
C                  2.2807370000      0.8554670000     -1.4025350000
O                  2.5411800000      3.8562180000      1.4082880000
O                  2.2115330000     -0.0403210000     -2.2326460000
H                  0.2368660000      4.5850850000      0.5307630000
H                 -1.7602280000      4.3862620000     -0.9532100000
H                 -1.8705050000      2.5606650000     -2.6267170000
H                  0.0101320000      0.9329240000     -2.8211520000
O                  4.5324950000      2.1797380000      1.2150990000
H                  4.3053500000      2.9563510000      1.7611260000
C                  4.5838010000     -0.0025900000     -0.6729460000
C                  5.5927500000      0.4342430000     -1.7587920000
C                  6.7086500000     -0.5905800000     -2.0420980000
C                  7.5092720000     -0.1549650000     -3.2861210000
C                  8.5032040000     -1.1915130000     -3.8273300000
C                  9.1899160000     -0.7325660000     -5.1204270000
C                 10.1297900000     -1.7646190000     -5.7724710000
C                 10.5899470000     -1.2761190000     -7.1533610000
C                  7.6153780000     -0.8046160000     -0.8206730000
C                 11.3415430000     -2.0989720000     -4.8902660000
H                  4.1612410000     -0.9708110000     -0.9537160000
H                  5.0885460000     -0.1136710000      0.2880690000
H                  6.0438920000      1.3906310000     -1.4669320000
H                  5.0402020000      0.6145310000     -2.6863160000
H                  6.2231500000     -1.5478910000     -2.2801600000
H                  8.0447730000      0.7767080000     -3.0567910000
H                  6.7989640000      0.0930300000     -4.0845560000
H                  7.9713790000     -2.1334320000     -4.0175730000
H                  9.2590020000     -1.4125320000     -3.0681190000
H                  9.7566280000      0.1884740000     -4.9247110000
H                  8.4157360000     -0.4610100000     -5.8492320000
H                  9.5546920000     -2.6894640000     -5.9196650000
H                  9.7381110000     -1.0771120000     -7.8105430000
H                 11.2269640000     -2.0172170000     -7.6454300000
H                 11.1669670000     -0.3485940000     -7.0666670000
H                  8.3861690000     -1.5532640000     -1.0171820000
H                  7.0516090000     -1.1474520000      0.0501810000
H                  8.1184980000      0.1291490000     -0.5448930000
H                 11.0465280000     -2.5239710000     -3.9278470000
H                 11.9359150000     -1.1998490000     -4.6910990000
H                 11.9951660000     -2.8248730000     -5.3831800000
$end
$rem
MAX_SCF_CYCLES=200
BASIS  =  6-311++G(d,p)
GUI  =  2
JOB_TYPE  =  SP
SCF_CONVERGENCE  = 6
METHOD  =  B3LYP
SOLVENT_METHOD = COSMO
$end
$solvent
dielectric 37.219
opticaldielectric 1.43
$end

--------------------------------------------------------------

             Standard Nuclear Orientation (Angstroms)
    I     Atom           X                Y                Z
 ----------------------------------------------------------------
    1      C       5.7086501576     0.4077540459    -0.9231394778
    2      C       6.2360675833     1.6763425907    -0.7024722251
    3      C       5.5021548090     2.6216833252     0.0163772917
    4      C       4.4443541512     0.0869954248    -0.4230564245
    5      C       3.7036597087     1.0358039501     0.3006380806
    6      C       4.2409255751     2.3035223155     0.5168994864
    7      C       3.8718272803    -1.2528099790    -0.6475822763
    8      C       2.5164404722    -1.5417722609    -0.0972034384
    9      C       1.7859866809    -0.6458604422     0.6114950059
   10      C       2.3424311086     0.7034747728     0.8444671078
   11      O       4.4415026142    -2.1484449578    -1.2611244295
   12      O       1.7124830677     1.5428963127     1.4728352730
   13      H       6.2590598892    -0.3426485611    -1.4773307329
   14      H       7.2164248262     1.9295387613    -1.0891193932
   15      H       5.9147732241     3.6095713542     0.1871191018
   16      H       3.6584565470     3.0247495351     1.0765907151
   17      O       2.0756727186    -2.7830676416    -0.3592676985
   18      H       2.7868736925    -3.2213818674    -0.8641854162
   19      C       0.4151161767    -0.9608455827     1.1413856482
   20      C      -0.7008141640    -0.5387261739     0.1593584747
   21      C      -2.1318339853    -0.7338600539     0.6977471084
   22      C      -3.1418233158    -0.0735635063    -0.2626066082
   23      C      -4.5835663436     0.0159218128     0.2556685873
   24      C      -5.5109298681     0.7716167898    -0.7051787295
   25      C      -6.9522762913     0.9833328244    -0.2038258421
   26      C      -7.7176895133     1.9217552274    -1.1476160200
   27      C      -2.4559259148    -2.2152245803     0.9434495037
   28      C      -7.7148873066    -0.3377165679    -0.0258486912
   29      H       0.2769189761    -0.4240916485     2.0835307534
   30      H       0.3543332910    -2.0313661159     1.3437406891
   31      H      -0.5861451340    -1.0978016777    -0.7774846098
   32      H      -0.5601882734     0.5192073413    -0.0837770063
   33      H      -2.1961865897    -0.2051100187     1.6595736308
   34      H      -3.1321846509    -0.6163734128    -1.2179246968
   35      H      -2.7915162848     0.9413824688    -0.4877889250
   36      H      -4.5839563876     0.5238149970     1.2294683581
   37      H      -4.9773643361    -0.9891489295     0.4324093630
   38      H      -5.5450648979     0.2441009981    -1.6686847307
   39      H      -5.0700039544     1.7543658545    -0.9150421995
   40      H      -6.8925571919     1.4729084601     0.7782593799
   41      H      -7.2107302650     2.8860096112    -1.2492149466
   42      H      -8.7313011851     2.1127913737    -0.7825881112
   43      H      -7.8030529973     1.4837759126    -2.1484445524
   44      H      -3.4603268681    -2.3455556789     1.3525960672
   45      H      -1.7606760092    -2.6723860168     1.6515382604
   46      H      -2.3994953252    -2.7831779229     0.0078502267
   47      H      -7.2350013914    -0.9963473490     0.7020409532
   48      H      -7.7788167116    -0.8795233707    -0.9764938179
   49      H      -8.7367412010    -0.1553173985     0.3200771113
 ----------------------------------------------------------------

   11   -1003.7657107793      4.77e-07  Convergence criterion met
 Total energy in the final basis set =    -1003.7657107793
    6   -1003.7802605089      8.99e-07  Convergence criterion met
 Total energy in the final basis set =    -1003.7802605089

                    Orbital Energies (a.u.)
 --------------------------------------------------------------

 Alpha MOs
 -- Occupied --
-19.1778 -19.1500 -19.1302 -10.2940 -10.2816 -10.2669 -10.2103 -10.2091
-10.2035 -10.2002 -10.1981 -10.1965 -10.1963 -10.1746 -10.1688 -10.1671
-10.1648 -10.1568 -10.1561 -10.1556 -10.1512 -10.1504 -10.1502  -1.1082
 -1.0675  -1.0641  -0.8922  -0.8441  -0.8184  -0.8033  -0.7849  -0.7793
 -0.7513  -0.7254  -0.6929  -0.6784  -0.6732  -0.6595  -0.6470  -0.6178
 -0.6041  -0.5866  -0.5732  -0.5586  -0.5502  -0.5422  -0.5187  -0.4972
 -0.4794  -0.4759  -0.4715  -0.4687  -0.4598  -0.4520  -0.4517  -0.4437
 -0.4354  -0.4337  -0.4259  -0.4195  -0.4170  -0.4076  -0.4055  -0.3942
 -0.3880  -0.3795  -0.3784  -0.3768  -0.3766  -0.3691  -0.3598  -0.3544
 -0.3489  -0.3425  -0.3299  -0.3226  -0.3174  -0.3146  -0.3102  -0.3055
 -0.2997  -0.2893  -0.2799  -0.2797  -0.2557

          Ground-State Mulliken Net Atomic Charges

     Atom                 Charge (a.u.)
  ----------------------------------------
      1 C                     0.089038
      2 C                    -0.364471
      3 C                    -0.471145
      4 C                     0.618149
      5 C                    -0.233088
      6 C                     0.184198
      7 C                    -0.921440
      8 C                    -0.582581
      9 C                     2.027513
     10 C                    -0.816550
     11 O                    -0.330591
     12 O                    -0.290756
     13 H                     0.203239
     14 H                     0.233202
     15 H                     0.226487
     16 H                     0.204724
     17 O                    -0.225002
     18 H                     0.322879
     19 C                    -0.071150
     20 C                    -1.104831
     21 C                     1.183915
     22 C                    -0.690625
     23 C                    -0.021601
     24 C                    -0.829073
     25 C                     0.505283
     26 C                    -0.679371
     27 C                    -0.752977
     28 C                    -0.702346
     29 H                     0.234258
     30 H                     0.232416
     31 H                     0.193079
     32 H                     0.177356
     33 H                     0.137836
     34 H                     0.153274
     35 H                     0.115263
     36 H                     0.154499
     37 H                     0.093456
     38 H                     0.146041
     39 H                     0.133522
     40 H                     0.144051
     41 H                     0.141976
     42 H                     0.165393
     43 H                     0.146441
     44 H                     0.157982
     45 H                     0.145199
     46 H                     0.164444
     47 H                     0.148408
     48 H                     0.152421
     49 H                     0.151636
  ----------------------------------------
  Sum of atomic charges =    -0.000020

                    Cartesian Multipole Moments
 -----------------------------------------------------------------
    Charge (ESU x 10^10)
                -0.0001
    Dipole Moment (Debye)
         X       2.7170      Y       1.0597      Z      -0.9817
       Tot       3.0771
    Quadrupole Moments (Debye-Ang)
        XX    -117.7889     XY      14.7064     YY    -140.3422
        XZ      -3.5686     YZ      -3.7475     ZZ    -145.7267

 Total job time:  186.42s(wall), 1357.08s(cpu)
        *  Thank you very much for using Q-Chem.  Have a nice day.  *
