 Gaussian 16, Revision A.03,
 Gaussian 16:  ES64L-G16RevA.03 25-Dec-2016

 --------------------------------------
 #P UB3LYP/6-311++G(d,p) nosym opt freq
 --------------------------------------

 --------
 Oxidized
 --------
 Symbolic Z-matrix:
 Charge =  0 Multiplicity = 1

 SCF Done:  E(UB3LYP) =  -1003.76565376     A.U. after   18 cycles
 Optimization completed.
    -- Stationary point found.
 Normal termination of Gaussian 16 at Mon Jan  8 01:44:16 2024.

 ----------------------------------------------------------------------
 #P Geom=AllCheck Guess=TCheck SCRF=Check GenChk UB3LYP/6-311++G(d,p) F
 req
 ----------------------------------------------------------------------

 Structure from the checkpoint file:  "291.chk"
 --------
 Oxidized
 --------
 Charge =  0 Multiplicity = 1

                          Input orientation:
 ---------------------------------------------------------------------
 Center     Atomic      Atomic             Coordinates (Angstroms)
 Number     Number       Type             X           Y           Z
 ---------------------------------------------------------------------
      1          6           0        0.166719    3.796099   -0.207995
      2          6           0       -0.943589    3.678772   -1.038435
      3          6           0       -1.004629    2.650293   -1.980532
      4          6           0        1.216677    2.881836   -0.322559
      5          6           0        1.158136    1.845989   -1.269234
      6          6           0        0.041419    1.736562   -2.095976
      7          6           0        2.399590    2.991975    0.550289
      8          6           0        3.494591    1.993690    0.383288
      9          6           0        3.457451    0.980401   -0.516901
     10          6           0        2.280737    0.855467   -1.402535
     11          8           0        2.541180    3.856218    1.408288
     12          8           0        2.211533   -0.040321   -2.232646
     13          1           0        0.236866    4.585085    0.530763
     14          1           0       -1.760228    4.386262   -0.953210
     15          1           0       -1.870505    2.560665   -2.626717
     16          1           0        0.010132    0.932924   -2.821152
     17          8           0        4.532495    2.179738    1.215099
     18          1           0        4.305350    2.956351    1.761126
     19          6           0        4.583801   -0.002590   -0.672946
     20          6           0        5.592750    0.434243   -1.758792
     21          6           0        6.708650   -0.590580   -2.042098
     22          6           0        7.509272   -0.154965   -3.286121
     23          6           0        8.503204   -1.191513   -3.827330
     24          6           0        9.189916   -0.732566   -5.120427
     25          6           0       10.129790   -1.764619   -5.772471
     26          6           0       10.589947   -1.276119   -7.153361
     27          6           0        7.615378   -0.804616   -0.820673
     28          6           0       11.341543   -2.098972   -4.890266
     29          1           0        4.161241   -0.970811   -0.953716
     30          1           0        5.088546   -0.113671    0.288069
     31          1           0        6.043892    1.390631   -1.466932
     32          1           0        5.040202    0.614531   -2.686316
     33          1           0        6.223150   -1.547891   -2.280160
     34          1           0        8.044773    0.776708   -3.056791
     35          1           0        6.798964    0.093030   -4.084556
     36          1           0        7.971379   -2.133432   -4.017573
     37          1           0        9.259002   -1.412532   -3.068119
     38          1           0        9.756628    0.188474   -4.924711
     39          1           0        8.415736   -0.461010   -5.849232
     40          1           0        9.554692   -2.689464   -5.919665
     41          1           0        9.738111   -1.077112   -7.810543
     42          1           0       11.226964   -2.017217   -7.645430
     43          1           0       11.166967   -0.348594   -7.066667
     44          1           0        8.386169   -1.553264   -1.017182
     45          1           0        7.051609   -1.147452    0.050181
     46          1           0        8.118498    0.129149   -0.544893
     47          1           0       11.046528   -2.523971   -3.927847
     48          1           0       11.935915   -1.199849   -4.691099
     49          1           0       11.995166   -2.824873   -5.383180
 ---------------------------------------------------------------------

 SCF Done:  E(UB3LYP) =  -1003.76565376     A.U. after    1 cycles

 Alpha  occ. eigenvalues --  -19.17872 -19.14985 -19.12600 -10.29376 -10.27806
 Alpha  occ. eigenvalues --  -10.26732 -10.21562 -10.21384 -10.20788 -10.20771
 Alpha  occ. eigenvalues --  -10.20645 -10.20495 -10.20304 -10.17593 -10.17186
 Alpha  occ. eigenvalues --  -10.17101 -10.16671 -10.16064 -10.16040 -10.15985
 Alpha  occ. eigenvalues --  -10.15483 -10.15437 -10.15433  -1.10920  -1.06742
 Alpha  occ. eigenvalues --   -1.05879  -0.89781  -0.84670  -0.82193  -0.80709
 Alpha  occ. eigenvalues --   -0.78981  -0.78535  -0.75492  -0.72843  -0.69544
 Alpha  occ. eigenvalues --   -0.68195  -0.67656  -0.66396  -0.65115  -0.62175
 Alpha  occ. eigenvalues --   -0.60852  -0.58980  -0.57721  -0.56198  -0.55365
 Alpha  occ. eigenvalues --   -0.54385  -0.52196  -0.50105  -0.48572  -0.47971
 Alpha  occ. eigenvalues --   -0.47346  -0.46711  -0.46254  -0.45835  -0.45141
 Alpha  occ. eigenvalues --   -0.44627  -0.43864  -0.43538  -0.42479  -0.42197
 Alpha  occ. eigenvalues --   -0.41925  -0.41009  -0.40720  -0.39995  -0.39090
 Alpha  occ. eigenvalues --   -0.38359  -0.38226  -0.38053  -0.37963  -0.37518
 Alpha  occ. eigenvalues --   -0.36253  -0.35763  -0.35191  -0.34569  -0.33304
 Alpha  occ. eigenvalues --   -0.32562  -0.32088  -0.31879  -0.31386  -0.30658
 Alpha  occ. eigenvalues --   -0.30079  -0.29360  -0.28516  -0.27549  -0.25767
 Alpha virt. eigenvalues --   -0.12637  -0.06055  -0.03068  -0.01297  -0.00715
 Alpha virt. eigenvalues --   -0.00293   0.00498   0.00776   0.00860   0.01347
 Alpha virt. eigenvalues --    0.01946   0.02011   0.02270   0.02917   0.03253

  Beta  occ. eigenvalues --  -19.17872 -19.14985 -19.12600 -10.29376 -10.27806
  Beta  occ. eigenvalues --  -10.26732 -10.21562 -10.21384 -10.20788 -10.20771
  Beta  occ. eigenvalues --  -10.20645 -10.20495 -10.20304 -10.17593 -10.17186
  Beta  occ. eigenvalues --  -10.17101 -10.16671 -10.16064 -10.16040 -10.15985
  Beta  occ. eigenvalues --  -10.15483 -10.15437 -10.15433  -1.10920  -1.06742
  Beta  occ. eigenvalues --   -1.05879  -0.89781  -0.84670  -0.82193  -0.80709
  Beta  occ. eigenvalues --   -0.78981  -0.78535  -0.75492  -0.72843  -0.69544
  Beta  occ. eigenvalues --   -0.68195  -0.67656  -0.66396  -0.65115  -0.62175
  Beta  occ. eigenvalues --   -0.60852  -0.58980  -0.57721  -0.56198  -0.55365
  Beta  occ. eigenvalues --   -0.54385  -0.52196  -0.50105  -0.48572  -0.47971
  Beta  occ. eigenvalues --   -0.47346  -0.46711  -0.46254  -0.45835  -0.45141
  Beta  occ. eigenvalues --   -0.44627  -0.43864  -0.43538  -0.42479  -0.42197
  Beta  occ. eigenvalues --   -0.41925  -0.41009  -0.40720  -0.39995  -0.39090
  Beta  occ. eigenvalues --   -0.38359  -0.38226  -0.38053  -0.37963  -0.37518
  Beta  occ. eigenvalues --   -0.36253  -0.35763  -0.35191  -0.34569  -0.33304
  Beta  occ. eigenvalues --   -0.32562  -0.32088  -0.31879  -0.31386  -0.30658
  Beta  occ. eigenvalues --   -0.30079  -0.29360  -0.28516  -0.27549  -0.25767
  Beta virt. eigenvalues --   -0.12637  -0.06055  -0.03068  -0.01297  -0.00715
  Beta virt. eigenvalues --   -0.00293   0.00498   0.00776   0.00860   0.01347
  Beta virt. eigenvalues --    0.01946   0.02011   0.02270   0.02917   0.03253

 Mulliken charges and spin densities:
               1          2
     1  C    0.086962  -0.000000
     2  C   -0.310700  -0.000000
     3  C   -0.375760   0.000000
     4  C    0.598253  -0.000000
     5  C   -0.154817   0.000000
     6  C    0.142622  -0.000000
     7  C   -1.027922  -0.000000
     8  C   -0.620418   0.000000
     9  C    2.096078   0.000000
    10  C   -0.940602   0.000000
    11  O   -0.276617  -0.000000
    12  O   -0.203309  -0.000000
    13  H    0.184656   0.000000
    14  H    0.180901  -0.000000
    15  H    0.177910   0.000000
    16  H    0.191311  -0.000000
    17  O   -0.185059  -0.000000
    18  H    0.286229  -0.000000
    19  C   -0.032609  -0.000000
    20  C   -1.078558   0.000000
    21  C    1.211220  -0.000000
    22  C   -0.705173   0.000000
    23  C    0.027661   0.000000
    24  C   -0.871295   0.000000
    25  C    0.523944  -0.000000
    26  C   -0.629269  -0.000000
    27  C   -0.718364  -0.000000
    28  C   -0.671305   0.000000
    29  H    0.235845   0.000000
    30  H    0.228227  -0.000000
    31  H    0.182281   0.000000
    32  H    0.171201  -0.000000
    33  H    0.131645  -0.000000
    34  H    0.143030   0.000000
    35  H    0.102102   0.000000
    36  H    0.149388   0.000000
    37  H    0.076310  -0.000000
    38  H    0.139004   0.000000
    39  H    0.123499  -0.000000
    40  H    0.136831   0.000000
    41  H    0.130788   0.000000
    42  H    0.153676  -0.000000
    43  H    0.135613   0.000000
    44  H    0.146450  -0.000000
    45  H    0.131281  -0.000000
    46  H    0.155916  -0.000000
    47  H    0.136554  -0.000000
    48  H    0.143844  -0.000000
    49  H    0.140544  -0.000000
 Sum of Mulliken charges =  -0.00000   0.00000

 Dipole moment (field-independent basis, Debye):
    X=             -1.7875    Y=              1.1777    Z=             -0.2109  Tot=              2.1509
 Quadrupole moment (field-independent basis, Debye-Ang):
   XX=           -140.8528   YY=           -139.8881   ZZ=           -145.3355
   XY=             -5.9337   XZ=              3.8170   YZ=             -4.6881

  Exact polarizability: 296.522 -52.633 232.705   1.776  45.626 240.341
 Approx polarizability: 383.645 -31.593 399.590  49.178 103.717 386.282

                      1                      2                      3
                      A                      A                      A
 Frequencies --     14.4835                16.7495                22.8617
 Red. masses --      5.2177                 2.6529                 4.6463
 Frc consts  --      0.0006                 0.0004                 0.0014
 IR Inten    --      0.0511                 0.0500                 0.4285

                      4                      5                      6
                      A                      A                      A
 Frequencies --     39.5229                44.5428                64.5843
 Red. masses --      3.5576                 3.6085                 4.1980
 Frc consts  --      0.0033                 0.0042                 0.0103
 IR Inten    --      0.6655                 0.2349                 2.2709

                      7                      8                      9
                      A                      A                      A
 Frequencies --     80.4880                95.7471               103.6917
 Red. masses --      4.8384                 3.0468                 1.8216
 Frc consts  --      0.0185                 0.0165                 0.0115
 IR Inten    --      0.9730                 0.2496                 0.0032

                     10                     11                     12
                      A                      A                      A
 Frequencies --    109.2175               126.3257               134.4802
 Red. masses --      3.6014                 5.1429                 2.0597
 Frc consts  --      0.0253                 0.0484                 0.0219
 IR Inten    --      0.1086                 0.0011                 0.1439

                     13                     14                     15
                      A                      A                      A
 Frequencies --    171.5171               173.1486               222.1055
 Red. masses --      3.7823                 5.7627                 1.3646
 Frc consts  --      0.0656                 0.1018                 0.0397
 IR Inten    --      0.0401                 0.5637                 0.0176

                     16                     17                     18
                      A                      A                      A
 Frequencies --    227.8007               236.5174               244.8890
 Red. masses --      1.5496                 1.5086                 1.4469
 Frc consts  --      0.0474                 0.0497                 0.0511
 IR Inten    --      0.0272                 0.0788                 0.0130

                     19                     20                     21
                      A                      A                      A
 Frequencies --    251.0377               265.4128               297.7779
 Red. masses --      3.0123                 1.9427                 2.9589
 Frc consts  --      0.1118                 0.0806                 0.1546
 IR Inten    --      0.1575                 0.0454                 2.2627

                     22                     23                     24
                      A                      A                      A
 Frequencies --    324.2719               351.8859               378.9999
 Red. masses --      4.2722                 5.0862                 3.0541
 Frc consts  --      0.2647                 0.3711                 0.2585
 IR Inten    --      0.2916                 7.5784                 0.7367

                     25                     26                     27
                      A                      A                      A
 Frequencies --    381.2746               388.5692               416.6188
 Red. masses --      2.4424                 7.7976                 2.7290
 Frc consts  --      0.2092                 0.6937                 0.2791
 IR Inten    --      0.1515                18.7310                 3.2100

                     28                     29                     30
                      A                      A                      A
 Frequencies --    420.9277               425.9316               431.0446
 Red. masses --      4.0440                 2.9542                 3.1834
 Frc consts  --      0.4222                 0.3158                 0.3485
 IR Inten    --      5.4146                 9.3310                 1.9054

                     31                     32                     33
                      A                      A                      A
 Frequencies --    444.7493               462.9544               488.8019
 Red. masses --      4.6720                 3.8069                 3.1928
 Frc consts  --      0.5445                 0.4807                 0.4495
 IR Inten    --      2.5617                 2.6142                 1.3219

                     34                     35                     36
                      A                      A                      A
 Frequencies --    506.1833               534.5606               590.4864
 Red. masses --      4.1172                 4.5581                 5.5003
 Frc consts  --      0.6215                 0.7674                 1.1300
 IR Inten    --      0.8047                 5.8990                 5.6276

                     37                     38                     39
                      A                      A                      A
 Frequencies --    649.9481               654.5365               677.9962
 Red. masses --      1.1823                 4.7298                 5.9689
 Frc consts  --      0.2943                 1.1939                 1.6166
 IR Inten    --     65.1646                12.1711                 2.4929

                     40                     41                     42
                      A                      A                      A
 Frequencies --    706.6930               713.1109               736.2409
 Red. masses --      3.5520                 4.7251                 2.4551
 Frc consts  --      1.0452                 1.4157                 0.7841
 IR Inten    --      4.0413                 3.0876                74.5204

                     43                     44                     45
                      A                      A                      A
 Frequencies --    740.6145               760.5412               766.8954
 Red. masses --      1.1394                 3.2748                 1.9747
 Frc consts  --      0.3682                 1.1161                 0.6843
 IR Inten    --      1.3011                 1.9254                 3.0233

                     46                     47                     48
                      A                      A                      A
 Frequencies --    800.4491               805.9623               840.0284
 Red. masses --      2.1627                 1.9263                 1.7155
 Frc consts  --      0.8164                 0.7372                 0.7132
 IR Inten    --      2.7544                10.5093                 1.0038

                     49                     50                     51
                      A                      A                      A
 Frequencies --    849.1855               875.6231               912.8278
 Red. masses --      2.7367                 2.2498                 1.3241
 Frc consts  --      1.1627                 1.0163                 0.6501
 IR Inten    --     13.8224                 5.9959                 0.0165

                     52                     53                     54
                      A                      A                      A
 Frequencies --    927.6000               934.0411               943.6022
 Red. masses --      1.2608                 2.0036                 1.6004
 Frc consts  --      0.6392                 1.0299                 0.8396
 IR Inten    --      2.1154                 2.2978                 0.6252

                     55                     56                     57
                      A                      A                      A
 Frequencies --    953.7596               961.0149               963.4948
 Red. masses --      3.1336                 1.8546                 1.6004
 Frc consts  --      1.6795                 1.0092                 0.8754
 IR Inten    --     19.1226                10.5719                 2.2297

                     58                     59                     60
                      A                      A                      A
 Frequencies --    990.9813               997.7208              1009.0207
 Red. masses --      2.0721                 1.3801                 2.6706
 Frc consts  --      1.1989                 0.8095                 1.6020
 IR Inten    --      7.0656                 1.3342                17.9620

                     61                     62                     63
                      A                      A                      A
 Frequencies --   1016.4244              1031.8917              1041.3739
 Red. masses --      1.3267                 3.2842                 3.1005
 Frc consts  --      0.8076                 2.0604                 1.9811
 IR Inten    --      0.1322                25.4042                 8.8547

                     64                     65                     66
                      A                      A                      A
 Frequencies --   1052.2941              1057.5525              1068.8792
 Red. masses --      1.9136                 2.3003                 1.5232
 Frc consts  --      1.2484                 1.5158                 1.0254
 IR Inten    --      1.9282                 4.2357                 8.0980

                     67                     68                     69
                      A                      A                      A
 Frequencies --   1101.1883              1110.5680              1134.0778
 Red. masses --      2.6999                 2.1855                 1.8224
 Frc consts  --      1.9289                 1.5882                 1.3810
 IR Inten    --      2.6928                 2.6622                19.4449

                     70                     71                     72
                      A                      A                      A
 Frequencies --   1150.6005              1176.4713              1182.7206
 Red. masses --      2.3606                 1.7845                 1.2433
 Frc consts  --      1.8413                 1.4552                 1.0247
 IR Inten    --      7.3939                10.3697                16.6411

                     73                     74                     75
                      A                      A                      A
 Frequencies --   1189.3352              1193.7786              1216.1734
 Red. masses --      1.7676                 2.1822                 1.7394
 Frc consts  --      1.4731                 1.8323                 1.5158
 IR Inten    --     12.0684                18.2474                 5.1817

                     76                     77                     78
                      A                      A                      A
 Frequencies --   1228.7912              1246.2406              1265.0237
 Red. masses --      2.0835                 1.5848                 1.2625
 Frc consts  --      1.8536                 1.4502                 1.1904
 IR Inten    --     29.8875                79.1522                32.8319

                     79                     80                     81
                      A                      A                      A
 Frequencies --   1283.9356              1294.4260              1307.4328
 Red. masses --      1.5566                 1.5604                 1.5790
 Frc consts  --      1.5119                 1.5405                 1.5902
 IR Inten    --     25.9105                27.9939                19.0743

                     82                     83                     84
                      A                      A                      A
 Frequencies --   1309.7701              1314.6014              1332.8012
 Red. masses --      1.5721                 1.8591                 1.2933
 Frc consts  --      1.5890                 1.8929                 1.3535
 IR Inten    --    189.2804                77.1668                 2.2259

                     85                     86                     87
                      A                      A                      A
 Frequencies --   1334.4373              1341.0397              1354.9039
 Red. masses --      1.1279                 1.9279                 1.3440
 Frc consts  --      1.1834                 2.0428                 1.4537
 IR Inten    --      3.4321                45.3422                 6.6217

                     88                     89                     90
                      A                      A                      A
 Frequencies --   1366.7424              1368.5079              1377.7774
 Red. masses --      6.0481                 1.3538                 1.4000
 Frc consts  --      6.6564                 1.4939                 1.5659
 IR Inten    --     70.1356                 0.3316                 3.0788

                     91                     92                     93
                      A                      A                      A
 Frequencies --   1384.2930              1384.4564              1397.0200
 Red. masses --      1.3387                 1.4894                 1.4419
 Frc consts  --      1.5114                 1.6820                 1.6581
 IR Inten    --      8.2133                 4.2961                15.3945

                     94                     95                     96
                      A                      A                      A
 Frequencies --   1401.2445              1402.4946              1414.2309
 Red. masses --      1.4943                 1.6964                 1.2707
 Frc consts  --      1.7287                 1.9660                 1.4974
 IR Inten    --     98.0404               231.5101                 8.1717

                     97                     98                     99
                      A                      A                      A
 Frequencies --   1420.1976              1475.5107              1480.2257
 Red. masses --      1.2407                 1.1049                 1.0760
 Frc consts  --      1.4744                 1.4173                 1.3890
 IR Inten    --      7.9435                 2.7914                 0.2892

                    100                    101                    102
                      A                      A                      A
 Frequencies --   1483.8210              1486.8168              1490.2142
 Red. masses --      1.4651                 1.5286                 1.0455
 Frc consts  --      1.9006                 1.9910                 1.3680
 IR Inten    --      0.2203                11.0064                 0.6840

                    103                    104                    105
                      A                      A                      A
 Frequencies --   1494.6844              1495.4019              1498.6905
 Red. masses --      1.0917                 1.0651                 1.0610
 Frc consts  --      1.4370                 1.4033                 1.4041
 IR Inten    --      3.6918                 2.0180                 3.3579

                    106                    107                    108
                      A                      A                      A
 Frequencies --   1504.5680              1505.7574              1506.6766
 Red. masses --      1.0649                 1.0770                 2.6276
 Frc consts  --      1.4203                 1.4387                 3.5145
 IR Inten    --      3.0307                 2.9793                 4.4734

                    109                    110                    111
                      A                      A                      A
 Frequencies --   1510.7183              1513.0432              1613.4671
 Red. masses --      1.0472                 1.0585                 6.6597
 Frc consts  --      1.4082                 1.4277                10.2147
 IR Inten    --      3.2935                26.4294                 1.9538

                    112                    113                    114
                      A                      A                      A
 Frequencies --   1627.8307              1690.3295              1701.9684
 Red. masses --      5.9397                 7.9768                11.2334
 Frc consts  --      9.2732                13.4283                19.1719
 IR Inten    --     78.4774                47.7498                65.2498

                    115                    116                    117
                      A                      A                      A
 Frequencies --   1704.4047              2979.2587              2981.2752
 Red. masses --     11.1994                 1.0786                 1.0784
 Frc consts  --     19.1687                 5.6404                 5.6471
 IR Inten    --    396.9944                 2.5455                 6.9280

                    118                    119                    120
                      A                      A                      A
 Frequencies --   2988.9675              2989.5561              3002.1859
 Red. masses --      1.0658                 1.0637                 1.0674
 Frc consts  --      5.6103                 5.6012                 5.6681
 IR Inten    --      7.4504                 4.1829                57.8390

                    121                    122                    123
                      A                      A                      A
 Frequencies --   3010.0688              3012.0511              3015.7288
 Red. masses --      1.0364                 1.0598                 1.0383
 Frc consts  --      5.5326                 5.6651                 5.5637
 IR Inten    --     33.6424                31.1210                37.1246

                    124                    125                    126
                      A                      A                      A
 Frequencies --   3019.9440              3021.7802              3024.0177
 Red. masses --      1.0479                 1.0929                 1.0956
 Frc consts  --      5.6308                 5.8797                 5.9031
 IR Inten    --     28.7936                10.8439                17.6420

                    127                    128                    129
                      A                      A                      A
 Frequencies --   3052.4513              3054.4209              3063.1110
 Red. masses --      1.0596                 1.1001                 1.0987
 Frc consts  --      5.8166                 6.0472                 6.0739
 IR Inten    --     18.9896                 6.4284                60.2810

                    130                    131                    132
                      A                      A                      A
 Frequencies --   3068.4118              3074.8522              3079.8681
 Red. masses --      1.1001                 1.0995                 1.1014
 Frc consts  --      6.1024                 6.1251                 6.1557
 IR Inten    --     11.1125                81.5105                50.7251

                    133                    134                    135
                      A                      A                      A
 Frequencies --   3082.9571              3089.7830              3094.7647
 Red. masses --      1.0954                 1.0994                 1.1003
 Frc consts  --      6.1339                 6.1841                 6.2091
 IR Inten    --     38.2006                58.8609                39.3042

                    136                    137                    138
                      A                      A                      A
 Frequencies --   3104.9421              3171.7136              3185.7766
 Red. masses --      1.1027                 1.0870                 1.0915
 Frc consts  --      6.2634                 6.4430                 6.5268
 IR Inten    --     12.4895                 3.1377                 8.3907

                    139                    140                    141
                      A                      A                      A
 Frequencies --   3199.5284              3202.9340              3618.0681
 Red. masses --      1.0933                 1.0948                 1.0642
 Frc consts  --      6.5942                 6.6171                 8.2080
 IR Inten    --      1.6710                 8.5933               157.5155

 - Thermochemistry -
 -------------------
 Temperature   298.150 Kelvin.  Pressure   1.00000 Atm.
 Atom     1 has atomic number  6 and mass  12.00000

 Molecular mass:   314.18819 amu.
 Principal axes and moments of inertia in atomic units:
                           1         2         3
     Eigenvalues --  3271.71893********************
           X            0.82485   0.48843   0.28472
           Y           -0.38497   0.11641   0.91556
           Z           -0.41404   0.86480  -0.28405
 This molecule is an asymmetric top.
 Rotational symmetry number  1.
 Warning -- assumption of classical behavior for rotation
           may cause significant error
 Rotational temperatures (Kelvin)      0.02647     0.00378     0.00349
 Rotational constants (GHZ):           0.55162     0.07878     0.07280
 Zero-point vibrational energy    1099896.2 (Joules/Mol)
                                  262.88151 (Kcal/Mol)
 Warning -- explicit consideration of  36 degrees of freedom as
           vibrations may cause significant error
 Vibrational temperatures:     20.84    24.10    32.89    56.86    64.09
          (Kelvin)             92.92   115.80   137.76   149.19   157.14
                              181.75   193.49   246.77   249.12   319.56
                              327.75   340.30   352.34   361.19   381.87
                              428.44   466.55   506.29   545.30   548.57
                              559.06   599.42   605.62   612.82   620.18
                              639.89   666.09   703.28   728.28   769.11
                              849.58   935.13   941.73   975.49  1016.77
                             1026.01  1059.29  1065.58  1094.25  1103.39
                             1151.67  1159.60  1208.61  1221.79  1259.83
                             1313.36  1334.61  1343.88  1357.63  1372.25
                             1382.69  1386.25  1425.80  1435.50  1451.76
                             1462.41  1484.66  1498.30  1514.02  1521.58
                             1537.88  1584.36  1597.86  1631.69  1655.46
                             1692.68  1701.67  1711.19  1717.58  1749.80
                             1767.96  1793.06  1820.09  1847.30  1862.39
                             1881.10  1884.47  1891.42  1917.60  1919.96
                             1929.46  1949.40  1966.44  1968.98  1982.31
                             1991.69  1991.92  2010.00  2016.08  2017.88
                             2034.76  2043.35  2122.93  2129.71  2134.89
                             2139.20  2144.09  2150.52  2151.55  2156.28
                             2164.74  2166.45  2167.77  2173.59  2176.93
                             2321.42  2342.09  2432.01  2448.75  2452.26
                             4286.49  4289.39  4300.46  4301.30  4319.48
                             4330.82  4333.67  4338.96  4345.03  4347.67
                             4350.89  4391.80  4394.63  4407.13  4414.76
                             4424.03  4431.24  4435.69  4445.51  4452.68
                             4467.32  4563.39  4583.62  4603.41  4608.31
                             5205.59

 Zero-point correction=                           0.418928 (Hartree/Particle)
 Thermal correction to Energy=                    0.442557
 Thermal correction to Enthalpy=                  0.443501
 Thermal correction to Gibbs Free Energy=         0.362462
 Sum of electronic and zero-point Energies=          -1003.346725
 Sum of electronic and thermal Energies=             -1003.323097
 Sum of electronic and thermal Enthalpies=           -1003.322153
 Sum of electronic and thermal Free Energies=        -1003.403192

                     E (Thermal)             CV                S
                      KCal/Mol        Cal/Mol-Kelvin    Cal/Mol-Kelvin
 Total                  277.708             89.094            170.561
 Electronic               0.000              0.000              0.000
 Translational            0.889              2.981             43.130
 Rotational               0.889              2.981             35.873
 Vibrational            275.931             83.133             91.558
 Vibration     1          0.593              1.986              7.275
 Vibration     2          0.593              1.986              6.986
 Vibration     3          0.593              1.985              6.369
 Vibration     4          0.594              1.981              5.283
 Vibration     5          0.595              1.980              5.046
 Vibration     6          0.597              1.971              4.312
 Vibration     7          0.600              1.962              3.879
 Vibration     8          0.603              1.952              3.539
 Vibration     9          0.605              1.946              3.384
 Vibration    10          0.606              1.942              3.283
 Vibration    11          0.611              1.927              3.001
 Vibration    12          0.613              1.919              2.881
 Vibration    13          0.626              1.878              2.419
 Vibration    14          0.627              1.876              2.401
 Vibration    15          0.648              1.807              1.942
 Vibration    16          0.651              1.799              1.896
 Vibration    17          0.655              1.785              1.829
 Vibration    18          0.660              1.771              1.767
 Vibration    19          0.663              1.761              1.723
 Vibration    20          0.671              1.736              1.626
 Vibration    21          0.691              1.678              1.429
 Vibration    22          0.709              1.627              1.288
 Vibration    23          0.728              1.571              1.158
 Vibration    24          0.749              1.515              1.043
 Vibration    25          0.751              1.510              1.034
 Vibration    26          0.757              1.495              1.006
 Vibration    27          0.780              1.434              0.904
 Vibration    28          0.783              1.425              0.889
 Vibration    29          0.788              1.414              0.872
 Vibration    30          0.792              1.403              0.855
 Vibration    31          0.804              1.372              0.812
 Vibration    32          0.821              1.332              0.758
 Vibration    33          0.845              1.275              0.687
 Vibration    34          0.861              1.236              0.643
 Vibration    35          0.890              1.174              0.577
 Vibration    36          0.948              1.052              0.466

 Optimization completed.
    -- Stationary point found.
 Normal termination of Gaussian 16 at Mon Jan  8 06:07:46 2024.
