 Gaussian 16, Revision A.03,
 Gaussian 16:  ES64L-G16RevA.03 25-Dec-2016

 ----------------------------------------------------------------------
 #P UB3LYP/6-311++G(d,p) nosym opt freq SCRF=(PCM,Solvent=n,n-DiMethylF
 ormamide)
 ----------------------------------------------------------------------

 --------
 Oxidized
 --------
 Symbolic Z-matrix:
 Charge =  0 Multiplicity = 1

 SCF Done:  E(UB3LYP) =  -798.744378221     A.U. after   16 cycles
 SCF Done:  E(UB3LYP) =  -798.744745461     A.U. after   12 cycles
 SCF Done:  E(UB3LYP) =  -798.744811025     A.U. after   12 cycles
 SCF Done:  E(UB3LYP) =  -798.744777418     A.U. after   11 cycles
 SCF Done:  E(UB3LYP) =  -798.744838561     A.U. after   11 cycles
 SCF Done:  E(UB3LYP) =  -798.744859751     A.U. after   10 cycles
 SCF Done:  E(UB3LYP) =  -798.744900359     A.U. after   11 cycles
 SCF Done:  E(UB3LYP) =  -798.744924190     A.U. after   11 cycles
 SCF Done:  E(UB3LYP) =  -798.744936301     A.U. after   11 cycles
 SCF Done:  E(UB3LYP) =  -798.744948554     A.U. after   10 cycles
 SCF Done:  E(UB3LYP) =  -798.744965012     A.U. after   11 cycles
 SCF Done:  E(UB3LYP) =  -798.744976372     A.U. after   11 cycles
 SCF Done:  E(UB3LYP) =  -798.744980285     A.U. after   11 cycles
 SCF Done:  E(UB3LYP) =  -798.744981169     A.U. after   10 cycles
 SCF Done:  E(UB3LYP) =  -798.744981499     A.U. after    9 cycles
 SCF Done:  E(UB3LYP) =  -798.744981585     A.U. after    9 cycles
 SCF Done:  E(UB3LYP) =  -798.744981606     A.U. after    8 cycles
 Optimization completed.
    -- Stationary point found.
 Normal termination of Gaussian 16 at Sun Feb 11 01:01:43 2024.

 ----------------------------------------------------------------------
 #P Geom=AllCheck Guess=TCheck SCRF=Check GenChk UB3LYP/6-311++G(d,p) F
 req
 ----------------------------------------------------------------------

 Structure from the checkpoint file:  "275.chk"
 --------
 Oxidized
 --------
 Charge =  0 Multiplicity = 1

                          Input orientation:
 ---------------------------------------------------------------------
 Center     Atomic      Atomic             Coordinates (Angstroms)
 Number     Number       Type             X           Y           Z
 ---------------------------------------------------------------------
      1          6           0        0.304184   -0.520461   -0.129961
      2          6           0       -0.264091   -1.668207   -0.584792
      3          6           0       -1.707803   -1.849361   -0.634358
      4          8           0       -2.197055   -2.899672   -1.052473
      5          6           0       -2.587183   -0.732762   -0.166482
      6          6           0       -3.973881   -0.871032   -0.198232
      7          6           0       -4.791969    0.169444    0.239356
      8          6           0       -4.228729    1.356062    0.712102
      9          6           0       -2.845274    1.503592    0.747392
     10          6           0       -2.020783    0.462921    0.309471
     11          6           0       -0.553113    0.627383    0.350163
     12          8           0       -0.010283    1.646574    0.753369
     13          1           0        0.345165   -2.490093   -0.928321
     14          1           0       -4.400121   -1.795586   -0.566425
     15          1           0       -5.869270    0.055277    0.212157
     16          1           0       -4.866918    2.162949    1.051871
     17          1           0       -2.393642    2.417765    1.111393
     18          7           0        1.638295   -0.226099   -0.034789
     19          6           0        2.726659   -1.036118   -0.387044
     20          7           0        3.930713   -0.453178   -0.172900
     21          6           0        5.174202   -1.146485   -0.482505
     22          8           0        2.591849   -2.165741   -0.845779
     23          1           0        1.813862    0.702369    0.337460
     24          1           0        3.983536    0.478722    0.207585
     25          1           0        5.269597   -2.063464    0.103243
     26          1           0        6.002074   -0.483647   -0.237593
     27          1           0        5.227121   -1.402300   -1.542994
 ---------------------------------------------------------------------

 SCF Done:  E(UB3LYP) =  -798.744981606     A.U. after    2 cycles

 Alpha  occ. eigenvalues --  -19.15001 -19.12550 -19.10837 -14.37574 -14.35427
 Alpha  occ. eigenvalues --  -10.32331 -10.29836 -10.27808 -10.26205 -10.21289
 Alpha  occ. eigenvalues --  -10.21067 -10.20831 -10.20288 -10.20152 -10.19962
 Alpha  occ. eigenvalues --  -10.19926 -10.19256  -1.08691  -1.07461  -1.05489
 Alpha  occ. eigenvalues --   -0.97139  -0.93832  -0.89320  -0.83194  -0.78206
 Alpha  occ. eigenvalues --   -0.77748  -0.73381  -0.69809  -0.65723  -0.65423
 Alpha  occ. eigenvalues --   -0.61081  -0.60222  -0.58916  -0.56026  -0.52753
 Alpha  occ. eigenvalues --   -0.52464  -0.49665  -0.48381  -0.47787  -0.46831
 Alpha  occ. eigenvalues --   -0.46363  -0.45982  -0.45461  -0.44909  -0.43931
 Alpha  occ. eigenvalues --   -0.42972  -0.42470  -0.41872  -0.40584  -0.38701
 Alpha  occ. eigenvalues --   -0.38474  -0.37240  -0.35291  -0.30239  -0.29729
 Alpha  occ. eigenvalues --   -0.29079  -0.28182  -0.28150  -0.27737  -0.25269
 Alpha virt. eigenvalues --   -0.12733  -0.05884  -0.03370  -0.01092  -0.00181
 Alpha virt. eigenvalues --    0.00787   0.01313   0.01747   0.01822   0.03095
 Alpha virt. eigenvalues --    0.03180   0.03396   0.03581   0.04314   0.04633

  Beta  occ. eigenvalues --  -19.15001 -19.12550 -19.10837 -14.37574 -14.35427
  Beta  occ. eigenvalues --  -10.32331 -10.29836 -10.27808 -10.26205 -10.21289
  Beta  occ. eigenvalues --  -10.21067 -10.20831 -10.20288 -10.20152 -10.19962
  Beta  occ. eigenvalues --  -10.19926 -10.19256  -1.08691  -1.07461  -1.05489
  Beta  occ. eigenvalues --   -0.97139  -0.93832  -0.89320  -0.83194  -0.78206
  Beta  occ. eigenvalues --   -0.77748  -0.73381  -0.69809  -0.65723  -0.65423
  Beta  occ. eigenvalues --   -0.61081  -0.60222  -0.58916  -0.56026  -0.52753
  Beta  occ. eigenvalues --   -0.52464  -0.49665  -0.48381  -0.47787  -0.46831
  Beta  occ. eigenvalues --   -0.46363  -0.45982  -0.45461  -0.44909  -0.43931
  Beta  occ. eigenvalues --   -0.42972  -0.42470  -0.41872  -0.40584  -0.38701
  Beta  occ. eigenvalues --   -0.38474  -0.37240  -0.35291  -0.30239  -0.29729
  Beta  occ. eigenvalues --   -0.29079  -0.28182  -0.28150  -0.27737  -0.25269
  Beta virt. eigenvalues --   -0.12733  -0.05884  -0.03370  -0.01092  -0.00181
  Beta virt. eigenvalues --    0.00787   0.01313   0.01747   0.01822   0.03095
  Beta virt. eigenvalues --    0.03180   0.03396   0.03581   0.04314   0.04633

 Mulliken charges and spin densities:
               1          2
     1  C    0.360365  -0.000000
     2  C    0.221613   0.000000
     3  C   -0.188970   0.000000
     4  O   -0.327266  -0.000000
     5  C    0.700874  -0.000000
     6  C    0.239128  -0.000000
     7  C   -0.309219   0.000000
     8  C   -0.419353   0.000000
     9  C    0.200065   0.000000
    10  C   -0.364346   0.000000
    11  C   -1.128745  -0.000000
    12  O   -0.258024   0.000000
    13  H    0.268232   0.000000
    14  H    0.179665  -0.000000
    15  H    0.211548   0.000000
    16  H    0.207815   0.000000
    17  H    0.192732  -0.000000
    18  N   -0.219551  -0.000000
    19  C    0.155147  -0.000000
    20  N   -0.251429  -0.000000
    21  C   -0.252733   0.000000
    22  O   -0.435463   0.000000
    23  H    0.371084   0.000000
    24  H    0.313703  -0.000000
    25  H    0.187065   0.000000
    26  H    0.159332   0.000000
    27  H    0.186730   0.000000
 Sum of Mulliken charges =  -0.00000   0.00000

 Dipole moment (field-independent basis, Debye):
    X=              2.1971    Y=              6.7527    Z=              2.7041  Tot=              7.5986
 Quadrupole moment (field-independent basis, Debye-Ang):
   XX=            -58.0627   YY=           -119.7797   ZZ=           -102.9181
   XY=             -3.8097   XZ=             -2.1437   YZ=             -7.3076

  Exact polarizability: 339.771  20.278 247.341   4.148  53.352 136.634
 Approx polarizability: 358.684  52.797 322.816  17.388  75.874 164.200

                      1                      2                      3
                      A                      A                      A
 Frequencies --     26.0389                42.9997                50.6696
 Red. masses --      3.9442                 5.1791                 1.3478
 Frc consts  --      0.0016                 0.0056                 0.0020
 IR Inten    --     13.5577                13.1091                 0.1064

                      4                      5                      6
                      A                      A                      A
 Frequencies --     82.2719                99.1275               115.9028
 Red. masses --      4.7013                 4.7927                 4.5725
 Frc consts  --      0.0187                 0.0277                 0.0362
 IR Inten    --     19.6783                 5.1938                 0.1176

                      7                      8                      9
                      A                      A                      A
 Frequencies --    136.4113               173.3646               205.4673
 Red. masses --      3.3762                 6.1292                 5.0239
 Frc consts  --      0.0370                 0.1085                 0.1250
 IR Inten    --     18.1380                 2.0692                 0.3220

                     10                     11                     12
                      A                      A                      A
 Frequencies --    236.2088               253.3636               286.4627
 Red. masses --      5.2939                 5.9891                 5.7125
 Frc consts  --      0.1740                 0.2265                 0.2762
 IR Inten    --      1.9754                 3.9675                 4.6032

                     13                     14                     15
                      A                      A                      A
 Frequencies --    316.0234               353.5244               389.4442
 Red. masses --      1.1526                 6.9521                10.8805
 Frc consts  --      0.0678                 0.5119                 0.9723
 IR Inten    --     76.4201                28.4548                41.1418

                     16                     17                     18
                      A                      A                      A
 Frequencies --    402.9474               448.8369               462.1816
 Red. masses --      3.5743                 4.7495                 9.9598
 Frc consts  --      0.3419                 0.5637                 1.2535
 IR Inten    --      0.1746                 2.2766                14.2572

                     19                     20                     21
                      A                      A                      A
 Frequencies --    475.1846               494.1932               579.5911
 Red. masses --      8.3883                 3.9639                 6.9548
 Frc consts  --      1.1160                 0.5704                 1.3765
 IR Inten    --      3.1076                 2.6699                50.2107

                     22                     23                     24
                      A                      A                      A
 Frequencies --    618.5251               651.4358               681.4409
 Red. masses --      1.1460                 6.2898                 3.8818
 Frc consts  --      0.2583                 1.5726                 1.0620
 IR Inten    --    170.7073                 1.6630                13.0654

                     25                     26                     27
                      A                      A                      A
 Frequencies --    693.3963               721.2128               733.1770
 Red. masses --      6.2317                 6.7235                 2.8604
 Frc consts  --      1.7653                 2.0605                 0.9059
 IR Inten    --      5.8231                 1.1805                70.4533

                     28                     29                     30
                      A                      A                      A
 Frequencies --    761.2040               767.3990               786.7281
 Red. masses --      5.7106                 5.8612                 2.4282
 Frc consts  --      1.9495                 2.0337                 0.8855
 IR Inten    --      1.0987                 0.0185                38.3230

                     31                     32                     33
                      A                      A                      A
 Frequencies --    813.4731               837.0614               895.1491
 Red. masses --      3.1085                 4.1164                 1.4350
 Frc consts  --      1.2119                 1.6993                 0.6775
 IR Inten    --     20.3349                15.0014                50.6987

                     34                     35                     36
                      A                      A                      A
 Frequencies --    912.8516               959.8650               999.3200
 Red. masses --      1.3741                 3.8540                 1.3997
 Frc consts  --      0.6747                 2.0921                 0.8235
 IR Inten    --      0.0593                 4.3757                 2.5586

                     37                     38                     39
                      A                      A                      A
 Frequencies --    999.7979              1023.3960              1051.2029
 Red. masses --      4.7927                 1.3343                 2.3205
 Frc consts  --      2.8226                 0.8234                 1.5108
 IR Inten    --     83.3792                 0.1080                20.6110

                     40                     41                     42
                      A                      A                      A
 Frequencies --   1095.7088              1108.5361              1136.3283
 Red. masses --      3.2825                 3.6219                 1.8028
 Frc consts  --      2.3219                 2.6224                 1.3715
 IR Inten    --     25.5015               149.7186                78.1100

                     43                     44                     45
                      A                      A                      A
 Frequencies --   1149.9841              1179.7351              1185.9827
 Red. masses --      1.2791                 1.1536                 1.6197
 Frc consts  --      0.9966                 0.9460                 1.3423
 IR Inten    --      0.2122                71.2605                43.4359

                     46                     47                     48
                      A                      A                      A
 Frequencies --   1224.9132              1238.7955              1271.0948
 Red. masses --      2.2030                 2.1441                 2.2577
 Frc consts  --      1.9475                 1.9387                 2.1492
 IR Inten    --    850.5704                94.8221                37.4340

                     49                     50                     51
                      A                      A                      A
 Frequencies --   1286.9559              1318.6645              1348.6002
 Red. masses --      1.8464                 4.4747                 2.9955
 Frc consts  --      1.8018                 4.5844                 3.2098
 IR Inten    --      4.1312               673.9362                72.5190

                     52                     53                     54
                      A                      A                      A
 Frequencies --   1365.4508              1454.7222              1473.1878
 Red. masses --      6.6868                 1.1781                 1.0385
 Frc consts  --      7.3455                 1.4689                 1.3280
 IR Inten    --     87.8005                96.6386                13.9680

                     55                     56                     57
                      A                      A                      A
 Frequencies --   1482.3188              1500.4152              1503.7194
 Red. masses --      2.3797                 1.0925                 2.6257
 Frc consts  --      3.0807                 1.4490                 3.4981
 IR Inten    --     15.8963                 6.2064               192.0397

                     58                     59                     60
                      A                      A                      A
 Frequencies --   1528.4109              1553.0211              1607.9634
 Red. masses --      2.2492                 1.6326                 6.2503
 Frc consts  --      3.0957                 2.3200                 9.5215
 IR Inten    --   1816.8366                80.6152                91.7190

                     61                     62                     63
                      A                      A                      A
 Frequencies --   1619.2203              1649.8998              1665.2425
 Red. masses --      6.0268                 5.2748                10.9079
 Frc consts  --      9.3099                 8.4601                17.8216
 IR Inten    --    305.6268               218.8753               404.8380

                     64                     65                     66
                      A                      A                      A
 Frequencies --   1695.6102              1725.2264              3039.1964
 Red. masses --     11.0741                 7.1155                 1.0349
 Frc consts  --     18.7591                12.4782                 5.6321
 IR Inten    --    901.1098               148.4388                56.4344

                     67                     68                     69
                      A                      A                      A
 Frequencies --   3093.3848              3144.0821              3179.7695
 Red. masses --      1.1053                 1.1012                 1.0875
 Frc consts  --      6.2316                 6.4138                 6.4784
 IR Inten    --     33.6046                19.1936                 3.3541

                     70                     71                     72
                      A                      A                      A
 Frequencies --   3191.7854              3202.7027              3206.0292
 Red. masses --      1.0911                 1.0927                 1.0960
 Frc consts  --      6.5491                 6.6037                 6.6373
 IR Inten    --      8.8145                 3.5190                16.9314

                     73                     74                     75
                      A                      A                      A
 Frequencies --   3238.2209              3522.7502              3635.6872
 Red. masses --      1.0914                 1.0765                 1.0790
 Frc consts  --      6.7428                 7.8709                 8.4035
 IR Inten    --      5.2304               150.0585               112.1600

 - Thermochemistry -
 -------------------
 Temperature   298.150 Kelvin.  Pressure   1.00000 Atm.
 Atom     1 has atomic number  6 and mass  12.00000

 Molecular mass:   230.06914 amu.
 Principal axes and moments of inertia in atomic units:
                           1         2         3
     Eigenvalues --  1553.614007162.674158704.94769
           X            0.98502   0.17156   0.01721
           Y           -0.15259   0.91386  -0.37627
           Z           -0.08028   0.36800   0.92635
 This molecule is an asymmetric top.
 Rotational symmetry number  1.
 Warning -- assumption of classical behavior for rotation
           may cause significant error
 Rotational temperatures (Kelvin)      0.05575     0.01209     0.00995
 Rotational constants (GHZ):           1.16164     0.25196     0.20732
 Zero-point vibrational energy     534492.5 (Joules/Mol)
                                  127.74677 (Kcal/Mol)
 Warning -- explicit consideration of  22 degrees of freedom as
           vibrations may cause significant error
 Vibrational temperatures:     37.46    61.87    72.90   118.37   142.62
          (Kelvin)            166.76   196.27   249.43   295.62   339.85
                              364.53   412.16   454.69   508.64   560.32
                              579.75   645.78   664.98   683.68   711.03
                              833.90   889.92   937.27   980.44   997.64
                             1037.66  1054.88  1095.20  1104.12  1131.93
                             1170.41  1204.34  1287.92  1313.39  1381.03
                             1437.80  1438.49  1472.44  1512.45  1576.48
                             1594.94  1634.92  1654.57  1697.38  1706.36
                             1762.38  1782.35  1828.82  1851.64  1897.26
                             1940.33  1964.58  2093.02  2119.59  2132.73
                             2158.76  2163.52  2199.04  2234.45  2313.50
                             2329.70  2373.84  2395.91  2439.60  2482.22
                             4372.73  4450.69  4523.63  4574.98  4592.27
                             4607.97  4612.76  4659.08  5068.45  5230.94

 Zero-point correction=                           0.203577 (Hartree/Particle)
 Thermal correction to Energy=                    0.218658
 Thermal correction to Enthalpy=                  0.219602
 Thermal correction to Gibbs Free Energy=         0.159593
 Sum of electronic and zero-point Energies=           -798.541404
 Sum of electronic and thermal Energies=              -798.526324
 Sum of electronic and thermal Enthalpies=            -798.525380
 Sum of electronic and thermal Free Energies=         -798.585389

                     E (Thermal)             CV                S
                      KCal/Mol        Cal/Mol-Kelvin    Cal/Mol-Kelvin
 Total                  137.210             55.803            126.300
 Electronic               0.000              0.000              0.000
 Translational            0.889              2.981             42.202
 Rotational               0.889              2.981             32.938
 Vibrational            135.432             49.841             51.161
 Vibration     1          0.593              1.985              6.110
 Vibration     2          0.595              1.980              5.116
 Vibration     3          0.595              1.977              4.791
 Vibration     4          0.600              1.961              3.836
 Vibration     5          0.604              1.950              3.471
 Vibration     6          0.608              1.936              3.168
 Vibration     7          0.614              1.917              2.854
 Vibration     8          0.627              1.875              2.399
 Vibration     9          0.640              1.832              2.084
 Vibration    10          0.655              1.785              1.831
 Vibration    11          0.665              1.757              1.707
 Vibration    12          0.684              1.699              1.495
 Vibration    13          0.703              1.643              1.331
 Vibration    14          0.730              1.568              1.150
 Vibration    15          0.757              1.493              1.002
 Vibration    16          0.768              1.464              0.952
 Vibration    17          0.808              1.363              0.799
 Vibration    18          0.820              1.334              0.760
 Vibration    19          0.832              1.305              0.723
 Vibration    20          0.850              1.263              0.673
 Vibration    21          0.936              1.075              0.486
 Vibration    22          0.978              0.993              0.419

                           ! Non-Optimized Parameters !
 Normal termination of Gaussian 16 at Sun Feb 11 01:28:36 2024.
