 Q-Chem 5.4, Q-Chem, Inc., Pleasanton, CA (2021)
 Q-Chem 5.4.0 for Intel X86 EM64T Linux

User input:
--------------------------------------------------------------
$molecule
-2 1
C                  3.8827580000      0.6176390000      0.0056110000
O                  2.6921660000      1.2485270000     -0.3978250000
C                  1.4968960000      0.5473360000     -0.2489370000
C                  1.4768040000     -0.8500900000     -0.1464000000
C                  0.2905000000     -1.6304550000     -0.0323060000
O                  0.2973320000     -2.9137350000      0.0661380000
C                 -0.9399450000     -0.8469520000     -0.0291550000
C                 -2.1889880000     -1.4943200000      0.0860500000
C                 -3.3845520000     -0.7958440000      0.0910600000
C                 -3.3633190000      0.6192280000     -0.0258310000
C                 -2.1545710000      1.2809570000     -0.1376270000
C                 -0.9149210000      0.5947520000     -0.1414790000
C                  0.3166890000      1.3657040000     -0.2535730000
O                  0.3281130000      2.6440120000     -0.3568810000
H                  3.8139580000      0.2201870000      1.0320860000
H                  4.6768570000      1.3707280000     -0.0276940000
H                  4.1697140000     -0.2091380000     -0.6587040000
H                  2.4065340000     -1.4097560000     -0.1416950000
H                 -2.1653720000     -2.5770020000      0.1717500000
H                 -4.3321110000     -1.3247540000      0.1815420000
H                 -4.2966870000      1.1808480000     -0.0279850000
H                 -2.1078520000      2.3621290000     -0.2282390000
$end
$rem
MAX_SCF_CYCLES=200
BASIS  =  6-311++G(d,p)
GUI  =  2
JOB_TYPE  =  SP
METHOD  =  B3LYP
SOLVENT_METHOD = PCM
$end
$pcm
theory = CPCM
$end
$solvent
dielectric 37.219
opticaldielectric 1.43
$end

--------------------------------------------------------------

             Standard Nuclear Orientation (Angstroms)
    I     Atom           X                Y                Z
 ----------------------------------------------------------------
    1      C       3.8827580000     0.6176390000     0.0056110000
    2      O       2.6921660000     1.2485270000    -0.3978250000
    3      C       1.4968960000     0.5473360000    -0.2489370000
    4      C       1.4768040000    -0.8500900000    -0.1464000000
    5      C       0.2905000000    -1.6304550000    -0.0323060000
    6      O       0.2973320000    -2.9137350000     0.0661380000
    7      C      -0.9399450000    -0.8469520000    -0.0291550000
    8      C      -2.1889880000    -1.4943200000     0.0860500000
    9      C      -3.3845520000    -0.7958440000     0.0910600000
   10      C      -3.3633190000     0.6192280000    -0.0258310000
   11      C      -2.1545710000     1.2809570000    -0.1376270000
   12      C      -0.9149210000     0.5947520000    -0.1414790000
   13      C       0.3166890000     1.3657040000    -0.2535730000
   14      O       0.3281130000     2.6440120000    -0.3568810000
   15      H       3.8139580000     0.2201870000     1.0320860000
   16      H       4.6768570000     1.3707280000    -0.0276940000
   17      H       4.1697140000    -0.2091380000    -0.6587040000
   18      H       2.4065340000    -1.4097560000    -0.1416950000
   19      H      -2.1653720000    -2.5770020000     0.1717500000
   20      H      -4.3321110000    -1.3247540000     0.1815420000
   21      H      -4.2966870000     1.1808480000    -0.0279850000
   22      H      -2.1078520000     2.3621290000    -0.2282390000
 ----------------------------------------------------------------

    9    -650.0719371306      7.09e-06  Convergence criterion met
 Total energy in the final basis set =     -650.0719371306

                    Orbital Energies (a.u.)
 --------------------------------------------------------------

 Alpha MOs
 -- Occupied --
-19.1237 -19.0208 -19.0178 -10.2005 -10.1816 -10.1744 -10.1688 -10.1486
-10.1465 -10.1455 -10.1438 -10.1370 -10.1348 -10.1207  -1.0347  -0.9380
 -0.9345  -0.8237  -0.7647  -0.7216  -0.7111  -0.6818  -0.6298  -0.5868
 -0.5701  -0.5298  -0.4917  -0.4838  -0.4556  -0.4447  -0.4300  -0.4204
 -0.4012  -0.3913  -0.3740  -0.3712  -0.3649  -0.3583  -0.3322  -0.3248
 -0.3205  -0.3146  -0.3019  -0.2848  -0.2294  -0.2243  -0.2036  -0.2019
 -0.1982  -0.1093

          Ground-State Mulliken Net Atomic Charges

     Atom                 Charge (a.u.)
  ----------------------------------------
      1 C                    -0.334608
      2 O                    -0.239921
      3 C                    -0.319525
      4 C                     0.603765
      5 C                    -0.571468
      6 O                    -0.724821
      7 C                     0.502128
      8 C                    -0.011346
      9 C                    -0.499736
     10 C                    -0.521294
     11 C                    -0.045067
     12 C                     0.426878
     13 C                    -0.774953
     14 O                    -0.741993
     15 H                     0.156859
     16 H                     0.168845
     17 H                     0.148434
     18 H                     0.150963
     19 H                     0.139578
     20 H                     0.172163
     21 H                     0.174362
     22 H                     0.140757
  ----------------------------------------
  Sum of atomic charges =    -2.000000

                    Cartesian Multipole Moments
 -----------------------------------------------------------------
    Charge (ESU x 10^10)
                -9.6064
    Dipole Moment (Debye)
         X       0.0973      Y      -0.2480      Z       1.8930
       Tot       1.9117
    Quadrupole Moments (Debye-Ang)
        XX     -92.5252     XY      -3.8661     YY    -152.1783
        XZ       2.2134     YZ       5.2364     ZZ     -93.4711

 Total job time:  38.96s(wall), 202.95s(cpu)
        *  Thank you very much for using Q-Chem.  Have a nice day.  *
