 Gaussian 16, Revision A.03,
 Gaussian 16:  ES64L-G16RevA.03 25-Dec-2016

 ----------------------------------------------------------------------
 #P UB3LYP/6-311++G(d,p) nosym opt freq SCRF=(PCM,Solvent=n,n-DiMethylF
 ormamide)
 ----------------------------------------------------------------------

 -------
 Radical
 -------
 Symbolic Z-matrix:
 Charge = -1 Multiplicity = 2

 SCF Done:  E(UB3LYP) =  -783.802339507     A.U. after   19 cycles
 SCF Done:  E(UB3LYP) =  -783.802591012     A.U. after   15 cycles
 SCF Done:  E(UB3LYP) =  -783.802695375     A.U. after   15 cycles
 SCF Done:  E(UB3LYP) =  -783.802728185     A.U. after   13 cycles
 SCF Done:  E(UB3LYP) =  -783.802741494     A.U. after   13 cycles
 SCF Done:  E(UB3LYP) =  -783.802749742     A.U. after   11 cycles
 SCF Done:  E(UB3LYP) =  -783.802753700     A.U. after   11 cycles
 SCF Done:  E(UB3LYP) =  -783.802754586     A.U. after   10 cycles
 SCF Done:  E(UB3LYP) =  -783.802754872     A.U. after   10 cycles
 Optimization completed.
    -- Stationary point found.
 Normal termination of Gaussian 16 at Sat Feb 10 17:22:28 2024.

 ----------------------------------------------------------------------
 #P Geom=AllCheck Guess=TCheck SCRF=Check GenChk UB3LYP/6-311++G(d,p) F
 req
 ----------------------------------------------------------------------

 Structure from the checkpoint file:  "154-rad.chk"
 -------
 Radical
 -------
 Charge = -1 Multiplicity = 2

                          Input orientation:
 ---------------------------------------------------------------------
 Center     Atomic      Atomic             Coordinates (Angstroms)
 Number     Number       Type             X           Y           Z
 ---------------------------------------------------------------------
      1          6           0       -4.399241   -0.341889    0.210974
      2          6           0       -2.918555   -0.623586    0.245178
      3          6           0       -2.441246   -1.931205    0.414368
      4          6           0       -1.088737   -2.212333    0.468646
      5          6           0       -0.136942   -1.183201    0.340379
      6          6           0        1.280172   -1.539888    0.396630
      7          8           0        1.656286   -2.735696    0.575633
      8          6           0        2.241307   -0.457920    0.235415
      9          6           0        3.628440   -0.732324    0.277938
     10          6           0        4.562692    0.271750    0.123283
     11          6           0        4.136686    1.602151   -0.082554
     12          6           0        2.787603    1.893551   -0.128328
     13          6           0        1.811034    0.882822    0.027876
     14          6           0        0.394415    1.239901   -0.026144
     15          8           0        0.060950    2.453534   -0.232041
     16          6           0       -0.576575    0.169510    0.153188
     17          6           0       -1.992625    0.430979    0.123399
     18          7           0       -2.457646    1.726225    0.021026
     19          1           0       -4.714107    0.108146   -0.739321
     20          1           0       -4.700598    0.351735    1.005157
     21          1           0       -4.970585   -1.262762    0.338695
     22          1           0       -3.161685   -2.738393    0.510262
     23          1           0       -0.735210   -3.225615    0.607296
     24          1           0        3.937731   -1.758430    0.435618
     25          1           0        5.622138    0.041391    0.159078
     26          1           0        4.869153    2.393015   -0.203580
     27          1           0        2.446252    2.909279   -0.285010
     28          1           0       -3.395274    1.863710   -0.321741
     29          1           0       -1.745829    2.405542   -0.239890
 ---------------------------------------------------------------------

 SCF Done:  E(UB3LYP) =  -783.802754872     A.U. after    1 cycles

 Alpha  occ. eigenvalues --  -19.07581 -19.06999 -14.30532 -10.22572 -10.21885
 Alpha  occ. eigenvalues --  -10.21337 -10.17146 -10.17109 -10.17091 -10.17053
 Alpha  occ. eigenvalues --  -10.17028 -10.16965 -10.16838 -10.16832 -10.16814
 Alpha  occ. eigenvalues --  -10.16617 -10.16459 -10.15482  -1.00002  -0.99246
 Alpha  occ. eigenvalues --   -0.91457  -0.85603  -0.83552  -0.78885  -0.75366
 Alpha  occ. eigenvalues --   -0.74843  -0.72829  -0.69331  -0.65734  -0.62899
 Alpha  occ. eigenvalues --   -0.61096  -0.58027  -0.55686  -0.54444  -0.51637
 Alpha  occ. eigenvalues --   -0.49890  -0.47587  -0.46851  -0.44950  -0.44094
 Alpha  occ. eigenvalues --   -0.43615  -0.42794  -0.42199  -0.41472  -0.41294
 Alpha  occ. eigenvalues --   -0.40580  -0.39407  -0.37906  -0.37803  -0.36806
 Alpha  occ. eigenvalues --   -0.36467  -0.35011  -0.34219  -0.33828  -0.33246
 Alpha  occ. eigenvalues --   -0.30771  -0.26418  -0.25508  -0.24474  -0.24261
 Alpha  occ. eigenvalues --   -0.23488  -0.20852  -0.13714
 Alpha virt. eigenvalues --   -0.04703  -0.01762  -0.00480   0.00226   0.00653
 Alpha virt. eigenvalues --    0.00998   0.01933   0.02148   0.03550   0.03905
 Alpha virt. eigenvalues --    0.04168   0.04196   0.04830   0.05817   0.06044

  Beta  occ. eigenvalues --  -19.07084 -19.06463 -14.30513 -10.22381 -10.21691
  Beta  occ. eigenvalues --  -10.21330 -10.17139 -10.17066 -10.17004 -10.16996
  Beta  occ. eigenvalues --  -10.16916 -10.16893 -10.16842 -10.16819 -10.16753
  Beta  occ. eigenvalues --  -10.16597 -10.16466 -10.15430  -0.99136  -0.98286
  Beta  occ. eigenvalues --   -0.91365  -0.85366  -0.83405  -0.78551  -0.75162
  Beta  occ. eigenvalues --   -0.74627  -0.72644  -0.69101  -0.65130  -0.62718
  Beta  occ. eigenvalues --   -0.60894  -0.57934  -0.55465  -0.54271  -0.51480
  Beta  occ. eigenvalues --   -0.49783  -0.47398  -0.46580  -0.44875  -0.43966
  Beta  occ. eigenvalues --   -0.43513  -0.42364  -0.42153  -0.41331  -0.40347
  Beta  occ. eigenvalues --   -0.40071  -0.39212  -0.37820  -0.36696  -0.36493
  Beta  occ. eigenvalues --   -0.35394  -0.34923  -0.34084  -0.33177  -0.32726
  Beta  occ. eigenvalues --   -0.30126  -0.24824  -0.24508  -0.24019  -0.23778
  Beta  occ. eigenvalues --   -0.23003  -0.20004
  Beta virt. eigenvalues --   -0.08083  -0.03706  -0.00789  -0.00469   0.00230
  Beta virt. eigenvalues --    0.01002   0.01027   0.01944   0.02145   0.03603
  Beta virt. eigenvalues --    0.03913   0.04174   0.04217   0.05028   0.06033

 Mulliken charges and spin densities:
               1          2
     1  C   -0.449687  -0.003257
     2  C    0.627956   0.077226
     3  C   -0.815994   0.010044
     4  C   -0.178425   0.066772
     5  C    0.504692   0.030142
     6  C   -0.638492   0.111371
     7  O   -0.474949   0.200650
     8  C    0.059882   0.030449
     9  C    0.069694   0.035970
    10  C   -0.449430   0.032290
    11  C   -0.522390   0.046202
    12  C    0.138630   0.022387
    13  C    0.127991   0.034875
    14  C   -0.449330   0.106876
    15  O   -0.463185   0.181761
    16  C    0.096644   0.001152
    17  C    0.141990   0.015475
    18  N   -0.407573   0.010537
    19  H    0.169374   0.003524
    20  H    0.172048   0.003800
    21  H    0.170348   0.000136
    22  H    0.141470  -0.001999
    23  H    0.160036  -0.004524
    24  H    0.161202  -0.001938
    25  H    0.179202  -0.002685
    26  H    0.178814  -0.003769
    27  H    0.166838  -0.000541
    28  H    0.263239  -0.000878
    29  H    0.319406  -0.002049
 Sum of Mulliken charges =  -1.00000   1.00000

 Dipole moment (field-independent basis, Debye):
    X=             -5.6780    Y=              2.4686    Z=             -1.9507  Tot=              6.4914
 Quadrupole moment (field-independent basis, Debye-Ang):
   XX=           -105.0224   YY=           -137.2675   ZZ=           -114.2734
   XY=              9.0130   XZ=              0.2982   YZ=              2.3612

  Exact polarizability: 509.083  17.314 380.579  -3.401 -32.365 152.912
 Approx polarizability: 511.781   5.409 453.133  -1.180 -39.659 175.116

                      1                      2                      3
                      A                      A                      A
 Frequencies --     46.2380                78.6167               115.5119
 Red. masses --      5.8215                 4.4502                 4.3323
 Frc consts  --      0.0073                 0.0162                 0.0341
 IR Inten    --     12.9031                 0.0821                 3.2422

                      4                      5                      6
                      A                      A                      A
 Frequencies --    132.6313               181.4257               190.3947
 Red. masses --      4.7755                 5.4485                 1.1205
 Frc consts  --      0.0495                 0.1057                 0.0239
 IR Inten    --      0.1489                 1.6268                 4.6668

                      7                      8                      9
                      A                      A                      A
 Frequencies --    202.1685               267.7722               291.4502
 Red. masses --      4.3191                 3.9841                 3.8823
 Frc consts  --      0.1040                 0.1683                 0.1943
 IR Inten    --     13.0217                12.8493                 6.9214

                     10                     11                     12
                      A                      A                      A
 Frequencies --    294.6484               334.5168               347.9825
 Red. masses --      4.3458                 6.3691                 3.2289
 Frc consts  --      0.2223                 0.4199                 0.2304
 IR Inten    --      1.4152                 2.8679                65.5482

                     13                     14                     15
                      A                      A                      A
 Frequencies --    376.9755               392.9359               420.0975
 Red. masses --      2.2862                 2.8156                 5.6910
 Frc consts  --      0.1914                 0.2561                 0.5918
 IR Inten    --    158.7381               110.7781                69.3679

                     16                     17                     18
                      A                      A                      A
 Frequencies --    429.2759               442.2870               473.8100
 Red. masses --      4.7283                 3.6094                 3.8590
 Frc consts  --      0.5134                 0.4160                 0.5104
 IR Inten    --      6.5975                21.3648                30.3095

                     19                     20                     21
                      A                      A                      A
 Frequencies --    485.0317               510.4078               564.7616
 Red. masses --      9.7579                 3.8558                 5.6088
 Frc consts  --      1.3525                 0.5918                 1.0540
 IR Inten    --      1.5047                30.9687                12.3624

                     22                     23                     24
                      A                      A                      A
 Frequencies --    575.7857               599.6066               662.2542
 Red. masses --      4.6489                 4.7958                 4.2643
 Frc consts  --      0.9081                 1.0159                 1.1019
 IR Inten    --      3.0369                21.3064                35.6260

                     25                     26                     27
                      A                      A                      A
 Frequencies --    663.8278               669.9374               689.9214
 Red. masses --      3.9751                 1.6540                 3.6619
 Frc consts  --      1.0321                 0.4374                 1.0270
 IR Inten    --     18.9519                76.1464                10.7839

                     28                     29                     30
                      A                      A                      A
 Frequencies --    710.8145               749.9766               750.2131
 Red. masses --      2.3652                 5.4622                 4.9068
 Frc consts  --      0.7041                 1.8102                 1.6271
 IR Inten    --    137.5963                15.2770                26.1075

                     31                     32                     33
                      A                      A                      A
 Frequencies --    783.4433               799.2836               819.0642
 Red. masses --      1.6593                 4.1273                 5.5399
 Frc consts  --      0.6001                 1.5535                 2.1897
 IR Inten    --     10.3734                 5.5402                22.8175

                     34                     35                     36
                      A                      A                      A
 Frequencies --    827.7400               882.5521               902.0473
 Red. masses --      1.7338                 1.4695                 6.1199
 Frc consts  --      0.6999                 0.6744                 2.9340
 IR Inten    --     45.7837                 0.0705                24.1720

                     37                     38                     39
                      A                      A                      A
 Frequencies --    961.7588               965.6679               988.0592
 Red. masses --      1.3247                 2.5887                 1.3639
 Frc consts  --      0.7219                 1.4223                 0.7845
 IR Inten    --      0.1139                 1.9854                 2.7548

                     40                     41                     42
                      A                      A                      A
 Frequencies --    999.2661              1002.8614              1038.3665
 Red. masses --      1.2831                 2.2741                 1.9093
 Frc consts  --      0.7549                 1.3476                 1.2129
 IR Inten    --      0.0369               110.4661                13.8376

                     43                     44                     45
                      A                      A                      A
 Frequencies --   1049.9763              1058.3365              1112.1852
 Red. masses --      1.4846                 2.5038                 2.0859
 Frc consts  --      0.9643                 1.6523                 1.5202
 IR Inten    --      1.4202               145.4885                25.0071

                     46                     47                     48
                      A                      A                      A
 Frequencies --   1148.1929              1167.8912              1168.6141
 Red. masses --      1.3481                 1.8696                 1.3950
 Frc consts  --      1.0471                 1.5025                 1.1225
 IR Inten    --     13.0321                35.6295                 4.9291

                     49                     50                     51
                      A                      A                      A
 Frequencies --   1204.9597              1214.6711              1238.8989
 Red. masses --      2.0056                 2.9335                 3.6235
 Frc consts  --      1.7157                 2.5501                 3.2768
 IR Inten    --      6.5605               235.4122               127.3152

                     52                     53                     54
                      A                      A                      A
 Frequencies --   1260.8624              1300.7140              1349.7037
 Red. masses --      2.4419                 2.5225                 7.1015
 Frc consts  --      2.2872                 2.5145                 7.6222
 IR Inten    --    125.5091                10.8316                72.2293

                     55                     56                     57
                      A                      A                      A
 Frequencies --   1358.8289              1363.2118              1394.6346
 Red. masses --      2.9844                 7.2019                 3.0380
 Frc consts  --      3.2466                 7.8854                 3.4815
 IR Inten    --     52.0329                19.9737               702.9144

                     58                     59                     60
                      A                      A                      A
 Frequencies --   1408.4835              1436.1847              1461.5409
 Red. masses --      1.3447                 3.4193                 4.1048
 Frc consts  --      1.5718                 4.1553                 5.1662
 IR Inten    --     78.7194               247.3527               720.7841

                     61                     62                     63
                      A                      A                      A
 Frequencies --   1471.0424              1476.1615              1492.5284
 Red. masses --      2.7944                 1.0536                 1.5091
 Frc consts  --      3.5628                 1.3527                 1.9806
 IR Inten    --    168.4294                20.8081                46.4456

                     64                     65                     66
                      A                      A                      A
 Frequencies --   1500.3947              1518.1874              1561.6997
 Red. masses --      2.6060                 3.4938                 3.6766
 Frc consts  --      3.4566                 4.7446                 5.2831
 IR Inten    --   1130.2568                17.5250                51.1385

                     67                     68                     69
                      A                      A                      A
 Frequencies --   1592.7319              1604.2720              1611.8952
 Red. masses --      1.7193                 4.4294                 4.6261
 Frc consts  --      2.5697                 6.7166                 7.0818
 IR Inten    --    146.7629                77.7090                69.0915

                     70                     71                     72
                      A                      A                      A
 Frequencies --   1624.5599              2994.3561              3031.9949
 Red. masses --      5.9167                 1.0425                 1.0980
 Frc consts  --      9.2002                 5.5073                 5.9473
 IR Inten    --      2.0468               112.8656                44.6792

                     73                     74                     75
                      A                      A                      A
 Frequencies --   3099.8389              3148.6691              3157.7370
 Red. masses --      1.0961                 1.0888                 1.0860
 Frc consts  --      6.2054                 6.3600                 6.3799
 IR Inten    --     32.6256                49.8811                15.0998

                     76                     77                     78
                      A                      A                      A
 Frequencies --   3172.0988              3189.5365              3193.4056
 Red. masses --      1.0905                 1.0921                 1.0938
 Frc consts  --      6.4652                 6.5457                 6.5723
 IR Inten    --     25.2181                19.0282                45.6794

                     79                     80                     81
                      A                      A                      A
 Frequencies --   3196.9018              3415.6172              3652.4047
 Red. masses --      1.0914                 1.0610                 1.0888
 Frc consts  --      6.5718                 7.2932                 8.5579
 IR Inten    --     13.5143               218.6424                97.8748

 - Thermochemistry -
 -------------------
 Temperature   298.150 Kelvin.  Pressure   1.00000 Atm.
 Atom     1 has atomic number  6 and mass  12.00000

 Molecular mass:   237.07898 amu.
 Principal axes and moments of inertia in atomic units:
                           1         2         3
     Eigenvalues --  2041.311065692.891047721.11398
           X            0.99266  -0.12092   0.00159
           Y            0.11945   0.98245   0.14329
           Z           -0.01889  -0.14205   0.98968
 This molecule is an asymmetric top.
 Rotational symmetry number  1.
 Warning -- assumption of classical behavior for rotation
           may cause significant error
 Rotational temperatures (Kelvin)      0.04243     0.01521     0.01122
 Rotational constants (GHZ):           0.88411     0.31702     0.23374
 Zero-point vibrational energy     580340.2 (Joules/Mol)
                                  138.70465 (Kcal/Mol)
 Warning -- explicit consideration of  23 degrees of freedom as
           vibrations may cause significant error
 Vibrational temperatures:     66.53   113.11   166.20   190.83   261.03
          (Kelvin)            273.94   290.88   385.26   419.33   423.93
                              481.30   500.67   542.38   565.35   604.43
                              617.63   636.35   681.71   697.85   734.36
                              812.57   828.43   862.70   952.84   955.10
                              963.89   992.64  1022.70  1079.05  1079.39
                             1127.20  1149.99  1178.45  1190.93  1269.80
                             1297.84  1383.76  1389.38  1421.60  1437.72
                             1442.89  1493.98  1510.68  1522.71  1600.19
                             1651.99  1680.33  1681.38  1733.67  1747.64
                             1782.50  1814.10  1871.44  1941.92  1955.05
                             1961.36  2006.57  2026.49  2066.35  2102.83
                             2116.50  2123.87  2147.42  2158.73  2184.33
                             2246.94  2291.59  2308.19  2319.16  2337.38
                             4308.21  4362.36  4459.98  4530.23  4543.28
                             4563.94  4589.03  4594.60  4599.63  4914.31
                             5255.00

 Zero-point correction=                           0.221040 (Hartree/Particle)
 Thermal correction to Energy=                    0.235108
 Thermal correction to Enthalpy=                  0.236052
 Thermal correction to Gibbs Free Energy=         0.180070
 Sum of electronic and zero-point Energies=           -783.581715
 Sum of electronic and thermal Energies=              -783.567647
 Sum of electronic and thermal Enthalpies=            -783.566703
 Sum of electronic and thermal Free Energies=         -783.622684

                     E (Thermal)             CV                S
                      KCal/Mol        Cal/Mol-Kelvin    Cal/Mol-Kelvin
 Total                  147.533             57.491            117.824
 Electronic               0.000              0.000              1.377
 Translational            0.889              2.981             42.291
 Rotational               0.889              2.981             32.862
 Vibrational            145.755             51.530             41.294
 Vibration     1          0.595              1.979              4.972
 Vibration     2          0.600              1.964              3.925
 Vibration     3          0.608              1.937              3.174
 Vibration     4          0.613              1.921              2.908
 Vibration     5          0.630              1.865              2.314
 Vibration     6          0.634              1.853              2.224
 Vibration     7          0.639              1.837              2.113
 Vibration     8          0.673              1.732              1.611
 Vibration     9          0.687              1.690              1.466
 Vibration    10          0.689              1.684              1.447
 Vibration    11          0.716              1.607              1.238
 Vibration    12          0.726              1.579              1.175
 Vibration    13          0.748              1.519              1.051
 Vibration    14          0.760              1.485              0.989
 Vibration    15          0.783              1.427              0.892
 Vibration    16          0.791              1.406              0.861
 Vibration    17          0.802              1.378              0.819
 Vibration    18          0.831              1.308              0.727
 Vibration    19          0.841              1.283              0.697
 Vibration    20          0.866              1.227              0.633
 Vibration    21          0.921              1.108              0.514
 Vibration    22          0.932              1.084              0.493
 Vibration    23          0.958              1.033              0.450

                           ! Non-Optimized Parameters !
 Normal termination of Gaussian 16 at Sat Feb 10 18:50:04 2024.
