 Q-Chem 5.4, Q-Chem, Inc., Pleasanton, CA (2021)
 Q-Chem 5.4.0 for Intel X86 EM64T Linux

User input:
--------------------------------------------------------------
$molecule
-2 1
Cl                 2.6512160000      3.2071670000     -0.5224900000
C                  2.4745940000      1.4433650000     -0.2068430000
C                  3.6791100000      0.7922760000     -0.0621600000
C                  3.6928900000     -0.6044680000      0.1913190000
C                  2.4984970000     -1.2779250000      0.2870200000
C                  1.2458110000     -0.6333650000      0.1424510000
C                  0.0726640000     -1.4857480000      0.2710110000
O                  0.1964630000     -2.7387400000      0.5010410000
C                 -1.1979180000     -0.8079350000      0.1199260000
C                 -2.4747570000     -1.4433940000      0.2068410000
Cl                -2.6520280000     -3.2071370000      0.5224650000
C                 -3.6791710000     -0.7921650000      0.0621530000
C                 -3.6928190000      0.6045760000     -0.1913200000
C                 -2.4983750000      1.2779000000     -0.2870140000
C                 -1.2457360000      0.6332470000     -0.1424510000
C                 -0.0725820000      1.4855940000     -0.2710220000
O                 -0.1960250000      2.7386250000     -0.5010080000
C                  1.1979370000      0.8077410000     -0.1199140000
H                  4.6023080000      1.3549800000     -0.1436740000
H                  4.6421870000     -1.1231730000      0.3063220000
H                  2.4548220000     -2.3444860000      0.4793860000
H                 -4.6024280000     -1.3547770000      0.1436630000
H                 -4.6420570000      1.1233850000     -0.3063240000
H                 -2.4546040000      2.3444570000     -0.4793770000
$end
$rem
MAX_SCF_CYCLES=200
BASIS  =  6-311++G(d,p)
GUI  =  2
JOB_TYPE  =  SP
METHOD  =  B3LYP
SOLVENT_METHOD = COSMO
$end
$solvent
dielectric 37.219
opticaldielectric 1.43
$end

--------------------------------------------------------------

             Standard Nuclear Orientation (Angstroms)
    I     Atom           X                Y                Z
 ----------------------------------------------------------------
    1      Cl      3.9993039543    -1.2624821248    -0.0001200027
    2      C       2.8689285355     0.1389732762     0.0000416793
    3      C       3.5109107991     1.3569911836     0.0000756676
    4      C       2.7439422934     2.5516018334     0.0000905630
    5      C       1.3721738860     2.4648315689    -0.0000007625
    6      C       0.6863673865     1.2257797346    -0.0000327988
    7      C      -0.7673961875     1.3027849581    -0.0000789821
    8      O      -1.3624765387     2.4359699817    -0.0002321176
    9      C      -1.4495916599     0.0255829017    -0.0000209100
   10      C      -2.8689565059    -0.1389881268    -0.0000424617
   11      Cl     -3.9998406314     1.2620593228     0.0001171761
   12      C      -3.5107770958    -1.3570658086    -0.0000942728
   13      C      -2.7437003442    -2.5516006584    -0.0001116578
   14      C      -1.3719620601    -2.4646921563    -0.0000023898
   15      C      -0.6862448603    -1.2255907340     0.0000511082
   16      C       0.7675059014    -1.3025643456     0.0001146847
   17      O       1.3629015305    -2.4355791090     0.0002253427
   18      C       1.4496251533    -0.0253603026     0.0000397461
   19      H       4.5946995121     1.3882465182     0.0000480740
   20      H       3.2467952334     3.5162697961     0.0001506773
   21      H       0.7412981133     3.3471355470     0.0000015360
   22      H      -4.5945648706    -1.3884296368    -0.0000804360
   23      H      -3.2464474217    -3.5163217836    -0.0001880475
   24      H      -0.7410084412    -3.3469397345    -0.0000048333
 ----------------------------------------------------------------

   11   -1608.1668070814      4.28e-06  Convergence criterion met
 Total energy in the final basis set =    -1608.1668070814
    6   -1608.4298308216      3.46e-06  Convergence criterion met
 Total energy in the final basis set =    -1608.4298308216

                    Orbital Energies (a.u.)
 --------------------------------------------------------------

 Alpha MOs
 -- Occupied --
********-101.5321 -19.0261 -19.0260 -10.2189 -10.2189 -10.1893 -10.1892
-10.1609 -10.1609 -10.1608 -10.1608 -10.1567 -10.1567 -10.1509 -10.1509
-10.1497 -10.1497  -9.4469  -9.4469  -7.2112  -7.2112  -7.2023  -7.2023
 -7.2011  -7.2011  -0.9531  -0.9496  -0.8621  -0.8621  -0.8156  -0.8065
 -0.7628  -0.7205  -0.7190  -0.7138  -0.6468  -0.6171  -0.6052  -0.5560
 -0.5252  -0.5243  -0.5008  -0.4559  -0.4500  -0.4432  -0.4389  -0.4107
 -0.4090  -0.3993  -0.3951  -0.3807  -0.3805  -0.3738  -0.3628  -0.3409
 -0.3387  -0.3361  -0.3323  -0.3196  -0.3069  -0.3057  -0.2996  -0.2983
 -0.2393  -0.2306  -0.2305  -0.2283  -0.2061  -0.1975  -0.1151

          Ground-State Mulliken Net Atomic Charges

     Atom                 Charge (a.u.)
  ----------------------------------------
      1 Cl                    0.305941
      2 C                     0.806731
      3 C                    -0.211534
      4 C                    -0.672287
      5 C                     0.354713
      6 C                     0.171854
      7 C                    -1.701863
      8 O                    -0.555118
      9 C                    -0.060477
     10 C                     0.806894
     11 Cl                    0.306547
     12 C                    -0.211566
     13 C                    -0.672384
     14 C                     0.355160
     15 C                     0.174210
     16 C                    -1.702260
     17 O                    -0.554373
     18 C                    -0.058434
     19 H                     0.201589
     20 H                     0.187807
     21 H                     0.169779
     22 H                     0.201565
     23 H                     0.187779
     24 H                     0.169725
  ----------------------------------------
  Sum of atomic charges =    -2.000000

                    Cartesian Multipole Moments
 -----------------------------------------------------------------
    Charge (ESU x 10^10)
                -9.6064
    Dipole Moment (Debye)
         X       0.0023      Y      -0.0051      Z      -0.0033
       Tot       0.0065
    Quadrupole Moments (Debye-Ang)
        XX    -168.2335     XY      30.1949     YY    -166.7534
        XZ       0.0006     YZ       0.0047     ZZ    -128.9914

 Total job time:  68.88s(wall), 529.83s(cpu)
        *  Thank you very much for using Q-Chem.  Have a nice day.  *
