 Gaussian 16, Revision A.03,
 Gaussian 16:  ES64L-G16RevA.03 25-Dec-2016

 ----------------------------------------------------------------------
 #P UB3LYP/6-311++G(d,p) nosym opt freq SCRF=(PCM,Solvent=n,n-DiMethylF
 ormamide)
 ----------------------------------------------------------------------

 -------
 Reduced
 -------
 Symbolic Z-matrix:
 Charge = -2 Multiplicity = 1

 SCF Done:  E(UB3LYP) =  -5991.13737986     A.U. after   17 cycles
 SCF Done:  E(UB3LYP) =  -5991.14081452     A.U. after   17 cycles
 SCF Done:  E(UB3LYP) =  -5991.14384926     A.U. after   18 cycles
 SCF Done:  E(UB3LYP) =  -5991.14507619     A.U. after   15 cycles
 SCF Done:  E(UB3LYP) =  -5991.14524109     A.U. after   15 cycles
 SCF Done:  E(UB3LYP) =  -5991.14546474     A.U. after   13 cycles
 SCF Done:  E(UB3LYP) =  -5991.14548830     A.U. after   12 cycles
 SCF Done:  E(UB3LYP) =  -5991.14549815     A.U. after   12 cycles
 SCF Done:  E(UB3LYP) =  -5991.14550121     A.U. after   11 cycles
 SCF Done:  E(UB3LYP) =  -5991.14550414     A.U. after   11 cycles
 SCF Done:  E(UB3LYP) =  -5991.14550545     A.U. after   10 cycles
 SCF Done:  E(UB3LYP) =  -5991.14550625     A.U. after   11 cycles
 SCF Done:  E(UB3LYP) =  -5991.14550689     A.U. after   11 cycles
 SCF Done:  E(UB3LYP) =  -5991.14550764     A.U. after   11 cycles
 SCF Done:  E(UB3LYP) =  -5991.14550883     A.U. after   11 cycles
 SCF Done:  E(UB3LYP) =  -5991.14550915     A.U. after   10 cycles
 SCF Done:  E(UB3LYP) =  -5991.14550921     A.U. after    9 cycles
 SCF Done:  E(UB3LYP) =  -5991.14550921     A.U. after   10 cycles
 SCF Done:  E(UB3LYP) =  -5991.14550922     A.U. after    9 cycles
 Optimization completed.
    -- Stationary point found.
 Normal termination of Gaussian 16 at Sat Feb 10 14:27:17 2024.

 ----------------------------------------------------------------------
 #P Geom=AllCheck Guess=TCheck SCRF=Check GenChk UB3LYP/6-311++G(d,p) F
 req
 ----------------------------------------------------------------------

 Structure from the checkpoint file:  "021-an.chk"
 -------
 Reduced
 -------
 Charge = -2 Multiplicity = 1

                          Input orientation:
 ---------------------------------------------------------------------
 Center     Atomic      Atomic             Coordinates (Angstroms)
 Number     Number       Type             X           Y           Z
 ---------------------------------------------------------------------
      1         35           0       -1.718600    2.395993    1.433937
      2          6           0       -0.707592    0.981610    0.529324
      3          6           0       -1.408810   -0.075326   -0.060573
      4          6           0       -0.708734   -1.146219   -0.721350
      5          8           0       -1.322750   -2.141851   -1.277826
      6          6           0        0.707586   -0.981509   -0.694897
      7          6           0        1.408806    0.075432   -0.104990
      8          6           0        0.708734    1.146334    0.555751
      9          8           0        1.322739    2.142007    1.112185
     10          6           0        2.901733    0.147544   -0.114765
     11          6           0        3.585177    0.837654   -1.124198
     12          6           0        4.977970    0.918465   -1.125808
     13          6           0        5.717234    0.310738   -0.110081
     14          6           0        5.049999   -0.375131    0.905575
     15          6           0        3.657005   -0.452100    0.901650
     16         35           0        1.718586   -2.395926   -1.599469
     17          6           0       -2.901736   -0.147496   -0.050772
     18          6           0       -3.657068    0.452216   -1.067099
     19          6           0       -5.050059    0.375164   -1.070996
     20          6           0       -5.717227   -0.310859   -0.055402
     21          6           0       -4.977899   -0.918654    0.960241
     22          6           0       -3.585113   -0.837759    0.958605
     23          1           0        3.017224    1.314119   -1.916282
     24          1           0        5.485774    1.456747   -1.919320
     25          1           0        6.800037    0.372379   -0.109063
     26          1           0        5.613772   -0.849887    1.701872
     27          1           0        3.145379   -0.986490    1.695278
     28          1           0       -3.145497    0.986723   -1.860684
     29          1           0       -5.613878    0.849966   -1.867233
     30          1           0       -6.800025   -0.372570   -0.056394
     31          1           0       -5.485656   -1.457045    1.753710
     32          1           0       -3.017107   -1.314275    1.750620
 ---------------------------------------------------------------------

 SCF Done:  E(UB3LYP) =  -5991.14550922     A.U. after    1 cycles

 Alpha  occ. eigenvalues -- -482.80295-482.80295 -62.45576 -62.45576 -56.27577
 Alpha  occ. eigenvalues --  -56.27577 -56.27252 -56.27252 -56.27221 -56.27221
 Alpha  occ. eigenvalues --  -19.02156 -19.02155 -10.18878 -10.18877 -10.18670
 Alpha  occ. eigenvalues --  -10.18668 -10.17630 -10.17629 -10.16981 -10.16981
 Alpha  occ. eigenvalues --  -10.16965 -10.16965 -10.16875 -10.16875 -10.16568
 Alpha  occ. eigenvalues --  -10.16568 -10.16563 -10.16563 -10.15298 -10.15297
 Alpha  occ. eigenvalues --   -8.66537  -8.66537  -6.49563  -6.49563  -6.48480
 Alpha  occ. eigenvalues --   -6.48480  -6.48388  -6.48387  -2.60677  -2.60677
 Alpha  occ. eigenvalues --   -2.60383  -2.60383  -2.60313  -2.60313  -2.59452
 Alpha  occ. eigenvalues --   -2.59451  -2.59451  -2.59451  -0.94095  -0.93605
 Alpha  occ. eigenvalues --   -0.85405  -0.85342  -0.81696  -0.79215  -0.75464
 Alpha  occ. eigenvalues --   -0.75318  -0.74090  -0.74089  -0.73434  -0.68296
 Alpha  occ. eigenvalues --   -0.65002  -0.61872  -0.59945  -0.59934  -0.58420
 Alpha  occ. eigenvalues --   -0.55075  -0.53028  -0.51167  -0.49938  -0.46589
 Alpha  occ. eigenvalues --   -0.45158  -0.45110  -0.44976  -0.44809  -0.42490
 Alpha  occ. eigenvalues --   -0.41549  -0.41532  -0.41338  -0.37707  -0.37437
 Alpha  occ. eigenvalues --   -0.37292  -0.36830  -0.36391  -0.35946  -0.34082
 Alpha  occ. eigenvalues --   -0.34065  -0.33811  -0.33628  -0.33048  -0.32460
 Alpha  occ. eigenvalues --   -0.29344  -0.28346  -0.27331  -0.26922  -0.25154
 Alpha  occ. eigenvalues --   -0.25098  -0.24290  -0.24181  -0.23030  -0.21302
 Alpha  occ. eigenvalues --   -0.20476  -0.20000  -0.12992
 Alpha virt. eigenvalues --   -0.01392  -0.00986  -0.00895  -0.00768  -0.00610
 Alpha virt. eigenvalues --   -0.00001   0.00662   0.00979   0.01055   0.01574
 Alpha virt. eigenvalues --    0.01839   0.02107   0.03099   0.03383   0.03847

  Beta  occ. eigenvalues -- -482.80295-482.80295 -62.45576 -62.45576 -56.27577
  Beta  occ. eigenvalues --  -56.27577 -56.27252 -56.27252 -56.27221 -56.27221
  Beta  occ. eigenvalues --  -19.02156 -19.02155 -10.18878 -10.18877 -10.18670
  Beta  occ. eigenvalues --  -10.18668 -10.17630 -10.17629 -10.16981 -10.16981
  Beta  occ. eigenvalues --  -10.16965 -10.16965 -10.16875 -10.16875 -10.16568
  Beta  occ. eigenvalues --  -10.16568 -10.16563 -10.16563 -10.15298 -10.15297
  Beta  occ. eigenvalues --   -8.66537  -8.66537  -6.49563  -6.49563  -6.48480
  Beta  occ. eigenvalues --   -6.48480  -6.48388  -6.48387  -2.60677  -2.60677
  Beta  occ. eigenvalues --   -2.60383  -2.60383  -2.60313  -2.60313  -2.59452
  Beta  occ. eigenvalues --   -2.59451  -2.59451  -2.59451  -0.94095  -0.93605
  Beta  occ. eigenvalues --   -0.85405  -0.85342  -0.81696  -0.79215  -0.75464
  Beta  occ. eigenvalues --   -0.75318  -0.74090  -0.74089  -0.73434  -0.68296
  Beta  occ. eigenvalues --   -0.65002  -0.61872  -0.59945  -0.59934  -0.58420
  Beta  occ. eigenvalues --   -0.55075  -0.53028  -0.51167  -0.49938  -0.46589
  Beta  occ. eigenvalues --   -0.45158  -0.45110  -0.44976  -0.44809  -0.42490
  Beta  occ. eigenvalues --   -0.41549  -0.41532  -0.41338  -0.37707  -0.37437
  Beta  occ. eigenvalues --   -0.37292  -0.36830  -0.36391  -0.35946  -0.34082
  Beta  occ. eigenvalues --   -0.34065  -0.33811  -0.33628  -0.33048  -0.32460
  Beta  occ. eigenvalues --   -0.29344  -0.28346  -0.27331  -0.26922  -0.25154
  Beta  occ. eigenvalues --   -0.25098  -0.24290  -0.24181  -0.23030  -0.21302
  Beta  occ. eigenvalues --   -0.20476  -0.20000  -0.12992
  Beta virt. eigenvalues --   -0.01392  -0.00986  -0.00895  -0.00768  -0.00610
  Beta virt. eigenvalues --   -0.00001   0.00662   0.00979   0.01055   0.01574
  Beta virt. eigenvalues --    0.01839   0.02107   0.03099   0.03383   0.03847

 Mulliken charges and spin densities:
               1          2
     1  Br  -0.191613  -0.000000
     2  C   -0.303851  -0.000000
     3  C    0.527186   0.000000
     4  C   -0.587142   0.000000
     5  O   -0.608049  -0.000000
     6  C   -0.303878  -0.000000
     7  C    0.527049   0.000000
     8  C   -0.587183   0.000000
     9  O   -0.608070   0.000000
    10  C    0.841262   0.000000
    11  C   -0.218032  -0.000000
    12  C   -0.392627   0.000000
    13  C   -0.361949  -0.000000
    14  C   -0.385319   0.000000
    15  C   -0.276710  -0.000000
    16  Br  -0.191613  -0.000000
    17  C    0.841228   0.000000
    18  C   -0.276694  -0.000000
    19  C   -0.385335   0.000000
    20  C   -0.361952  -0.000000
    21  C   -0.392623   0.000000
    22  C   -0.218015  -0.000000
    23  H    0.199783  -0.000000
    24  H    0.193355   0.000000
    25  H    0.171390  -0.000000
    26  H    0.193954  -0.000000
    27  H    0.198484  -0.000000
    28  H    0.198484   0.000000
    29  H    0.193954  -0.000000
    30  H    0.171389  -0.000000
    31  H    0.193355   0.000000
    32  H    0.199783  -0.000000
 Sum of Mulliken charges =  -2.00000   0.00000

 Dipole moment (field-independent basis, Debye):
    X=             -0.0001    Y=             -0.0007    Z=              0.7954  Tot=              0.7954
 Quadrupole moment (field-independent basis, Debye-Ang):
   XX=           -181.9939   YY=           -209.5728   ZZ=           -172.2267
   XY=            -11.2951   XZ=             -5.2093   YZ=            -34.0707

  Exact polarizability: 512.324  -8.146 375.839 -13.321  30.975 337.223
 Approx polarizability: 527.957   0.481 423.720  -6.645  20.965 391.756

                      1                      2                      3
                      A                      A                      A
 Frequencies --     24.4905                34.6665                41.2871
 Red. masses --      6.4785                 4.3424                 4.0567
 Frc consts  --      0.0023                 0.0031                 0.0041
 IR Inten    --      4.4936                 3.5174                 0.0000

                      4                      5                      6
                      A                      A                      A
 Frequencies --     56.5313                57.3752                60.2478
 Red. masses --      6.2817                 9.6846                 8.9721
 Frc consts  --      0.0118                 0.0188                 0.0192
 IR Inten    --      6.4583                 0.0004                10.2393

                      7                      8                      9
                      A                      A                      A
 Frequencies --     67.4703               130.4775               133.7270
 Red. masses --      8.2520                 9.3762                14.4018
 Frc consts  --      0.0221                 0.0940                 0.1517
 IR Inten    --      0.0000                 9.8693                 3.9866

                     10                     11                     12
                      A                      A                      A
 Frequencies --    159.4000               181.9180               197.2513
 Red. masses --      6.1653                12.1454                12.1046
 Frc consts  --      0.0923                 0.2368                 0.2775
 IR Inten    --      0.0000                 0.0000                 0.0000

                     13                     14                     15
                      A                      A                      A
 Frequencies --    206.1261               230.8756               286.0580
 Red. masses --      7.7668                 6.0105                 6.7356
 Frc consts  --      0.1944                 0.1888                 0.3247
 IR Inten    --      0.0000                 2.3008                 0.0000

                     16                     17                     18
                      A                      A                      A
 Frequencies --    299.7301               303.0493               317.4963
 Red. masses --      9.0755                 8.3836                 8.7610
 Frc consts  --      0.4804                 0.4536                 0.5203
 IR Inten    --      9.0512                 8.5090                15.4542

                     19                     20                     21
                      A                      A                      A
 Frequencies --    323.4888               416.0711               416.1342
 Red. masses --     12.0025                 2.8717                 2.8777
 Frc consts  --      0.7400                 0.2929                 0.2936
 IR Inten    --      0.0000                 0.0110                 0.0000

                     22                     23                     24
                      A                      A                      A
 Frequencies --    473.4636               486.1116               506.3833
 Red. masses --      8.1401                 7.1037                 4.7637
 Frc consts  --      1.0751                 0.9890                 0.7197
 IR Inten    --      0.0000                 0.0000                25.9627

                     25                     26                     27
                      A                      A                      A
 Frequencies --    508.1001               554.9882               592.9510
 Red. masses --      5.1767                 5.3481                 9.7157
 Frc consts  --      0.7874                 0.9706                 2.0126
 IR Inten    --      0.0000               106.3103                 1.4392

                     28                     29                     30
                      A                      A                      A
 Frequencies --    632.1005               634.8925               636.9119
 Red. masses --      6.5045                 6.8343                 7.5519
 Frc consts  --      1.5312                 1.6231                 1.8050
 IR Inten    --      0.0000                 2.7125                 0.0000

                     31                     32                     33
                      A                      A                      A
 Frequencies --    695.1146               706.2336               711.9615
 Red. masses --      5.2092                 6.6179                 1.6529
 Frc consts  --      1.4830                 1.9448                 0.4936
 IR Inten    --      0.0000               114.4259               259.9226

                     34                     35                     36
                      A                      A                      A
 Frequencies --    713.4232               724.0363               755.3464
 Red. masses --      1.3760                11.0546                11.4120
 Frc consts  --      0.4126                 3.4144                 3.8362
 IR Inten    --      0.0000                11.3949                 0.0000

                     37                     38                     39
                      A                      A                      A
 Frequencies --    768.0705               792.7933               809.8103
 Red. masses --      2.1642                 9.3119                 2.8869
 Frc consts  --      0.7522                 3.4483                 1.1155
 IR Inten    --     76.7626                 0.0000                 0.0000

                     40                     41                     42
                      A                      A                      A
 Frequencies --    857.5124               857.5351               877.5087
 Red. masses --      1.2514                 1.2508                 7.6314
 Frc consts  --      0.5421                 0.5419                 3.4622
 IR Inten    --      0.1665                 0.0000               381.4270

                     43                     44                     45
                      A                      A                      A
 Frequencies --    926.2862               932.6720               946.8089
 Red. masses --      1.4728                 1.5354                 8.1710
 Frc consts  --      0.7445                 0.7869                 4.3157
 IR Inten    --      8.2551                 0.0000                 0.0000

                     46                     47                     48
                      A                      A                      A
 Frequencies --    988.2326               988.2631              1001.8333
 Red. masses --      1.3751                 1.3751                 1.2783
 Frc consts  --      0.7912                 0.7913                 0.7559
 IR Inten    --      0.0000                 0.0235                 0.0977

                     49                     50                     51
                      A                      A                      A
 Frequencies --   1002.3301              1012.4747              1013.6133
 Red. masses --      1.2798                 6.2972                 6.3582
 Frc consts  --      0.7575                 3.8033                 3.8488
 IR Inten    --      0.0000                 1.2935                 0.0000

                     52                     53                     54
                      A                      A                      A
 Frequencies --   1042.0122              1046.5334              1088.6906
 Red. masses --      2.5450                 2.0971                 1.5875
 Frc consts  --      1.6281                 1.3533                 1.1086
 IR Inten    --     59.9600                 0.0000                 0.0000

                     55                     56                     57
                      A                      A                      A
 Frequencies --   1088.9896              1096.6308              1122.9410
 Red. masses --      1.5895                 4.8990                 9.6219
 Frc consts  --      1.1106                 3.4712                 7.1487
 IR Inten    --     29.3186               166.2599               365.0359

                     58                     59                     60
                      A                      A                      A
 Frequencies --   1171.0544              1171.0590              1189.9114
 Red. masses --      1.1037                 1.1037                 1.1305
 Frc consts  --      0.8918                 0.8918                 0.9431
 IR Inten    --      0.0000                 0.0111                 0.1379

                     61                     62                     63
                      A                      A                      A
 Frequencies --   1189.9438              1228.1597              1237.7801
 Red. masses --      1.1321                 6.1973                 4.5308
 Frc consts  --      0.9445                 5.5076                 4.0899
 IR Inten    --      0.0000               108.2737                 0.0000

                     64                     65                     66
                      A                      A                      A
 Frequencies --   1301.7139              1302.3535              1342.4493
 Red. masses --      4.3973                 4.4624                 1.5545
 Frc consts  --      4.3901                 4.4594                 1.6505
 IR Inten    --      0.0000                 0.0902                 0.0000

                     67                     68                     69
                      A                      A                      A
 Frequencies --   1342.6035              1363.2086              1391.9203
 Red. masses --      1.5466                12.0853                12.2361
 Frc consts  --      1.6425                13.2322                13.9676
 IR Inten    --      0.0918                 0.0008              2218.9206

                     70                     71                     72
                      A                      A                      A
 Frequencies --   1412.1940              1412.2674              1464.5787
 Red. masses --      6.8550                10.0311                 2.1092
 Frc consts  --      8.0546                11.7878                 2.6656
 IR Inten    --     94.0696                 0.2905                 0.0000

                     73                     74                     75
                      A                      A                      A
 Frequencies --   1464.9530              1517.1492              1521.5919
 Red. masses --      2.1127                 2.3265                 2.4214
 Frc consts  --      2.6714                 3.1551                 3.3030
 IR Inten    --      8.1816                 0.0000                97.4302

                     76                     77                     78
                      A                      A                      A
 Frequencies --   1579.1845              1606.5817              1606.8184
 Red. masses --     10.9446                 5.4509                 5.4607
 Frc consts  --     16.0811                 8.2894                 8.3068
 IR Inten    --      0.0000                 0.0000                 2.9136

                     79                     80                     81
                      A                      A                      A
 Frequencies --   1631.6870              1633.3960              3152.3031
 Red. masses --      5.7490                 5.8022                 1.0848
 Frc consts  --      9.0181                 9.1206                 6.3515
 IR Inten    --     85.4448                 0.0000                12.6696

                     82                     83                     84
                      A                      A                      A
 Frequencies --   3152.3043              3157.1234              3157.1360
 Red. masses --      1.0848                 1.0871                 1.0871
 Frc consts  --      6.3514                 6.3844                 6.3845
 IR Inten    --      1.1918                 0.0001                 0.1471

                     85                     86                     87
                      A                      A                      A
 Frequencies --   3167.2749              3167.2985              3172.2141
 Red. masses --      1.0910                 1.0910                 1.0946
 Frc consts  --      6.4481                 6.4483                 6.4895
 IR Inten    --     43.2000                 0.0073                 0.0282

                     88                     89                     90
                      A                      A                      A
 Frequencies --   3172.2355              3182.6162              3182.6911
 Red. masses --      1.0946                 1.0981                 1.0980
 Frc consts  --      6.4896                 6.5531                 6.5533
 IR Inten    --    146.2651                61.9145                 0.0010

 - Thermochemistry -
 -------------------
 Temperature   298.150 Kelvin.  Pressure   1.00000 Atm.
 Atom     1 has atomic number 35 and mass  78.91834

 Molecular mass:   415.90475 amu.
 Principal axes and moments of inertia in atomic units:
                           1         2         3
     Eigenvalues --  5686.17422********************
           X            0.97315   0.22751   0.03499
           Y           -0.17812   0.84056  -0.51160
           Z           -0.14581   0.49163   0.85851
 This molecule is an asymmetric top.
 Rotational symmetry number  1.
 Warning -- assumption of classical behavior for rotation
           may cause significant error
 Rotational temperatures (Kelvin)      0.01523     0.00610     0.00465
 Rotational constants (GHZ):           0.31739     0.12710     0.09688
 Zero-point vibrational energy     581882.7 (Joules/Mol)
                                  139.07330 (Kcal/Mol)
 Warning -- explicit consideration of  27 degrees of freedom as
           vibrations may cause significant error
 Vibrational temperatures:     35.24    49.88    59.40    81.34    82.55
          (Kelvin)             86.68    97.07   187.73   192.40   229.34
                              261.74   283.80   296.57   332.18   411.57
                              431.24   436.02   456.81   465.43   598.63
                              598.72   681.21   699.41   728.57   731.04
                              798.50   853.12   909.45   913.47   916.37
                             1000.11  1016.11  1024.35  1026.46  1041.73
                             1086.78  1105.08  1140.65  1165.14  1233.77
                             1233.80  1262.54  1332.72  1341.91  1362.25
                             1421.85  1421.89  1441.41  1442.13  1456.73
                             1458.36  1499.22  1505.73  1566.38  1566.81
                             1577.81  1615.66  1684.89  1684.89  1712.02
                             1712.06  1767.05  1780.89  1872.88  1873.80
                             1931.49  1931.71  1961.35  2002.66  2031.83
                             2031.94  2107.20  2107.74  2182.84  2189.23
                             2272.09  2311.51  2311.85  2347.63  2350.09
                             4535.46  4535.46  4542.40  4542.41  4557.00
                             4557.04  4564.11  4564.14  4579.07  4579.18

 Zero-point correction=                           0.221627 (Hartree/Particle)
 Thermal correction to Energy=                    0.240665
 Thermal correction to Enthalpy=                  0.241609
 Thermal correction to Gibbs Free Energy=         0.170571
 Sum of electronic and zero-point Energies=          -5990.923882
 Sum of electronic and thermal Energies=             -5990.904844
 Sum of electronic and thermal Enthalpies=           -5990.903900
 Sum of electronic and thermal Free Energies=        -5990.974938

                     E (Thermal)             CV                S
                      KCal/Mol        Cal/Mol-Kelvin    Cal/Mol-Kelvin
 Total                  151.020             70.784            149.512
 Electronic               0.000              0.000              0.000
 Translational            0.889              2.981             43.967
 Rotational               0.889              2.981             35.663
 Vibrational            149.242             64.823             69.883
 Vibration     1          0.593              1.985              6.232
 Vibration     2          0.594              1.983              5.543
 Vibration     3          0.594              1.981              5.196
 Vibration     4          0.596              1.975              4.575
 Vibration     5          0.596              1.975              4.545
 Vibration     6          0.597              1.973              4.449
 Vibration     7          0.598              1.970              4.226
 Vibration     8          0.612              1.923              2.939
 Vibration     9          0.613              1.920              2.892
 Vibration    10          0.621              1.892              2.557
 Vibration    11          0.630              1.864              2.309
 Vibration    12          0.637              1.844              2.159
 Vibration    13          0.641              1.831              2.078
 Vibration    14          0.653              1.794              1.872
 Vibration    15          0.684              1.700              1.497
 Vibration    16          0.692              1.674              1.418
 Vibration    17          0.694              1.668              1.400
 Vibration    18          0.704              1.640              1.323
 Vibration    19          0.708              1.628              1.292
 Vibration    20          0.779              1.435              0.905
 Vibration    21          0.779              1.435              0.905
 Vibration    22          0.830              1.309              0.728
 Vibration    23          0.842              1.281              0.694
 Vibration    24          0.862              1.236              0.642
 Vibration    25          0.863              1.232              0.638
 Vibration    26          0.910              1.129              0.534
 Vibration    27          0.951              1.047              0.462

 Optimization completed.
    -- Stationary point found.
 Normal termination of Gaussian 16 at Sat Feb 10 17:08:07 2024.
