 Q-Chem 5.4, Q-Chem, Inc., Pleasanton, CA (2021)
 Q-Chem 5.4.0 for Intel X86 EM64T Linux

User input:
--------------------------------------------------------------
$molecule
-1 2
C                 -5.0075000000     -1.0251720000      0.0456920000
O                 -3.6003650000     -1.0789870000      0.0538530000
C                 -2.8935880000      0.0900020000      0.0079670000
C                 -3.5308190000      1.3222770000     -0.0458250000
C                 -2.7750270000      2.5107380000     -0.0925330000
C                 -1.4022750000      2.4573280000     -0.0852120000
C                 -0.7248270000      1.2186750000     -0.0310130000
C                  0.7510360000      1.2823350000     -0.0282910000
O                  1.3206990000      2.3973960000     -0.0720850000
C                  1.4615680000      0.0035490000      0.0269900000
C                  2.8935880000     -0.0899970000      0.0348890000
O                  3.6003740000      1.0789270000     -0.0127320000
C                  5.0075200000      1.0249890000     -0.0066840000
C                  3.5308230000     -1.3222660000      0.0886250000
C                  2.7750210000     -2.5106790000      0.1365760000
C                  1.4022700000     -2.4572160000      0.1302680000
C                  0.7248080000     -1.2185690000      0.0760700000
C                 -0.7510500000     -1.2821930000      0.0740750000
O                 -1.3207220000     -2.3971800000      0.1197200000
C                 -1.4615680000     -0.0034650000      0.0174070000
H                 -5.3413230000     -2.0628000000      0.0873100000
H                 -5.4054480000     -0.4840580000      0.9150020000
H                 -5.3979270000     -0.5579190000     -0.8686920000
H                 -4.6105690000      1.3834820000     -0.0524010000
H                 -3.2900870000      3.4660820000     -0.1343560000
H                 -0.7927810000      3.3510680000     -0.1202590000
H                  5.3413680000      2.0625560000     -0.0495980000
H                  5.4040620000      0.4831110000     -0.8761590000
H                  5.3993070000      0.5584550000      0.9074870000
H                  4.6105770000     -1.3835030000      0.0941980000
H                  3.2900710000     -3.4660300000      0.1783260000
H                  0.7927830000     -3.3509350000      0.1660600000
$end
$rem
MAX_SCF_CYCLES=200
BASIS  =  6-311++G(d,p)
GUI  =  2
JOB_TYPE  =  SP
METHOD  =  B3LYP
SOLVENT_METHOD = PCM
$end
$pcm
theory = CPCM
$end
$solvent
dielectric 37.219
opticaldielectric 1.43
$end

--------------------------------------------------------------

             Standard Nuclear Orientation (Angstroms)
    I     Atom           X                Y                Z
 ----------------------------------------------------------------
    1      C      -5.0075000000    -1.0251720000     0.0456920000
    2      O      -3.6003650000    -1.0789870000     0.0538530000
    3      C      -2.8935880000     0.0900020000     0.0079670000
    4      C      -3.5308190000     1.3222770000    -0.0458250000
    5      C      -2.7750270000     2.5107380000    -0.0925330000
    6      C      -1.4022750000     2.4573280000    -0.0852120000
    7      C      -0.7248270000     1.2186750000    -0.0310130000
    8      C       0.7510360000     1.2823350000    -0.0282910000
    9      O       1.3206990000     2.3973960000    -0.0720850000
   10      C       1.4615680000     0.0035490000     0.0269900000
   11      C       2.8935880000    -0.0899970000     0.0348890000
   12      O       3.6003740000     1.0789270000    -0.0127320000
   13      C       5.0075200000     1.0249890000    -0.0066840000
   14      C       3.5308230000    -1.3222660000     0.0886250000
   15      C       2.7750210000    -2.5106790000     0.1365760000
   16      C       1.4022700000    -2.4572160000     0.1302680000
   17      C       0.7248080000    -1.2185690000     0.0760700000
   18      C      -0.7510500000    -1.2821930000     0.0740750000
   19      O      -1.3207220000    -2.3971800000     0.1197200000
   20      C      -1.4615680000    -0.0034650000     0.0174070000
   21      H      -5.3413230000    -2.0628000000     0.0873100000
   22      H      -5.4054480000    -0.4840580000     0.9150020000
   23      H      -5.3979270000    -0.5579190000    -0.8686920000
   24      H      -4.6105690000     1.3834820000    -0.0524010000
   25      H      -3.2900870000     3.4660820000    -0.1343560000
   26      H      -0.7927810000     3.3510680000    -0.1202590000
   27      H       5.3413680000     2.0625560000    -0.0495980000
   28      H       5.4040620000     0.4831110000    -0.8761590000
   29      H       5.3993070000     0.5584550000     0.9074870000
   30      H       4.6105770000    -1.3835030000     0.0941980000
   31      H       3.2900710000    -3.4660300000     0.1783260000
   32      H       0.7927830000    -3.3509350000     0.1660600000
 ----------------------------------------------------------------

    8    -918.1953176481      7.84e-06  Convergence criterion met
 Total energy in the final basis set =     -918.1953176481

                    Orbital Energies (a.u.)
 --------------------------------------------------------------

 Alpha MOs
 -- Occupied --
-19.1493 -19.1493 -19.0693 -19.0693 -10.2368 -10.2368 -10.2250 -10.2250
-10.2126 -10.2126 -10.1753 -10.1753 -10.1720 -10.1720 -10.1707 -10.1707
-10.1655 -10.1655 -10.1588 -10.1588  -1.0684  -1.0683  -1.0009  -0.9986
 -0.8573  -0.8466  -0.7826  -0.7577  -0.7553  -0.7398  -0.6957  -0.6928
 -0.6641  -0.6268  -0.6198  -0.5764  -0.5568  -0.5404  -0.5334  -0.4965
 -0.4861  -0.4836  -0.4667  -0.4655  -0.4652  -0.4630  -0.4485  -0.4319
 -0.4227  -0.4184  -0.4120  -0.4058  -0.3939  -0.3811  -0.3803  -0.3735
 -0.3611  -0.3555  -0.3513  -0.3455  -0.3317  -0.3311  -0.3189  -0.3154
 -0.2664  -0.2489  -0.2364  -0.2303  -0.2276  -0.2267  -0.1365

 Beta MOs
 -- Occupied --
-19.1493 -19.1493 -19.0642 -19.0642 -10.2367 -10.2367 -10.2232 -10.2232
-10.2126 -10.2126 -10.1748 -10.1748 -10.1710 -10.1710 -10.1701 -10.1701
-10.1649 -10.1649 -10.1588 -10.1588  -1.0682  -1.0681  -0.9919  -0.9895
 -0.8547  -0.8454  -0.7787  -0.7559  -0.7543  -0.7376  -0.6950  -0.6915
 -0.6573  -0.6249  -0.6174  -0.5757  -0.5554  -0.5382  -0.5322  -0.4947
 -0.4856  -0.4817  -0.4659  -0.4650  -0.4638  -0.4623  -0.4473  -0.4304
 -0.4215  -0.4073  -0.4069  -0.4052  -0.3923  -0.3786  -0.3739  -0.3607
 -0.3573  -0.3542  -0.3440  -0.3432  -0.3310  -0.3307  -0.3132  -0.3107
 -0.2466  -0.2433  -0.2319  -0.2237  -0.2221  -0.2219

          Ground-State Mulliken Net Atomic Charges

     Atom                 Charge (a.u.)    Spin (a.u.)
  --------------------------------------------------------
      1 C                    -0.314981      -0.000379
      2 O                    -0.157424       0.000378
      3 C                     0.066549       0.022939
      4 C                    -0.080894       0.048675
      5 C                    -0.510132       0.051266
      6 C                    -0.041356       0.030362
      7 C                     0.381276       0.052729
      8 C                    -0.378510       0.090619
      9 O                    -0.487931       0.199194
     10 C                    -0.075751       0.012317
     11 C                     0.066741       0.022936
     12 O                    -0.157400       0.000378
     13 C                    -0.314974      -0.000379
     14 C                    -0.080868       0.048680
     15 C                    -0.510294       0.051263
     16 C                    -0.041371       0.030368
     17 C                     0.381429       0.052725
     18 C                    -0.378484       0.090632
     19 O                    -0.487947       0.199197
     20 C                    -0.075624       0.012307
     21 H                     0.200106      -0.000175
     22 H                     0.164997       0.000402
     23 H                     0.164791       0.000395
     24 H                     0.203416      -0.003456
     25 H                     0.207061      -0.003622
     26 H                     0.158594      -0.001648
     27 H                     0.200113      -0.000175
     28 H                     0.164941       0.000399
     29 H                     0.164834       0.000397
     30 H                     0.203433      -0.003457
     31 H                     0.207069      -0.003622
     32 H                     0.158590      -0.001648
  --------------------------------------------------------
  Sum of atomic charges =    -1.000000

                    Cartesian Multipole Moments
 -----------------------------------------------------------------
    Charge (ESU x 10^10)
                -4.8032
    Dipole Moment (Debye)
         X       0.0001      Y      -0.0004      Z      -0.1174
       Tot       0.1174
    Quadrupole Moments (Debye-Ang)
        XX     -92.3596     XY     -17.2568     YY    -147.0245
        XZ       0.8200     YZ       0.9435     ZZ    -123.1638

 Total job time:  223.97s(wall), 504.15s(cpu)
        *  Thank you very much for using Q-Chem.  Have a nice day.  *
