 Gaussian 16, Revision A.03,
 Gaussian 16:  ES64L-G16RevA.03 25-Dec-2016

 ----------------------------------------------------------------
 #P UB3LYP/6-311++G(d,p) SCRF=(PCM,Solvent=n,n-DiMethylFormamide)
 ----------------------------------------------------------------

 ------------------
 Quinone PCM in DMF
 ------------------
 Symbolic Z-matrix:
 Charge =  0 Multiplicity = 1

                         Standard orientation:
 ---------------------------------------------------------------------
 Center     Atomic      Atomic             Coordinates (Angstroms)
 Number     Number       Type             X           Y           Z
 ---------------------------------------------------------------------
      1         17           0       -3.422800   -0.175158   -0.000017
      2          6           0       -1.704012   -0.360674    0.000011
      3          6           0       -1.118171   -1.562919    0.000010
      4          6           0        0.352101   -1.712234    0.000021
      5          8           0        0.865837   -2.810737   -0.000013
      6          6           0        1.176075   -0.456017    0.000008
      7          6           0        0.587438    0.758709    0.000011
      8         17           0        1.476548    2.233753   -0.000012
      9          6           0       -0.906847    0.912882    0.000043
     10          8           0       -1.434516    1.997607    0.000008
     11         17           0        2.882335   -0.675492   -0.000005
     12          1           0       -1.683503   -2.486188   -0.000004
 ---------------------------------------------------------------------

 SCF Done:  E(UB3LYP) =  -1760.42408635     A.U. after   21 cycles

 The electronic state is 1-A.
 Alpha  occ. eigenvalues -- -101.59071-101.59044-101.58743 -19.16944 -19.16333
 Alpha  occ. eigenvalues --  -10.32370 -10.31614 -10.29153 -10.29036 -10.28904
 Alpha  occ. eigenvalues --  -10.23352  -9.50516  -9.50488  -9.50187  -7.27005
 Alpha  occ. eigenvalues --   -7.26982  -7.26672  -7.26026  -7.25991  -7.25900
 Alpha  occ. eigenvalues --   -7.25873  -7.25689  -7.25587  -1.10804  -1.09834
 Alpha  occ. eigenvalues --   -0.94640  -0.92072  -0.89111  -0.84398  -0.77527
 Alpha  occ. eigenvalues --   -0.72497  -0.64732  -0.62909  -0.57169  -0.53047
 Alpha  occ. eigenvalues --   -0.50720  -0.49015  -0.48826  -0.47819  -0.46824
 Alpha  occ. eigenvalues --   -0.45098  -0.44875  -0.41511  -0.38635  -0.36864
 Alpha  occ. eigenvalues --   -0.36087  -0.34882  -0.33898  -0.32067  -0.31263
 Alpha  occ. eigenvalues --   -0.30963  -0.28772
 Alpha virt. eigenvalues --   -0.15719  -0.05484  -0.03210  -0.02412  -0.00373
 Alpha virt. eigenvalues --    0.00005   0.01887   0.02020   0.02874   0.04495
 Alpha virt. eigenvalues --    0.04900   0.05259   0.06675   0.06794   0.07321

  Beta  occ. eigenvalues -- -101.59071-101.59044-101.58743 -19.16944 -19.16333
  Beta  occ. eigenvalues --  -10.32370 -10.31614 -10.29153 -10.29036 -10.28904
  Beta  occ. eigenvalues --  -10.23352  -9.50516  -9.50488  -9.50187  -7.27005
  Beta  occ. eigenvalues --   -7.26982  -7.26672  -7.26026  -7.25991  -7.25900
  Beta  occ. eigenvalues --   -7.25873  -7.25689  -7.25587  -1.10804  -1.09834
  Beta  occ. eigenvalues --   -0.94640  -0.92072  -0.89111  -0.84398  -0.77527
  Beta  occ. eigenvalues --   -0.72497  -0.64732  -0.62909  -0.57169  -0.53047
  Beta  occ. eigenvalues --   -0.50720  -0.49015  -0.48826  -0.47819  -0.46824
  Beta  occ. eigenvalues --   -0.45098  -0.44875  -0.41511  -0.38635  -0.36864
  Beta  occ. eigenvalues --   -0.36087  -0.34882  -0.33898  -0.32067  -0.31263
  Beta  occ. eigenvalues --   -0.30963  -0.28772
  Beta virt. eigenvalues --   -0.15719  -0.05484  -0.03210  -0.02412  -0.00373
  Beta virt. eigenvalues --    0.00005   0.01887   0.02020   0.02874   0.04495
  Beta virt. eigenvalues --    0.04900   0.05259   0.06675   0.06794   0.07321

 Mulliken charges and spin densities:
               1          2
     1  Cl   0.335512  -0.000000
     2  C    1.101244   0.000000
     3  C   -0.212528  -0.000000
     4  C   -1.115457   0.000000
     5  O   -0.218798  -0.000000
     6  C    0.419212   0.000000
     7  C    0.660139   0.000000
     8  Cl   0.411025  -0.000000
     9  C   -1.908944  -0.000000
    10  O   -0.156232   0.000000
    11  Cl   0.425134  -0.000000
    12  H    0.259692   0.000000
 Sum of Mulliken charges =  -0.00000   0.00000

 Dipole moment (field-independent basis, Debye):
    X=             -0.6369    Y=             -0.8875    Z=              0.0001  Tot=              1.0924
 Quadrupole moment (field-independent basis, Debye-Ang):
   XX=            -83.2277   YY=            -94.1961   ZZ=            -80.5568
   XY=             10.3144   XZ=              0.0000   YZ=             -0.0001

 Normal termination of Gaussian 16 at Sun Jan 21 06:51:43 2024.
