 Q-Chem 5.4, Q-Chem, Inc., Pleasanton, CA (2021)
 Q-Chem 5.4.0 for Intel X86 EM64T Linux

User input:
--------------------------------------------------------------
$molecule
-2 1
C                  5.2483380000     -2.3237350000      0.3836840000
C                  6.0139420000     -1.5051750000     -0.4243270000
C                  5.3805180000     -0.6062450000     -1.3193870000
C                  3.8322280000     -2.3006670000      0.3512790000
C                  3.1955630000     -1.3910600000     -0.5561160000
C                  4.0002570000     -0.5621510000     -1.3716050000
C                  3.0951740000     -3.1975640000      1.2419630000
C                  1.6602510000     -3.1291850000      1.1512750000
C                  1.0246190000     -2.1983090000      0.2282440000
C                  1.7460640000     -1.3041860000     -0.6504830000
C                  0.7906940000     -3.9775530000      1.9681290000
C                 -0.6399290000     -3.8644720000      1.8630960000
C                 -0.3888710000     -2.1401370000      0.1692650000
C                 -1.2031170000     -2.9223240000      0.9429790000
O                  3.7503690000     -3.9749460000      2.0302670000
O                  1.1746940000     -0.4920100000     -1.4565340000
H                  5.7017810000     -3.0212470000      1.0801390000
H                  7.1006190000     -1.5494090000     -0.3744860000
H                  5.9772440000      0.0423110000     -1.9581990000
H                 -2.2863740000     -2.8382140000      0.8768030000
H                  3.4774310000      0.1119510000     -2.0428680000
H                 -0.8024040000     -1.4240700000     -0.5342860000
C                 -1.4761410000     -4.6920390000      2.6473870000
C                 -0.9468530000     -5.6124430000      3.5394940000
C                  0.4350270000     -5.7306350000      3.6684980000
C                  1.2803990000     -4.9370920000      2.8923240000
O                 -1.7644010000     -6.4349020000      4.3212440000
H                 -2.5559750000     -4.6158390000      2.5210740000
H                  0.8430970000     -6.4427600000      4.3797130000
H                  2.3559250000     -5.0214050000      2.9737270000
H                 -2.6569820000     -6.0670570000      4.2991040000
$end
$rem
MAX_SCF_CYCLES=200
BASIS  =  6-311++G(d,p)
GUI  =  2
JOB_TYPE  =  SP
METHOD  =  B3LYP
SOLVENT_METHOD = COSMO
$end
$solvent
dielectric 37.219
opticaldielectric 1.43
$end

--------------------------------------------------------------

             Standard Nuclear Orientation (Angstroms)
    I     Atom           X                Y                Z
 ----------------------------------------------------------------
    1      C       3.1459095792    -1.9254609502     0.0035095698
    2      C       4.5093470052    -1.7017359679    -0.0040569454
    3      C       5.0058212737    -0.3736152491    -0.0105507358
    4      C       2.2093659752    -0.8625235936     0.0035601063
    5      C       2.7155247910     0.4790557664    -0.0042486581
    6      C       4.1148493114     0.6827749202    -0.0101023774
    7      C       0.7821169262    -1.1847290815     0.0151614436
    8      C      -0.1137485443    -0.0581261547     0.0054186963
    9      C       0.4122500014     1.3004956585     0.0013330823
   10      C       1.8213073496     1.6270428374    -0.0035961078
   11      C      -1.5681900708    -0.2244572413    -0.0010553069
   12      C      -2.4303493886     0.9275215751     0.0102375662
   13      C      -0.4905337182     2.3912596997     0.0069763393
   14      C      -1.8505455640     2.2371917036     0.0157648096
   15      O       0.4187100726    -2.4187180447     0.0304308810
   16      O       2.2691569009     2.8250522555    -0.0075911395
   17      H       2.7337491936    -2.9290859509     0.0101266617
   18      H       5.2013603040    -2.5422266892    -0.0048419185
   19      H       6.0786556048    -0.1897960269    -0.0155072696
   20      H      -2.5109704956     3.1023209056     0.0327899899
   21      H       4.4545882762     1.7137502391    -0.0147794816
   22      H      -0.0378154890     3.3780679248     0.0080862599
   23      C      -3.8345423570     0.7624843245    -0.0050867473
   24      C      -4.4117564483    -0.4984143367    -0.0152193020
   25      C      -3.5977247223    -1.6287018613    -0.0127341499
   26      C      -2.2092841371    -1.4907323816    -0.0154825246
   27      O      -5.7992521306    -0.6734168523    -0.0288740736
   28      H      -4.4661197558     1.6501344678    -0.0365525028
   29      H      -4.0560056474    -2.6132816706    -0.0055850630
   30      H      -1.5619996910    -2.3576089577    -0.0217399093
   31      H      -6.2032646173     0.1684088847     0.2173053411
 ----------------------------------------------------------------

   14    -917.8686921856      4.90e-06  Convergence criterion met
 Total energy in the final basis set =     -917.8686921856
    6    -918.1350663117      3.08e-06  Convergence criterion met
 Total energy in the final basis set =     -918.1350663117

                    Orbital Energies (a.u.)
 --------------------------------------------------------------

 Alpha MOs
 -- Occupied --
-19.1458 -19.0317 -19.0259 -10.2205 -10.1845 -10.1811 -10.1697 -10.1637
-10.1574 -10.1553 -10.1544 -10.1538 -10.1509 -10.1494 -10.1491 -10.1482
-10.1466 -10.1446 -10.1435 -10.1427 -10.1368  -1.0472  -0.9534  -0.9470
 -0.8504  -0.8314  -0.7998  -0.7605  -0.7374  -0.7276  -0.7236  -0.6948
 -0.6463  -0.6143  -0.6128  -0.5884  -0.5713  -0.5405  -0.5306  -0.5120
 -0.4926  -0.4780  -0.4547  -0.4421  -0.4370  -0.4309  -0.4143  -0.4069
 -0.4061  -0.3984  -0.3894  -0.3831  -0.3797  -0.3747  -0.3716  -0.3554
 -0.3506  -0.3394  -0.3368  -0.3205  -0.3199  -0.3179  -0.3062  -0.2891
 -0.2549  -0.2355  -0.2313  -0.2234  -0.2112  -0.1987  -0.1962  -0.1158

          Ground-State Mulliken Net Atomic Charges

     Atom                 Charge (a.u.)
  ----------------------------------------
      1 C                    -0.028994
      2 C                    -0.522253
      3 C                    -0.527761
      4 C                     0.189163
      5 C                     0.184775
      6 C                    -0.073435
      7 C                    -0.510527
      8 C                     0.498580
      9 C                     0.553748
     10 C                    -0.681952
     11 C                     0.768260
     12 C                     0.431186
     13 C                    -0.257704
     14 C                    -0.508206
     15 O                    -0.647057
     16 O                    -0.665225
     17 H                     0.155136
     18 H                     0.184612
     19 H                     0.183703
     20 H                     0.165171
     21 H                     0.157334
     22 H                     0.154131
     23 C                    -0.306655
     24 C                    -0.467011
     25 C                    -0.426486
     26 C                    -0.506701
     27 O                    -0.345524
     28 H                     0.157008
     29 H                     0.212946
     30 H                     0.162787
     31 H                     0.316952
  ----------------------------------------
  Sum of atomic charges =    -2.000001

                    Cartesian Multipole Moments
 -----------------------------------------------------------------
    Charge (ESU x 10^10)
                -9.6064
    Dipole Moment (Debye)
         X      -8.6537      Y       0.1764      Z       0.4187
       Tot       8.6657
    Quadrupole Moments (Debye-Ang)
        XX    -169.0488     XY     -28.9049     YY    -175.1270
        XZ      -3.2014     YZ       0.4534     ZZ    -135.4922

 Total job time:  116.08s(wall), 874.09s(cpu)
        *  Thank you very much for using Q-Chem.  Have a nice day.  *
