 Gaussian 16, Revision A.03,
 Gaussian 16:  ES64L-G16RevA.03 25-Dec-2016

 --------------------------------------
 #P UB3LYP/6-311++G(d,p) nosym opt freq
 --------------------------------------

 -------
 Reduced
 -------
 Symbolic Z-matrix:
 Charge = -2 Multiplicity = 1

 SCF Done:  E(UB3LYP) =  -573.525669532     A.U. after   43 cycles
 SCF Done:  E(UB3LYP) =  -573.557572037     A.U. after   31 cycles
 SCF Done:  E(UB3LYP) =  -573.563850912     A.U. after   20 cycles
 SCF Done:  E(UB3LYP) =  -573.564842333     A.U. after   19 cycles
 SCF Done:  E(UB3LYP) =  -573.565170289     A.U. after   19 cycles
 SCF Done:  E(UB3LYP) =  -573.565198438     A.U. after   17 cycles
 SCF Done:  E(UB3LYP) =  -573.565175924     A.U. after   19 cycles
 SCF Done:  E(UB3LYP) =  -573.565199425     A.U. after   18 cycles
 SCF Done:  E(UB3LYP) =  -573.565203572     A.U. after   17 cycles
 Optimization completed.
    -- Stationary point found.
 Normal termination of Gaussian 16 at Sun Dec 17 21:11:36 2023.

 ----------------------------------------------------------------------
 #P Geom=AllCheck Guess=TCheck SCRF=Check GenChk UB3LYP/6-311++G(d,p) F
 req
 ----------------------------------------------------------------------

 Structure from the checkpoint file:  "059-an.chk"
 -------
 Reduced
 -------
 Charge = -2 Multiplicity = 1

                          Input orientation:
 ---------------------------------------------------------------------
 Center     Atomic      Atomic             Coordinates (Angstroms)
 Number     Number       Type             X           Y           Z
 ---------------------------------------------------------------------
      1          6           0       -0.554910    1.208046   -0.281585
      2          6           0       -1.452895    0.172434   -0.799413
      3          6           0       -1.177637   -1.172378   -0.676362
      4          6           0       -0.002124   -1.721273   -0.039390
      5          6           0        0.865453   -0.731994    0.460682
      6          6           0        0.654206    0.694744    0.374714
      7          8           0       -0.856860    2.436250   -0.422550
      8          8           0        0.194583   -3.006873    0.041318
      9          6           0        1.626874    1.615830    0.931511
     10          6           0        2.906344    1.069818    1.627202
     11          8           0        1.572439    2.860987    0.928047
     12          1           0        3.022559   -0.011893    1.668375
     13          1           0        2.917501    1.468088    2.649082
     14          1           0        3.770201    1.501041    1.106841
     15          1           0        1.755953   -1.116959    0.943938
     16          6           0       -2.719103    0.635823   -1.488198
     17          1           0       -1.884051   -1.902388   -1.081869
     18          1           0       -2.742264    1.728710   -1.476359
     19          1           0       -3.624809    0.259843   -0.986779
     20          1           0       -2.770312    0.294805   -2.534233
 ---------------------------------------------------------------------

 SCF Done:  E(UB3LYP) =  -573.565203572     A.U. after    2 cycles

 Alpha  occ. eigenvalues --  -18.80279 -18.76221 -18.74086  -9.96259  -9.92635
 Alpha  occ. eigenvalues --   -9.91625  -9.90878  -9.90435  -9.88297  -9.87663
 Alpha  occ. eigenvalues --   -9.87509  -9.85680  -0.72903  -0.68160  -0.64959
 Alpha  occ. eigenvalues --   -0.52942  -0.49294  -0.46116  -0.41857  -0.37725
 Alpha  occ. eigenvalues --   -0.33023  -0.26868  -0.23606  -0.19035  -0.18378
 Alpha  occ. eigenvalues --   -0.17740  -0.16268  -0.16243  -0.14915  -0.13042
 Alpha  occ. eigenvalues --   -0.11166  -0.10079  -0.09426  -0.08817  -0.06660
 Alpha  occ. eigenvalues --   -0.06252  -0.05450  -0.04315   0.02954   0.04161
 Alpha  occ. eigenvalues --    0.04277   0.07628   0.08240   0.14334
 Alpha virt. eigenvalues --    0.17712   0.17994   0.20739   0.20899   0.20987
 Alpha virt. eigenvalues --    0.21695   0.23151   0.23907   0.23935   0.26406
 Alpha virt. eigenvalues --    0.27073   0.28395   0.29008   0.29586   0.30370

  Beta  occ. eigenvalues --  -18.80279 -18.76221 -18.74086  -9.96259  -9.92635
  Beta  occ. eigenvalues --   -9.91625  -9.90878  -9.90435  -9.88297  -9.87663
  Beta  occ. eigenvalues --   -9.87509  -9.85680  -0.72903  -0.68160  -0.64959
  Beta  occ. eigenvalues --   -0.52942  -0.49294  -0.46116  -0.41857  -0.37725
  Beta  occ. eigenvalues --   -0.33023  -0.26868  -0.23606  -0.19035  -0.18378
  Beta  occ. eigenvalues --   -0.17740  -0.16268  -0.16243  -0.14915  -0.13042
  Beta  occ. eigenvalues --   -0.11166  -0.10079  -0.09426  -0.08817  -0.06660
  Beta  occ. eigenvalues --   -0.06252  -0.05450  -0.04315   0.02954   0.04161
  Beta  occ. eigenvalues --    0.04277   0.07628   0.08240   0.14334
  Beta virt. eigenvalues --    0.17712   0.17994   0.20739   0.20899   0.20987
  Beta virt. eigenvalues --    0.21695   0.23151   0.23907   0.23935   0.26406
  Beta virt. eigenvalues --    0.27073   0.28395   0.29008   0.29586   0.30370

 Mulliken charges and spin densities:
               1          2
     1  C   -2.147140   0.000000
     2  C    1.489550  -0.000000
     3  C    0.172997   0.000000
     4  C   -0.927329  -0.000000
     5  C   -0.727845   0.000000
     6  C    2.265619  -0.000000
     7  O   -0.434930  -0.000000
     8  O   -0.594687  -0.000000
     9  C   -0.603835   0.000000
    10  C   -0.238175  -0.000000
    11  O   -0.364609  -0.000000
    12  H    0.125593  -0.000000
    13  H    0.076385   0.000000
    14  H    0.076407   0.000000
    15  H   -0.020431  -0.000000
    16  C   -0.507588  -0.000000
    17  H    0.044776   0.000000
    18  H    0.174822   0.000000
    19  H    0.070226  -0.000000
    20  H    0.070194  -0.000000
 Sum of Mulliken charges =  -2.00000  -0.00000

 Dipole moment (field-independent basis, Debye):
    X=             -1.1867    Y=             -1.8483    Z=             -0.6806  Tot=              2.2995
 Quadrupole moment (field-independent basis, Debye-Ang):
   XX=            -98.7416   YY=           -152.6731   ZZ=            -85.8622
   XY=             -3.0124   XZ=            -10.3773   YZ=             -3.2172

  Exact polarizability: 258.227  28.726 192.813  69.370  17.154 172.640
 Approx polarizability: 353.181  36.725 309.583 109.430  23.566 217.430

 ******    2 imaginary frequencies (negative Signs) ******

                      1                      2                      3
                      A                      A                      A
 Frequencies --   -158.7345              -139.0523                13.2520
 Red. masses --      1.0356                 1.0470                 3.4326
 Frc consts  --      0.0154                 0.0119                 0.0004
 IR Inten    --      1.2982                 0.6084                 4.8806

                      4                      5                      6
                      A                      A                      A
 Frequencies --     62.6980               150.8162               193.4507
 Red. masses --      6.6878                 8.0428                 3.3427
 Frc consts  --      0.0155                 0.1078                 0.0737
 IR Inten    --      1.5538                 6.4650                 0.0687

                      7                      8                      9
                      A                      A                      A
 Frequencies --    200.1239               295.0210               333.7648
 Red. masses --      5.8166                 3.7928                 5.2450
 Frc consts  --      0.1373                 0.1945                 0.3443
 IR Inten    --      2.9403                 3.0976                 0.5147

                     10                     11                     12
                      A                      A                      A
 Frequencies --    350.9281               401.6078               416.3338
 Red. masses --      6.0919                 3.9391                 9.2262
 Frc consts  --      0.4420                 0.3743                 0.9422
 IR Inten    --      1.0011                13.1471                22.2992

                     13                     14                     15
                      A                      A                      A
 Frequencies --    428.7526               471.8665               518.5664
 Red. masses --      4.9803                 8.7548                 4.9838
 Frc consts  --      0.5394                 1.1485                 0.7896
 IR Inten    --      2.9135                18.2774                11.6689

                     16                     17                     18
                      A                      A                      A
 Frequencies --    556.6221               575.6326               620.5533
 Red. masses --      1.9561                 3.9122                 3.0177
 Frc consts  --      0.3571                 0.7638                 0.6847
 IR Inten    --     17.5839                 3.7180                 0.3122

                     19                     20                     21
                      A                      A                      A
 Frequencies --    644.6357               760.6653               786.4145
 Red. masses --      4.2384                 2.0716                 4.2278
 Frc consts  --      1.0377                 0.7062                 1.5405
 IR Inten    --     21.9738                16.3719                 1.3725

                     22                     23                     24
                      A                      A                      A
 Frequencies --    794.4005               840.9041               851.0568
 Red. masses --      5.1094                 6.3304                 1.5465
 Frc consts  --      1.8998                 2.6374                 0.6600
 IR Inten    --     30.4453                26.1161                24.9784

                     25                     26                     27
                      A                      A                      A
 Frequencies --    928.7304               981.7129              1013.1602
 Red. masses --      2.2677                 1.9711                 2.5943
 Frc consts  --      1.1524                 1.1193                 1.5690
 IR Inten    --     66.1576                21.4948                13.8631

                     28                     29                     30
                      A                      A                      A
 Frequencies --   1018.1695              1034.2785              1085.9410
 Red. masses --      1.6884                 1.4229                 2.3415
 Frc consts  --      1.0313                 0.8968                 1.6269
 IR Inten    --      0.6015                 0.5585                11.0522

                     31                     32                     33
                      A                      A                      A
 Frequencies --   1165.4033              1218.2047              1247.2313
 Red. masses --      2.7311                 1.8300                 3.9100
 Frc consts  --      2.1855                 1.6000                 3.5836
 IR Inten    --    186.8335               219.7214               166.7621

                     34                     35                     36
                      A                      A                      A
 Frequencies --   1305.8810              1334.4550              1341.1040
 Red. masses --      3.6101                 1.5882                 1.4093
 Frc consts  --      3.6273                 1.6663                 1.4934
 IR Inten    --    138.5286                35.6192                20.3133

                     37                     38                     39
                      A                      A                      A
 Frequencies --   1355.0657              1403.3512              1445.2698
 Red. masses --      2.3175                 3.8305                 3.1779
 Frc consts  --      2.5072                 4.4447                 3.9110
 IR Inten    --    133.7316               188.1277               485.7665

                     40                     41                     42
                      A                      A                      A
 Frequencies --   1472.4880              1473.9896              1474.2043
 Red. masses --      1.5739                 1.0518                 1.1134
 Frc consts  --      2.0106                 1.3464                 1.4257
 IR Inten    --    102.8351                 1.7813                78.2353

                     43                     44                     45
                      A                      A                      A
 Frequencies --   1487.5870              1492.5647              1585.7246
 Red. masses --      3.3725                 1.0526                 7.5236
 Frc consts  --      4.3971                 1.3816                11.1463
 IR Inten    --     69.0031                 0.3110               841.4877

                     46                     47                     48
                      A                      A                      A
 Frequencies --   1626.8537              2937.4298              2947.9501
 Red. masses --      7.8272                 1.0415                 1.0987
 Frc consts  --     12.2054                 5.2946                 5.6257
 IR Inten    --     89.3609               426.4060               294.8704

                     49                     50                     51
                      A                      A                      A
 Frequencies --   2994.2423              3035.1535              3053.4953
 Red. masses --      1.0397                 1.0995                 1.0868
 Frc consts  --      5.4923                 5.9674                 5.9702
 IR Inten    --    181.2009               139.7048               126.6625

                     52                     53                     54
                      A                      A                      A
 Frequencies --   3070.2595              3113.0822              3166.9704
 Red. masses --      1.0907                 1.0949                 1.0832
 Frc consts  --      6.0579                 6.2519                 6.4007
 IR Inten    --     11.9781                17.2174                61.8642

 - Thermochemistry -
 -------------------
 Temperature   298.150 Kelvin.  Pressure   1.00000 Atm.
 Atom     1 has atomic number  6 and mass  12.00000

 Molecular mass:   164.04734 amu.
 Principal axes and moments of inertia in atomic units:
                           1         2         3
     Eigenvalues --  1476.608522170.482173624.65902
           X            0.65717  -0.57844  -0.48324
           Y            0.65278   0.75732  -0.01879
           Z            0.37683  -0.30310   0.87528
 This molecule is an asymmetric top.
 Rotational symmetry number  1.
 Warning -- assumption of classical behavior for rotation
           may cause significant error
 Rotational temperatures (Kelvin)      0.05866     0.03991     0.02390
 Rotational constants (GHZ):           1.22222     0.83149     0.49791
    2 imaginary frequencies ignored.
 Zero-point vibrational energy     377290.3 (Joules/Mol)
                                   90.17456 (Kcal/Mol)
 Warning -- explicit consideration of  16 degrees of freedom as
           vibrations may cause significant error
 Vibrational temperatures:     19.07    90.21   216.99   278.33   287.93
          (Kelvin)            424.47   480.21   504.91   577.82   599.01
                              616.88   678.91   746.10   800.86   828.21
                              892.84   927.49  1094.43  1131.48  1142.97
                             1209.87  1224.48  1336.24  1412.47  1457.71
                             1464.92  1488.10  1562.43  1676.76  1752.72
                             1794.49  1878.87  1919.98  1929.55  1949.64
                             2019.11  2079.42  2118.58  2120.74  2121.05
                             2140.31  2147.47  2281.50  2340.68  4226.31
                             4241.44  4308.05  4366.91  4393.30  4417.42
                             4479.03  4556.56

 Zero-point correction=                           0.143702 (Hartree/Particle)
 Thermal correction to Energy=                    0.153919
 Thermal correction to Enthalpy=                  0.154863
 Thermal correction to Gibbs Free Energy=         0.106179
 Sum of electronic and zero-point Energies=           -573.421501
 Sum of electronic and thermal Energies=              -573.411285
 Sum of electronic and thermal Enthalpies=            -573.410341
 Sum of electronic and thermal Free Energies=         -573.459025

                     E (Thermal)             CV                S
                      KCal/Mol        Cal/Mol-Kelvin    Cal/Mol-Kelvin
 Total                   96.586             38.592            102.465
 Electronic               0.000              0.000              0.000
 Translational            0.889              2.981             41.193
 Rotational               0.889              2.981             30.830
 Vibrational             94.808             32.630             30.441
 Vibration     1          0.593              1.987              7.452
 Vibration     2          0.597              1.972              4.370
 Vibration     3          0.618              1.902              2.662
 Vibration     4          0.635              1.849              2.195
 Vibration     5          0.638              1.840              2.132
 Vibration     6          0.689              1.683              1.445
 Vibration     7          0.715              1.608              1.242
 Vibration     8          0.728              1.573              1.162
 Vibration     9          0.767              1.467              0.957
 Vibration    10          0.780              1.435              0.905
 Vibration    11          0.790              1.408              0.863
 Vibration    12          0.829              1.312              0.732
 Vibration    13          0.874              1.209              0.613
 Vibration    14          0.912              1.125              0.531
 Vibration    15          0.932              1.084              0.494
 Vibration    16          0.981              0.989              0.416

                           ! Non-Optimized Parameters !
 Normal termination of Gaussian 16 at Sun Dec 17 21:18:57 2023.
