 Gaussian 16, Revision A.03,
 Gaussian 16:  ES64L-G16RevA.03 25-Dec-2016

 ----------------------------------------------------------------------
 #P UB3LYP/6-311++G(d,p) nosym opt freq SCRF=(PCM,Solvent=n,n-DiMethylF
 ormamide)
 ----------------------------------------------------------------------

 --------
 Oxidized
 --------
 Symbolic Z-matrix:
 Charge =  0 Multiplicity = 1

 SCF Done:  E(UB3LYP) =  -499.562119514     A.U. after   14 cycles
 SCF Done:  E(UB3LYP) =  -499.562165650     A.U. after   11 cycles
 SCF Done:  E(UB3LYP) =  -499.562145447     A.U. after   10 cycles
 SCF Done:  E(UB3LYP) =  -499.562171123     A.U. after   10 cycles
 SCF Done:  E(UB3LYP) =  -499.562172901     A.U. after    9 cycles
 SCF Done:  E(UB3LYP) =  -499.562173040     A.U. after    8 cycles
 SCF Done:  E(UB3LYP) =  -499.562173222     A.U. after    8 cycles
 SCF Done:  E(UB3LYP) =  -499.562173475     A.U. after    8 cycles
 SCF Done:  E(UB3LYP) =  -499.562174073     A.U. after   10 cycles
 SCF Done:  E(UB3LYP) =  -499.562174583     A.U. after    9 cycles
 SCF Done:  E(UB3LYP) =  -499.562175345     A.U. after    9 cycles
 SCF Done:  E(UB3LYP) =  -499.562176058     A.U. after    9 cycles
 SCF Done:  E(UB3LYP) =  -499.562176877     A.U. after    9 cycles
 SCF Done:  E(UB3LYP) =  -499.562177096     A.U. after    9 cycles
 SCF Done:  E(UB3LYP) =  -499.562177169     A.U. after    7 cycles
 SCF Done:  E(UB3LYP) =  -499.562177288     A.U. after    8 cycles
 SCF Done:  E(UB3LYP) =  -499.562177337     A.U. after    8 cycles
 Optimization completed.
    -- Stationary point found.
 Normal termination of Gaussian 16 at Sat Feb 10 19:04:07 2024.

 ----------------------------------------------------------------------
 #P Geom=AllCheck Guess=TCheck SCRF=Check GenChk UB3LYP/6-311++G(d,p) F
 req
 ----------------------------------------------------------------------

 Structure from the checkpoint file:  "049.chk"
 --------
 Oxidized
 --------
 Charge =  0 Multiplicity = 1

                          Input orientation:
 ---------------------------------------------------------------------
 Center     Atomic      Atomic             Coordinates (Angstroms)
 Number     Number       Type             X           Y           Z
 ---------------------------------------------------------------------
      1          6           0        3.033567   -1.109977   -0.149064
      2          6           0        1.741000   -0.368986   -0.003898
      3          6           0        1.654167    0.914235    0.378181
      4          6           0        0.363798    1.615352    0.508304
      5          8           0        0.340972    2.790713    0.862911
      6          6           0       -0.896813    0.875540    0.204375
      7          6           0       -0.839221   -0.424587   -0.169138
      8          6           0       -2.070610   -1.227193   -0.481016
      9          6           0        0.477992   -1.115842   -0.305568
     10          8           0        0.538564   -2.285862   -0.662291
     11          6           0       -2.192258    1.623208    0.339652
     12          1           0        3.151053   -1.483931   -1.169904
     13          1           0        3.878999   -0.465523    0.092132
     14          1           0        3.053663   -1.983426    0.508604
     15          1           0        2.534685    1.503829    0.610735
     16          1           0       -2.826349   -1.104246    0.298507
     17          1           0       -1.830153   -2.283980   -0.579525
     18          1           0       -2.521356   -0.892697   -1.421941
     19          1           0       -2.786546    1.223270    1.168199
     20          1           0       -2.009653    2.679080    0.530213
     21          1           0       -2.797500    1.525028   -0.565466
 ---------------------------------------------------------------------

 SCF Done:  E(UB3LYP) =  -499.562177337     A.U. after    1 cycles

 Alpha  occ. eigenvalues --  -19.13976 -19.13681 -10.28355 -10.28132 -10.21808
 Alpha  occ. eigenvalues --  -10.21150 -10.21073 -10.20038 -10.17801 -10.17377
 Alpha  occ. eigenvalues --  -10.17366  -1.06988  -1.06482  -0.86800  -0.82489
 Alpha  occ. eigenvalues --   -0.74989  -0.73649  -0.69273  -0.66349  -0.59815
 Alpha  occ. eigenvalues --   -0.57902  -0.53711  -0.49363  -0.46994  -0.46705
 Alpha  occ. eigenvalues --   -0.44412  -0.43737  -0.43054  -0.42396  -0.42341
 Alpha  occ. eigenvalues --   -0.41131  -0.40658  -0.39772  -0.39563  -0.38380
 Alpha  occ. eigenvalues --   -0.37522  -0.29989  -0.29094  -0.27565  -0.27364
 Alpha virt. eigenvalues --   -0.13047  -0.02212  -0.00917   0.00158   0.00354
 Alpha virt. eigenvalues --    0.01266   0.02667   0.02804   0.03237   0.03878
 Alpha virt. eigenvalues --    0.04163   0.05921   0.06139   0.06153   0.06998

  Beta  occ. eigenvalues --  -19.13976 -19.13681 -10.28355 -10.28132 -10.21808
  Beta  occ. eigenvalues --  -10.21150 -10.21073 -10.20038 -10.17801 -10.17377
  Beta  occ. eigenvalues --  -10.17366  -1.06988  -1.06482  -0.86800  -0.82489
  Beta  occ. eigenvalues --   -0.74989  -0.73649  -0.69273  -0.66349  -0.59815
  Beta  occ. eigenvalues --   -0.57902  -0.53711  -0.49363  -0.46994  -0.46705
  Beta  occ. eigenvalues --   -0.44412  -0.43737  -0.43054  -0.42396  -0.42341
  Beta  occ. eigenvalues --   -0.41131  -0.40658  -0.39772  -0.39563  -0.38380
  Beta  occ. eigenvalues --   -0.37522  -0.29989  -0.29094  -0.27565  -0.27364
  Beta virt. eigenvalues --   -0.13047  -0.02212  -0.00917   0.00158   0.00354
  Beta virt. eigenvalues --    0.01266   0.02667   0.02804   0.03237   0.03878
  Beta virt. eigenvalues --    0.04163   0.05921   0.06139   0.06153   0.06998

 Mulliken charges and spin densities:
               1          2
     1  C   -0.265743   0.000000
     2  C    1.047302   0.000000
     3  C   -0.499946  -0.000000
     4  C   -0.853199   0.000000
     5  O   -0.300537  -0.000000
     6  C    1.007927  -0.000000
     7  C    0.301546  -0.000000
     8  C   -0.591430   0.000000
     9  C   -0.922761   0.000000
    10  O   -0.277103   0.000000
    11  C   -0.484811  -0.000000
    12  H    0.186277   0.000000
    13  H    0.173193   0.000000
    14  H    0.185612   0.000000
    15  H    0.200286   0.000000
    16  H    0.165689   0.000000
    17  H    0.191139   0.000000
    18  H    0.189772   0.000000
    19  H    0.186198  -0.000000
    20  H    0.188723   0.000000
    21  H    0.171867   0.000000
 Sum of Mulliken charges =  -0.00000  -0.00000

 Dipole moment (field-independent basis, Debye):
    X=             -0.5897    Y=             -0.8054    Z=             -0.2799  Tot=              1.0368
 Quadrupole moment (field-independent basis, Debye-Ang):
   XX=            -52.7614   YY=            -84.4030   ZZ=            -66.3331
   XY=             -0.9389   XZ=              0.4666   YZ=             -6.0676

  Exact polarizability: 147.973 -11.140 213.791   0.302  37.310 101.121
 Approx polarizability: 146.643 -12.507 286.588  -1.132  54.810 121.492

                      1                      2                      3
                      A                      A                      A
 Frequencies --     23.5606                58.3939                70.2182
 Red. masses --      1.1024                 5.1092                 1.0734
 Frc consts  --      0.0004                 0.0103                 0.0031
 IR Inten    --      0.0557                17.7238                 0.0194

                      4                      5                      6
                      A                      A                      A
 Frequencies --    108.7763               138.0094               171.1462
 Red. masses --      2.9852                 1.6956                 1.5901
 Frc consts  --      0.0208                 0.0190                 0.0274
 IR Inten    --      0.0383                 0.1429                 2.0341

                      7                      8                      9
                      A                      A                      A
 Frequencies --    253.1520               280.9899               314.4196
 Red. masses --      3.3130                 2.7257                 2.5503
 Frc consts  --      0.1251                 0.1268                 0.1485
 IR Inten    --      0.3719                 1.6559                 0.4592

                     10                     11                     12
                      A                      A                      A
 Frequencies --    339.0025               362.6084               409.9171
 Red. masses --      4.1031                 3.6733                 6.5800
 Frc consts  --      0.2778                 0.2846                 0.6514
 IR Inten    --      0.9620                 0.4202                17.3139

                     13                     14                     15
                      A                      A                      A
 Frequencies --    417.8013               469.1939               504.9613
 Red. masses --      7.0532                 7.8413                 3.3890
 Frc consts  --      0.7254                 1.0171                 0.5091
 IR Inten    --     24.8481                 1.8014                 0.3519

                     16                     17                     18
                      A                      A                      A
 Frequencies --    561.0209               648.6124               686.4795
 Red. masses --      5.7905                 3.4430                 3.4417
 Frc consts  --      1.0738                 0.8534                 0.9556
 IR Inten    --      2.2273                 1.1369                16.1180

                     19                     20                     21
                      A                      A                      A
 Frequencies --    700.8802               789.0682               823.7788
 Red. masses --      5.5519                 6.2409                 2.3805
 Frc consts  --      1.6069                 2.2894                 0.9518
 IR Inten    --      9.4515                 1.1670                13.2445

                     22                     23                     24
                      A                      A                      A
 Frequencies --    896.4694               928.2520              1004.1284
 Red. masses --      1.4155                 3.1834                 1.6534
 Frc consts  --      0.6702                 1.6161                 0.9822
 IR Inten    --     42.3150                24.0831                55.5951

                     25                     26                     27
                      A                      A                      A
 Frequencies --   1019.2360              1042.8331              1054.9384
 Red. masses --      1.4546                 1.6668                 1.5479
 Frc consts  --      0.8903                 1.0680                 1.0150
 IR Inten    --      3.6387                20.5459                 1.4494

                     28                     29                     30
                      A                      A                      A
 Frequencies --   1055.9601              1111.0727              1123.7612
 Red. masses --      1.5535                 3.6588                 2.1560
 Frc consts  --      1.0206                 2.6612                 1.6042
 IR Inten    --      4.4690                45.6154                 4.3604

                     31                     32                     33
                      A                      A                      A
 Frequencies --   1205.5858              1273.4518              1317.3827
 Red. masses --      2.3901                 3.8278                 4.0604
 Frc consts  --      2.0468                 3.6573                 4.1518
 IR Inten    --     85.6090               148.2169               144.0054

                     34                     35                     36
                      A                      A                      A
 Frequencies --   1364.3850              1397.1282              1401.2231
 Red. masses --      2.4301                 1.3151                 1.1998
 Frc consts  --      2.6653                 1.5124                 1.3879
 IR Inten    --     11.8595                22.4246                28.7860

                     37                     38                     39
                      A                      A                      A
 Frequencies --   1408.0724              1458.9242              1469.4972
 Red. masses --      1.3065                 1.0433                 1.0684
 Frc consts  --      1.5262                 1.3084                 1.3593
 IR Inten    --      9.8623                13.1944                 2.7820

                     40                     41                     42
                      A                      A                      A
 Frequencies --   1470.4780              1473.4359              1476.5031
 Red. masses --      1.0677                 1.1072                 1.0482
 Frc consts  --      1.3602                 1.4163                 1.3464
 IR Inten    --     22.7857                52.3025                 0.8922

                     43                     44                     45
                      A                      A                      A
 Frequencies --   1486.9107              1649.5166              1670.3186
 Red. masses --      1.0435                 8.6208                12.0451
 Frc consts  --      1.3592                13.8200                19.7997
 IR Inten    --     34.8212               117.6003               882.5781

                     46                     47                     48
                      A                      A                      A
 Frequencies --   1680.0660              1708.5458              3025.1813
 Red. masses --     11.8688                 8.1169                 1.0429
 Frc consts  --     19.7384                13.9602                 5.6234
 IR Inten    --    366.4131                 5.3243                29.2156

                     49                     50                     51
                      A                      A                      A
 Frequencies --   3028.9969              3035.8075              3073.4781
 Red. masses --      1.0438                 1.0365                 1.0955
 Frc consts  --      5.6426                 5.6281                 6.0972
 IR Inten    --      3.8714                12.0941                28.6034

                     52                     53                     54
                      A                      A                      A
 Frequencies --   3082.7049              3086.1025              3124.8368
 Red. masses --      1.0955                 1.0992                 1.1025
 Frc consts  --      6.1336                 6.1682                 6.3429
 IR Inten    --      5.1098                12.0081                17.8564

                     55                     56                     57
                      A                      A                      A
 Frequencies --   3138.8345              3140.2497              3175.3694
 Red. masses --      1.0977                 1.0980                 1.0925
 Frc consts  --      6.3719                 6.3792                 6.4901
 IR Inten    --      9.4683                10.3620                 8.9765

 - Thermochemistry -
 -------------------
 Temperature   298.150 Kelvin.  Pressure   1.00000 Atm.
 Atom     1 has atomic number  6 and mass  12.00000

 Molecular mass:   150.06808 amu.
 Principal axes and moments of inertia in atomic units:
                           1         2         3
     Eigenvalues --  1203.890661651.709352822.20884
           X           -0.69229   0.71926  -0.05827
           Y            0.70170   0.65215  -0.28690
           Z            0.16836   0.23950   0.95619
 This molecule is an asymmetric top.
 Rotational symmetry number  1.
 Warning -- assumption of classical behavior for rotation
           may cause significant error
 Rotational temperatures (Kelvin)      0.07195     0.05244     0.03069
 Rotational constants (GHZ):           1.49909     1.09265     0.63948
 Zero-point vibrational energy     437783.2 (Joules/Mol)
                                  104.63269 (Kcal/Mol)
 Warning -- explicit consideration of  16 degrees of freedom as
           vibrations may cause significant error
 Vibrational temperatures:     33.90    84.02   101.03   156.50   198.56
          (Kelvin)            246.24   364.23   404.28   452.38   487.75
                              521.71   589.78   601.12   675.07   726.53
                              807.18   933.21   987.69  1008.41  1135.29
                             1185.23  1289.82  1335.55  1444.72  1466.45
                             1500.40  1517.82  1519.29  1598.59  1616.84
                             1734.57  1832.21  1895.42  1963.05  2010.16
                             2016.05  2025.90  2099.07  2114.28  2115.69
                             2119.95  2124.36  2139.33  2373.29  2403.22
                             2417.24  2458.22  4352.56  4358.05  4367.85
                             4422.05  4435.32  4440.21  4495.94  4516.08
                             4518.12  4568.65

 Zero-point correction=                           0.166743 (Hartree/Particle)
 Thermal correction to Energy=                    0.178303
 Thermal correction to Enthalpy=                  0.179247
 Thermal correction to Gibbs Free Energy=         0.128099
 Sum of electronic and zero-point Energies=           -499.395435
 Sum of electronic and thermal Energies=              -499.383874
 Sum of electronic and thermal Enthalpies=            -499.382930
 Sum of electronic and thermal Free Energies=         -499.434079

                     E (Thermal)             CV                S
                      KCal/Mol        Cal/Mol-Kelvin    Cal/Mol-Kelvin
 Total                  111.887             41.126            107.651
 Electronic               0.000              0.000              0.000
 Translational            0.889              2.981             40.928
 Rotational               0.889              2.981             30.107
 Vibrational            110.109             35.164             36.616
 Vibration     1          0.593              1.985              6.309
 Vibration     2          0.596              1.974              4.511
 Vibration     3          0.598              1.968              4.147
 Vibration     4          0.606              1.942              3.291
 Vibration     5          0.614              1.915              2.831
 Vibration     6          0.626              1.878              2.423
 Vibration     7          0.664              1.757              1.709
 Vibration     8          0.681              1.709              1.528
 Vibration     9          0.702              1.646              1.339
 Vibration    10          0.719              1.598              1.217
 Vibration    11          0.736              1.549              1.111
 Vibration    12          0.774              1.449              0.927
 Vibration    13          0.781              1.432              0.899
 Vibration    14          0.826              1.318              0.740
 Vibration    15          0.860              1.239              0.646
 Vibration    16          0.917              1.116              0.522

                           ! Non-Optimized Parameters !
 Normal termination of Gaussian 16 at Sat Feb 10 19:20:06 2024.
