 Q-Chem 5.4, Q-Chem, Inc., Pleasanton, CA (2021)
 Q-Chem 5.4.0 for Intel X86 EM64T Linux

User input:
--------------------------------------------------------------
$molecule
0 1
C                  0.6413530000     -1.7087170000     -0.9242310000
C                 -0.5567110000     -1.1421630000     -0.2191850000
C                 -0.4754770000      0.0138780000      0.4654610000
C                  0.8165740000      0.7802330000      0.5510000000
C                  1.9953120000      0.1832160000     -0.1491140000
C                  1.9438430000     -0.9638420000     -0.8519720000
O                  0.5658920000     -2.7486080000     -1.5432410000
O                  0.8871220000      1.8233050000      1.1560510000
Br                -2.1377390000     -2.1606070000     -0.3748810000
Br                -1.9271200000      0.7999570000      1.3775810000
Br                 3.5980360000      1.1945260000      0.0297480000
C                  3.1026300000     -1.6075390000     -1.5578050000
C                  3.8400700000     -2.6322500000     -0.6664670000
C                  5.0135940000     -3.2942530000     -1.3961500000
C                  5.7616850000     -4.3159720000     -0.5325930000
C                  6.9373250000     -4.9834500000     -1.2555300000
C                  7.6794590000     -6.0034660000     -0.3872320000
H                  3.8025140000     -0.8346420000     -1.8797530000
H                  2.7249000000     -2.1197390000     -2.4449490000
H                  3.1309270000     -3.4002250000     -0.3409470000
H                  4.2036190000     -2.1292440000      0.2361800000
H                  5.7150480000     -2.5200140000     -1.7321300000
H                  4.6427310000     -3.7875150000     -2.3032830000
H                  5.0592400000     -5.0892220000     -0.1959300000
H                  6.1301400000     -3.8227730000      0.3762190000
H                  7.6392690000     -4.2108200000     -1.5921130000
H                  6.5690580000     -5.4760440000     -2.1635720000
H                  8.0898880000     -5.5335570000      0.5121440000
H                  8.5105060000     -6.4609050000     -0.9310390000
H                  7.0115430000     -6.8080440000     -0.0637970000
$end
$rem
MAX_SCF_CYCLES=200
BASIS  =  6-311++G(d,p)
GUI  =  2
JOB_TYPE  =  SP
METHOD  =  B3LYP
SOLVENT_METHOD = COSMO
$end
$solvent
dielectric 37.219
opticaldielectric 1.43
$end

--------------------------------------------------------------

             Standard Nuclear Orientation (Angstroms)
    I     Atom           X                Y                Z
 ----------------------------------------------------------------
    1      C      -0.2655126376    -1.0692763002    -0.6737228169
    2      C      -1.6917371474    -0.9725532667    -0.2155100413
    3      C      -2.2234402761     0.2085455229     0.1506420226
    4      C      -1.4101810340     1.4740122464     0.1157698276
    5      C       0.0108239441     1.3431116002    -0.3310210149
    6      C       0.5683634249     0.1795117290    -0.7151896608
    7      O       0.2111799092    -2.1334260139    -1.0062745228
    8      O      -1.8902053601     2.5358678266     0.4337357113
    9      Br     -2.6441735499    -2.6015953216    -0.2011627461
   10      Br     -4.0033879361     0.4241235537     0.7358453449
   11      Br      0.9816330617     2.9804473292    -0.3198353463
   12      C       1.9922447229    -0.0021167834    -1.1566718187
   13      C       2.9285732527    -0.3789778211     0.0136266303
   14      C       4.3773675441    -0.5747460156    -0.4451911399
   15      C       5.3266671851    -0.9498751130     0.6982199425
   16      C       6.7785007497    -1.1480738195     0.2474530745
   17      C       7.7209673137    -1.5234384182     1.3946213816
   18      H       2.3449309689     0.9192587979    -1.6230808139
   19      H       2.0231712528    -0.7983745938    -1.9030432536
   20      H       2.5649562894    -1.2995162012     0.4816271220
   21      H       2.8862420924     0.4060633356     0.7764326170
   22      H       4.7332835230     0.3456415543    -0.9253753138
   23      H       4.4098449482    -1.3555258029    -1.2152983968
   24      H       4.9693351701    -1.8697099931     1.1787448020
   25      H       5.2917848157    -0.1698921091     1.4698113667
   26      H       7.1356341204    -0.2289871839    -0.2328656987
   27      H       6.8131641149    -1.9272892317    -0.5235407636
   28      H       7.7348948516    -0.7467220013     2.1657642043
   29      H       8.7467852208    -1.6577140186     1.0406675810
   30      H       7.4098488346    -2.4576530637     1.8726548830
 ----------------------------------------------------------------

    9   -8338.1224547721      5.43e-06  Convergence criterion met
 Total energy in the final basis set =    -8338.1224547721
    4   -8338.1343910356      8.02e-06  Convergence criterion met
 Total energy in the final basis set =    -8338.1343910356

                    Orbital Energies (a.u.)
 --------------------------------------------------------------

 Alpha MOs
 -- Occupied --
********-482.8585-482.8521 -62.5117 -62.5112 -62.5049 -56.3324 -56.3319
-56.3284 -56.3279 -56.3279 -56.3274 -56.3255 -56.3216 -56.3212 -19.1609
-19.1601 -10.3169 -10.3124 -10.2798 -10.2785 -10.2689 -10.2381 -10.1864
-10.1736 -10.1633 -10.1603 -10.1596 -10.1529  -8.7205  -8.7200  -8.7137
 -6.5526  -6.5520  -6.5454  -6.5393  -6.5388  -6.5378  -6.5373  -6.5325
 -6.5313  -2.6633  -2.6628  -2.6599  -2.6595  -2.6588  -2.6582  -2.6562
 -2.6530  -2.6519  -2.6481  -2.6481  -2.6477  -2.6476  -2.6416  -2.6415
 -1.1002  -1.0961  -0.9093  -0.8762  -0.8279  -0.8160  -0.8025  -0.7840
 -0.7526  -0.7209  -0.7021  -0.6565  -0.6174  -0.6102  -0.5879  -0.5758
 -0.5662  -0.5086  -0.4924  -0.4821  -0.4807  -0.4588  -0.4545  -0.4470
 -0.4461  -0.4424  -0.4295  -0.4225  -0.4019  -0.3994  -0.3932  -0.3798
 -0.3626  -0.3549  -0.3507  -0.3336  -0.3304  -0.3303  -0.3286  -0.3224
 -0.3211  -0.3162  -0.3109  -0.3081  -0.2934  -0.2914  -0.2718

          Ground-State Mulliken Net Atomic Charges

     Atom                 Charge (a.u.)
  ----------------------------------------
      1 C                    -0.990665
      2 C                    -0.185580
      3 C                     0.745225
      4 C                    -0.829207
      5 C                     0.387576
      6 C                     1.996411
      7 O                    -0.193397
      8 O                    -0.166208
      9 Br                   -0.080039
     10 Br                   -0.068657
     11 Br                   -0.028877
     12 C                    -0.787742
     13 C                    -0.490990
     14 C                    -0.159234
     15 C                    -0.250529
     16 C                    -0.207237
     17 C                    -0.693797
     18 H                     0.190355
     19 H                     0.234186
     20 H                     0.197193
     21 H                     0.134458
     22 H                     0.132896
     23 H                     0.130980
     24 H                     0.129206
     25 H                     0.133220
     26 H                     0.139363
     27 H                     0.138138
     28 H                     0.146299
     29 H                     0.150194
     30 H                     0.146458
  ----------------------------------------
  Sum of atomic charges =    -0.000002

                    Cartesian Multipole Moments
 -----------------------------------------------------------------
    Charge (ESU x 10^10)
                -0.0000
    Dipole Moment (Debye)
         X       2.1852      Y      -0.8339      Z      -0.5083
       Tot       2.3935
    Quadrupole Moments (Debye-Ang)
        XX    -133.8180     XY       8.1993     YY    -152.8001
        XZ      -0.5331     YZ      -4.3594     ZZ    -139.3782

 Total job time:  75.90s(wall), 562.73s(cpu)
        *  Thank you very much for using Q-Chem.  Have a nice day.  *
