 Gaussian 16, Revision A.03,
 Gaussian 16:  ES64L-G16RevA.03 25-Dec-2016

 ----------------------------------------------------------------
 #P UB3LYP/6-311++G(d,p) SCRF=(PCM,Solvent=n,n-DiMethylFormamide)
 ----------------------------------------------------------------

 ------------------
 Quinone PCM in DMF
 ------------------
 Symbolic Z-matrix:
 Charge =  0 Multiplicity = 1

                         Standard orientation:
 ---------------------------------------------------------------------
 Center     Atomic      Atomic             Coordinates (Angstroms)
 Number     Number       Type             X           Y           Z
 ---------------------------------------------------------------------
      1          6           0       -4.179976    0.889889    0.000193
      2          6           0       -5.209234   -0.041581    0.000048
      3          6           0       -4.915540   -1.409240   -0.000194
      4          6           0       -2.847192    0.460968    0.000111
      5          6           0       -2.550305   -0.911412   -0.000072
      6          6           0       -3.595476   -1.841719   -0.000235
      7          6           0       -1.758806    1.458975    0.000125
      8          6           0       -0.373998    0.983593    0.000008
      9          6           0       -0.061625   -0.413841    0.000037
     10          6           0       -1.144143   -1.404146    0.000082
     11          6           0        0.657324    1.936606   -0.000083
     12          6           0        1.999999    1.505126   -0.000132
     13          6           0        1.290757   -0.848378    0.000151
     14          6           0        2.295955    0.169637   -0.000044
     15          8           0       -2.024206    2.674419    0.000165
     16          8           0       -0.934857   -2.624215   -0.000313
     17          8           0        0.446693    3.257885   -0.000152
     18         35           0        4.141777   -0.347979   -0.000053
     19          7           0        1.635137   -2.155456    0.000500
     20          1           0       -4.381552    1.953616    0.000302
     21          1           0       -6.240760    0.291595    0.000099
     22          1           0       -5.720686   -2.135270   -0.000306
     23          1           0       -3.347752   -2.895465   -0.000311
     24          1           0        2.780220    2.254623   -0.000240
     25          1           0       -0.537532    3.386085   -0.000155
     26          1           0        0.886668   -2.839226    0.000793
     27          1           0        2.605736   -2.420085    0.000596
 ---------------------------------------------------------------------

 SCF Done:  E(UB3LYP) =  -3393.14540294     A.U. after   16 cycles

 The electronic state is 1-A.
 Alpha  occ. eigenvalues -- -482.85329 -62.50609 -56.32646 -56.32258 -56.32242
 Alpha  occ. eigenvalues --  -19.16517 -19.13778 -19.12675 -14.34257 -10.28721
 Alpha  occ. eigenvalues --  -10.28058 -10.26996 -10.26313 -10.26191 -10.21195
 Alpha  occ. eigenvalues --  -10.21191 -10.21147 -10.20922 -10.20864 -10.19919
 Alpha  occ. eigenvalues --  -10.19878 -10.19807 -10.19687  -8.71580  -6.54721
 Alpha  occ. eigenvalues --   -6.53428  -6.53400  -2.65813  -2.65443  -2.65426
 Alpha  occ. eigenvalues --   -2.64398  -2.64396  -1.09463  -1.06101  -1.05961
 Alpha  occ. eigenvalues --   -0.95921  -0.89372  -0.87931  -0.84281  -0.80138
 Alpha  occ. eigenvalues --   -0.78056  -0.77034  -0.75620  -0.69653  -0.67055
 Alpha  occ. eigenvalues --   -0.65865  -0.63089  -0.60239  -0.58529  -0.56211
 Alpha  occ. eigenvalues --   -0.55073  -0.54111  -0.51353  -0.49619  -0.48785
 Alpha  occ. eigenvalues --   -0.48381  -0.46946  -0.46194  -0.45636  -0.45271
 Alpha  occ. eigenvalues --   -0.44486  -0.44245  -0.43127  -0.42746  -0.40720
 Alpha  occ. eigenvalues --   -0.39691  -0.39236  -0.38316  -0.37883  -0.36943
 Alpha  occ. eigenvalues --   -0.33944  -0.31790  -0.31719  -0.29457  -0.28687
 Alpha  occ. eigenvalues --   -0.27964  -0.27888  -0.27490  -0.22260
 Alpha virt. eigenvalues --   -0.12228  -0.06989  -0.04400  -0.03216  -0.01553
 Alpha virt. eigenvalues --   -0.00716   0.00093   0.00744   0.01670   0.02097
 Alpha virt. eigenvalues --    0.02675   0.03266   0.03734   0.03877   0.04035

  Beta  occ. eigenvalues -- -482.85329 -62.50609 -56.32646 -56.32258 -56.32242
  Beta  occ. eigenvalues --  -19.16517 -19.13778 -19.12675 -14.34257 -10.28721
  Beta  occ. eigenvalues --  -10.28058 -10.26996 -10.26313 -10.26191 -10.21195
  Beta  occ. eigenvalues --  -10.21191 -10.21147 -10.20922 -10.20864 -10.19919
  Beta  occ. eigenvalues --  -10.19878 -10.19807 -10.19687  -8.71580  -6.54721
  Beta  occ. eigenvalues --   -6.53428  -6.53400  -2.65813  -2.65443  -2.65426
  Beta  occ. eigenvalues --   -2.64398  -2.64396  -1.09463  -1.06101  -1.05961
  Beta  occ. eigenvalues --   -0.95921  -0.89372  -0.87931  -0.84281  -0.80138
  Beta  occ. eigenvalues --   -0.78056  -0.77034  -0.75620  -0.69653  -0.67055
  Beta  occ. eigenvalues --   -0.65865  -0.63089  -0.60239  -0.58529  -0.56211
  Beta  occ. eigenvalues --   -0.55073  -0.54111  -0.51353  -0.49619  -0.48785
  Beta  occ. eigenvalues --   -0.48381  -0.46946  -0.46194  -0.45636  -0.45271
  Beta  occ. eigenvalues --   -0.44486  -0.44245  -0.43127  -0.42746  -0.40720
  Beta  occ. eigenvalues --   -0.39691  -0.39236  -0.38316  -0.37883  -0.36943
  Beta  occ. eigenvalues --   -0.33944  -0.31790  -0.31719  -0.29457  -0.28687
  Beta  occ. eigenvalues --   -0.27964  -0.27888  -0.27490  -0.22260
  Beta virt. eigenvalues --   -0.12228  -0.06989  -0.04400  -0.03216  -0.01553
  Beta virt. eigenvalues --   -0.00716   0.00093   0.00744   0.01670   0.02097
  Beta virt. eigenvalues --    0.02675   0.03266   0.03734   0.03877   0.04035

 Mulliken charges and spin densities:
               1          2
     1  C    0.089064   0.000000
     2  C   -0.497232   0.000000
     3  C   -0.534428  -0.000000
     4  C    0.166562  -0.000000
     5  C   -0.002070   0.000000
     6  C    0.155740   0.000000
     7  C   -0.296243  -0.000000
     8  C    0.637058  -0.000000
     9  C    0.524935   0.000000
    10  C   -0.225064   0.000000
    11  C   -0.380654  -0.000000
    12  C    0.117395   0.000000
    13  C   -0.586976  -0.000000
    14  C    0.229739   0.000000
    15  O   -0.335932  -0.000000
    16  O   -0.324363   0.000000
    17  O   -0.323000   0.000000
    18  Br  -0.121989   0.000000
    19  N   -0.328065   0.000000
    20  H    0.192027   0.000000
    21  H    0.205199  -0.000000
    22  H    0.206159   0.000000
    23  H    0.189954   0.000000
    24  H    0.265318  -0.000000
    25  H    0.350479  -0.000000
    26  H    0.349404  -0.000000
    27  H    0.276984  -0.000000
 Sum of Mulliken charges =  -0.00000   0.00000

 Dipole moment (field-independent basis, Debye):
    X=             -0.5735    Y=             -2.3099    Z=              0.0015  Tot=              2.3800
 Quadrupole moment (field-independent basis, Debye-Ang):
   XX=            -94.0883   YY=           -130.3376   ZZ=           -124.6168
   XY=              0.3324   XZ=              0.0014   YZ=             -0.0058

 Normal termination of Gaussian 16 at Tue Jan 16 05:07:39 2024.
