 Gaussian 16, Revision A.03,
 Gaussian 16:  ES64L-G16RevA.03 25-Dec-2016

 --------------------------------------
 #P UB3LYP/6-311++G(d,p) nosym opt freq
 --------------------------------------

 --------
 Oxidized
 --------
 Symbolic Z-matrix:
 Charge =  0 Multiplicity = 1

 SCF Done:  E(UB3LYP) =  -3393.13704589     A.U. after   16 cycles
 Optimization completed.
    -- Stationary point found.
 Normal termination of Gaussian 16 at Sun Jan  7 05:00:42 2024.

 ----------------------------------------------------------------------
 #P Geom=AllCheck Guess=TCheck SCRF=Check GenChk UB3LYP/6-311++G(d,p) F
 req
 ----------------------------------------------------------------------

 Structure from the checkpoint file:  "183.chk"
 --------
 Oxidized
 --------
 Charge =  0 Multiplicity = 1

                          Input orientation:
 ---------------------------------------------------------------------
 Center     Atomic      Atomic             Coordinates (Angstroms)
 Number     Number       Type             X           Y           Z
 ---------------------------------------------------------------------
      1          6           0        4.878720   -2.850818   -0.359658
      2          6           0        5.605512   -1.953566   -1.130192
      3          6           0        5.017982   -0.755697   -1.550509
      4          6           0        3.557081   -2.557314   -0.002708
      5          6           0        2.965546   -1.355427   -0.423568
      6          6           0        3.707190   -0.458166   -1.199930
      7          6           0        2.791523   -3.517768    0.817079
      8          6           0        1.411371   -3.186368    1.176292
      9          6           0        0.799878   -1.963110    0.751894
     10          6           0        1.561868   -1.009873   -0.062514
     11          6           0        0.687623   -4.103039    1.955883
     12          6           0       -0.643668   -3.807898    2.315755
     13          6           0       -0.540970   -1.665816    1.114528
     14          6           0       -1.225679   -2.638666    1.909207
     15          8           0        3.317633   -4.582107    1.188740
     16          8           0        1.086008    0.062139   -0.458389
     17          8           0        1.188113   -5.265264    2.390495
     18         35           0       -3.038253   -2.300154    2.433584
     19          7           0       -1.160678   -0.524964    0.738405
     20          1           0        5.311043   -3.784301   -0.022235
     21          1           0        6.628688   -2.181808   -1.405996
     22          1           0        5.587132   -0.056147   -2.152238
     23          1           0        3.234895    0.463391   -1.515235
     24          1           0       -1.184579   -4.526786    2.916675
     25          1           0        2.120218   -5.314202    2.052975
     26          1           0       -0.633523    0.133397    0.175897
     27          1           0       -2.112004   -0.353639    1.017183
 ---------------------------------------------------------------------

 SCF Done:  E(UB3LYP) =  -3393.13704589     A.U. after    1 cycles

 Alpha  occ. eigenvalues -- -482.85693 -62.50977 -56.33011 -56.32624 -56.32614
 Alpha  occ. eigenvalues --  -19.15978 -19.13491 -19.12494 -14.34498 -10.28517
 Alpha  occ. eigenvalues --  -10.27931 -10.26882 -10.26417 -10.26359 -10.21329
 Alpha  occ. eigenvalues --  -10.21272 -10.21116 -10.21059 -10.21001 -10.20366
 Alpha  occ. eigenvalues --  -10.20285 -10.20097 -10.19927  -8.71950  -6.55086
 Alpha  occ. eigenvalues --   -6.53792  -6.53783  -2.66180  -2.65804  -2.65802
 Alpha  occ. eigenvalues --   -2.64774  -2.64772  -1.09017  -1.05840  -1.05616
 Alpha  occ. eigenvalues --   -0.96133  -0.89522  -0.88096  -0.84484  -0.80373
 Alpha  occ. eigenvalues --   -0.78228  -0.77214  -0.75716  -0.69722  -0.67226
 Alpha  occ. eigenvalues --   -0.65997  -0.63122  -0.60336  -0.58787  -0.56288
 Alpha  occ. eigenvalues --   -0.55202  -0.54134  -0.51317  -0.49776  -0.48992
 Alpha  occ. eigenvalues --   -0.48582  -0.46866  -0.45886  -0.45791  -0.45406
 Alpha  occ. eigenvalues --   -0.44507  -0.44255  -0.42906  -0.42704  -0.40869
 Alpha  occ. eigenvalues --   -0.39476  -0.38979  -0.38627  -0.37976  -0.37172
 Alpha  occ. eigenvalues --   -0.34152  -0.32163  -0.31673  -0.29137  -0.28793
 Alpha  occ. eigenvalues --   -0.28100  -0.27704  -0.27671  -0.22245
 Alpha virt. eigenvalues --   -0.12165  -0.07057  -0.04601  -0.03707  -0.01652
 Alpha virt. eigenvalues --   -0.01042  -0.00554   0.00830   0.01343   0.01560
 Alpha virt. eigenvalues --    0.02507   0.03308   0.03456   0.03856   0.04040

  Beta  occ. eigenvalues -- -482.85693 -62.50977 -56.33011 -56.32624 -56.32614
  Beta  occ. eigenvalues --  -19.15978 -19.13491 -19.12494 -14.34498 -10.28517
  Beta  occ. eigenvalues --  -10.27931 -10.26882 -10.26417 -10.26359 -10.21329
  Beta  occ. eigenvalues --  -10.21272 -10.21116 -10.21059 -10.21001 -10.20366
  Beta  occ. eigenvalues --  -10.20285 -10.20097 -10.19927  -8.71950  -6.55086
  Beta  occ. eigenvalues --   -6.53792  -6.53783  -2.66180  -2.65804  -2.65802
  Beta  occ. eigenvalues --   -2.64774  -2.64772  -1.09017  -1.05840  -1.05616
  Beta  occ. eigenvalues --   -0.96133  -0.89522  -0.88096  -0.84484  -0.80373
  Beta  occ. eigenvalues --   -0.78228  -0.77214  -0.75716  -0.69722  -0.67226
  Beta  occ. eigenvalues --   -0.65997  -0.63122  -0.60336  -0.58787  -0.56288
  Beta  occ. eigenvalues --   -0.55202  -0.54134  -0.51317  -0.49776  -0.48992
  Beta  occ. eigenvalues --   -0.48582  -0.46866  -0.45886  -0.45791  -0.45406
  Beta  occ. eigenvalues --   -0.44507  -0.44255  -0.42906  -0.42704  -0.40869
  Beta  occ. eigenvalues --   -0.39476  -0.38979  -0.38627  -0.37976  -0.37172
  Beta  occ. eigenvalues --   -0.34152  -0.32163  -0.31673  -0.29137  -0.28793
  Beta  occ. eigenvalues --   -0.28100  -0.27704  -0.27671  -0.22245
  Beta virt. eigenvalues --   -0.12165  -0.07057  -0.04601  -0.03707  -0.01652
  Beta virt. eigenvalues --   -0.01042  -0.00554   0.00830   0.01343   0.01560
  Beta virt. eigenvalues --    0.02507   0.03308   0.03456   0.03856   0.04040

 Mulliken charges and spin densities:
               1          2
     1  C    0.084576  -0.000000
     2  C   -0.452391   0.000000
     3  C   -0.486118  -0.000000
     4  C    0.197790  -0.000000
     5  C    0.033526   0.000000
     6  C    0.147447   0.000000
     7  C   -0.345317  -0.000000
     8  C    0.603893   0.000000
     9  C    0.500095   0.000000
    10  C   -0.284592  -0.000000
    11  C   -0.410164   0.000000
    12  C    0.145232   0.000000
    13  C   -0.595138  -0.000000
    14  C    0.251964  -0.000000
    15  O   -0.291037  -0.000000
    16  O   -0.272721   0.000000
    17  O   -0.287488  -0.000000
    18  Br  -0.136845  -0.000000
    19  N   -0.303437  -0.000000
    20  H    0.188995   0.000000
    21  H    0.174993   0.000000
    22  H    0.175713  -0.000000
    23  H    0.188102  -0.000000
    24  H    0.247525  -0.000000
    25  H    0.338418   0.000000
    26  H    0.341152   0.000000
    27  H    0.245827   0.000000
 Sum of Mulliken charges =  -0.00000  -0.00000

 Dipole moment (field-independent basis, Debye):
    X=              0.2159    Y=              1.6400    Z=             -0.9723  Tot=              1.9187
 Quadrupole moment (field-independent basis, Debye-Ang):
   XX=           -103.6198   YY=           -134.9771   ZZ=           -123.0684
   XY=              3.2245   XZ=             -9.9317   YZ=              4.3857

  Exact polarizability: 318.795  -7.411 197.621 -82.671 -51.750 157.192
 Approx polarizability: 496.127 -36.296 374.694-112.499-103.493 257.753

                      1                      2                      3
                      A                      A                      A
 Frequencies --     31.5607                70.9701                83.1532
 Red. masses --      8.9172                 7.7373                10.3563
 Frc consts  --      0.0052                 0.0230                 0.0422
 IR Inten    --      2.4457                 4.8480                 0.0271

                      4                      5                      6
                      A                      A                      A
 Frequencies --    129.1377               143.8879               156.9987
 Red. masses --      5.3160                10.5237                 7.6617
 Frc consts  --      0.0522                 0.1284                 0.1113
 IR Inten    --      3.1805                 0.0883                 0.0887

                      7                      8                      9
                      A                      A                      A
 Frequencies --    198.3210               220.4530               229.0680
 Red. masses --      2.9976                12.5427                 1.6785
 Frc consts  --      0.0695                 0.3591                 0.0519
 IR Inten    --     40.6453                 0.8395                64.6576

                     10                     11                     12
                      A                      A                      A
 Frequencies --    247.1619               256.8029               331.7858
 Red. masses --      7.0716                 4.0931                 6.1608
 Frc consts  --      0.2545                 0.1590                 0.3996
 IR Inten    --      0.1016                26.2280                 3.7601

                     13                     14                     15
                      A                      A                      A
 Frequencies --    361.5096               380.2839               397.1031
 Red. masses --      4.9345                 6.3889                10.8446
 Frc consts  --      0.3800                 0.5444                 1.0076
 IR Inten    --      1.2897                 8.0879                 0.2015

                     16                     17                     18
                      A                      A                      A
 Frequencies --    427.9376               438.7252               442.0227
 Red. masses --      3.5373                 7.7162                 5.5233
 Frc consts  --      0.3817                 0.8751                 0.6358
 IR Inten    --      0.6616                33.6915                 4.2377

                     19                     20                     21
                      A                      A                      A
 Frequencies --    453.6331               487.5660               495.3473
 Red. masses --     10.7328                 8.7755                 4.7205
 Frc consts  --      1.3013                 1.2291                 0.6824
 IR Inten    --      0.4571                21.1218                 4.2700

                     22                     23                     24
                      A                      A                      A
 Frequencies --    527.9036               536.3245               623.9428
 Red. masses --      5.7684                 7.1700                 5.0461
 Frc consts  --      0.9471                 1.2151                 1.1574
 IR Inten    --      6.3908                 6.8586                 7.6308

                     25                     26                     27
                      A                      A                      A
 Frequencies --    642.2499               662.3240               671.8009
 Red. masses --      5.3744                 2.6698                 6.1919
 Frc consts  --      1.3061                 0.6900                 1.6465
 IR Inten    --      0.9809                 0.5428                 6.4161

                     28                     29                     30
                      A                      A                      A
 Frequencies --    684.6537               708.7045               729.6301
 Red. masses --      1.4276                 5.9771                 6.8150
 Frc consts  --      0.3943                 1.7688                 2.1376
 IR Inten    --     11.0544                 0.0808                10.8638

                     31                     32                     33
                      A                      A                      A
 Frequencies --    744.8531               786.3851               789.2912
 Red. masses --      2.0834                 7.1143                 5.3550
 Frc consts  --      0.6810                 2.5921                 1.9656
 IR Inten    --     53.3490                27.2825                 2.8315

                     34                     35                     36
                      A                      A                      A
 Frequencies --    813.7429               833.7037               893.1106
 Red. masses --      2.0211                 1.1386                 1.3825
 Frc consts  --      0.7885                 0.4663                 0.6497
 IR Inten    --     31.8297                91.4989                 7.4700

                     37                     38                     39
                      A                      A                      A
 Frequencies --    907.3676               913.8874               913.9859
 Red. masses --      8.5008                 1.4406                 5.7792
 Frc consts  --      4.1236                 0.7089                 2.8444
 IR Inten    --     12.8238                 0.6559                11.9956

                     40                     41                     42
                      A                      A                      A
 Frequencies --    998.3241              1002.3203              1017.6976
 Red. masses --      5.3923                 1.3777                 1.3233
 Frc consts  --      3.1664                 0.8155                 0.8075
 IR Inten    --     17.6192                 1.5301                 0.0410

                     43                     44                     45
                      A                      A                      A
 Frequencies --   1042.1295              1060.9937              1115.0913
 Red. masses --      2.8797                 1.8510                 2.2781
 Frc consts  --      1.8426                 1.2277                 1.6689
 IR Inten    --    175.5106                37.4013                 3.1273

                     46                     47                     48
                      A                      A                      A
 Frequencies --   1142.6434              1184.4477              1188.7941
 Red. masses --      2.4154                 1.1592                 2.0926
 Frc consts  --      1.8581                 0.9582                 1.7424
 IR Inten    --     36.6084                20.3227                 3.5230

                     49                     50                     51
                      A                      A                      A
 Frequencies --   1244.2370              1273.9750              1280.7943
 Red. masses --      1.7486                 3.5378                 2.2901
 Frc consts  --      1.5950                 3.3830                 2.2134
 IR Inten    --    127.3538               603.4302                19.8033

                     52                     53                     54
                      A                      A                      A
 Frequencies --   1310.9911              1341.0897              1358.7159
 Red. masses --      2.7889                 3.4875                 7.4847
 Frc consts  --      2.8241                 3.6955                 8.1411
 IR Inten    --    111.7779               161.2870                 3.6833

                     55                     56                     57
                      A                      A                      A
 Frequencies --   1382.7991              1422.5936              1433.9336
 Red. masses --      3.3461                 7.1882                 3.6365
 Frc consts  --      3.7697                 8.5710                 4.4054
 IR Inten    --    195.8249               100.1650                56.6937

                     58                     59                     60
                      A                      A                      A
 Frequencies --   1471.5287              1485.3563              1507.6182
 Red. masses --      3.2481                 2.5599                 2.6316
 Frc consts  --      4.1440                 3.3276                 3.5242
 IR Inten    --    100.0019                 1.5227                 2.9210

                     61                     62                     63
                      A                      A                      A
 Frequencies --   1557.2796              1596.5999              1608.4086
 Red. masses --      4.1797                 2.3206                 5.0499
 Frc consts  --      5.9721                 3.4853                 7.6970
 IR Inten    --    180.4191               181.0286                56.9346

                     64                     65                     66
                      A                      A                      A
 Frequencies --   1621.3054              1631.1247              1666.1647
 Red. masses --      5.1329                 2.8541                 7.0753
 Frc consts  --      7.9496                 4.4740                11.5727
 IR Inten    --    274.7214               107.3577               206.2374

                     67                     68                     69
                      A                      A                      A
 Frequencies --   1674.9791              3170.6365              3185.3243
 Red. masses --      9.3737                 1.0872                 1.0923
 Frc consts  --     15.4945                 6.4392                 6.5298
 IR Inten    --     12.4543                 3.4859                14.1205

                     70                     71                     72
                      A                      A                      A
 Frequencies --   3203.9350              3206.5579              3210.4692
 Red. masses --      1.0927                 1.0941                 1.0923
 Frc consts  --      6.6087                 6.6278                 6.6333
 IR Inten    --      0.9643                 9.9750                 1.9163

                     73                     74                     75
                      A                      A                      A
 Frequencies --   3242.4007              3487.1142              3683.2343
 Red. masses --      1.0688                 1.0541                 1.0969
 Frc consts  --      6.6206                 7.5520                 8.7679
 IR Inten    --    149.5933                63.7040               124.9102

 - Thermochemistry -
 -------------------
 Temperature   298.150 Kelvin.  Pressure   1.00000 Atm.
 Atom     1 has atomic number  6 and mass  12.00000

 Molecular mass:   316.96875 amu.
 Principal axes and moments of inertia in atomic units:
                           1         2         3
     Eigenvalues --  2667.76553********************
           X            0.91882  -0.22433   0.32473
           Y            0.05814   0.89072   0.45082
           Z           -0.39038  -0.39534   0.83145
 This molecule is an asymmetric top.
 Rotational symmetry number  1.
 Warning -- assumption of classical behavior for rotation
           may cause significant error
 Rotational temperatures (Kelvin)      0.03247     0.00827     0.00659
 Rotational constants (GHZ):           0.67650     0.17241     0.13739
 Zero-point vibrational energy     498716.6 (Joules/Mol)
                                  119.19612 (Kcal/Mol)
 Warning -- explicit consideration of  23 degrees of freedom as
           vibrations may cause significant error
 Vibrational temperatures:     45.41   102.11   119.64   185.80   207.02
          (Kelvin)            225.89   285.34   317.18   329.58   355.61
                              369.48   477.37   520.13   547.14   571.34
                              615.71   631.23   635.97   652.68   701.50
                              712.69   759.54   771.65   897.71   924.05
                              952.94   966.57   985.06  1019.67  1049.78
                             1071.68  1131.43  1135.61  1170.79  1199.51
                             1284.99  1305.50  1314.88  1315.02  1436.37
                             1442.12  1464.24  1499.39  1526.53  1604.37
                             1644.01  1704.16  1710.41  1790.18  1832.97
                             1842.78  1886.22  1929.53  1954.89  1989.54
                             2046.79  2063.11  2117.20  2137.10  2169.13
                             2240.58  2297.15  2314.14  2332.70  2346.82
                             2397.24  2409.92  4561.84  4582.97  4609.75
                             4613.52  4619.15  4665.09  5017.18  5299.35

 Zero-point correction=                           0.189951 (Hartree/Particle)
 Thermal correction to Energy=                    0.204939
 Thermal correction to Enthalpy=                  0.205883
 Thermal correction to Gibbs Free Energy=         0.146998
 Sum of electronic and zero-point Energies=          -3392.947095
 Sum of electronic and thermal Energies=             -3392.932107
 Sum of electronic and thermal Enthalpies=           -3392.931163
 Sum of electronic and thermal Free Energies=        -3392.990048

                     E (Thermal)             CV                S
                      KCal/Mol        Cal/Mol-Kelvin    Cal/Mol-Kelvin
 Total                  128.601             59.050            123.934
 Electronic               0.000              0.000              0.000
 Translational            0.889              2.981             43.157
 Rotational               0.889              2.981             34.261
 Vibrational            126.824             53.088             46.517
 Vibration     1          0.594              1.983              5.729
 Vibration     2          0.598              1.968              4.126
 Vibration     3          0.600              1.961              3.815
 Vibration     4          0.612              1.924              2.959
 Vibration     5          0.616              1.909              2.752
 Vibration     6          0.621              1.895              2.586
 Vibration     7          0.637              1.842              2.149
 Vibration     8          0.647              1.810              1.955
 Vibration     9          0.652              1.797              1.886
 Vibration    10          0.661              1.767              1.751
 Vibration    11          0.666              1.751              1.683
 Vibration    12          0.714              1.612              1.251
 Vibration    13          0.736              1.552              1.116
 Vibration    14          0.750              1.512              1.038
 Vibration    15          0.764              1.476              0.973
 Vibration    16          0.789              1.409              0.865
 Vibration    17          0.799              1.386              0.831
 Vibration    18          0.802              1.378              0.820
 Vibration    19          0.812              1.353              0.785
 Vibration    20          0.844              1.278              0.690
 Vibration    21          0.851              1.260              0.670
 Vibration    22          0.883              1.188              0.592
 Vibration    23          0.891              1.170              0.573

 Optimization completed.
    -- Stationary point found.
 Normal termination of Gaussian 16 at Sun Jan  7 05:41:38 2024.
