 Q-Chem 5.4, Q-Chem, Inc., Pleasanton, CA (2021)
 Q-Chem 5.4.0 for Intel X86 EM64T Linux

User input:
--------------------------------------------------------------
$molecule
-1 2
O                 -1.3128890000     -2.5356770000      0.9701770000
C                 -1.1681490000     -1.3820420000      0.5004690000
C                 -2.3856890000     -0.6190100000      0.0806470000
O                 -2.4379130000     -0.1674800000     -1.2903240000
C                 -2.2876070000      0.8289820000     -0.2550240000
C                 -0.9703920000      1.5356940000     -0.1770470000
O                 -0.9519300000      2.7863880000     -0.2663300000
C                  0.1931130000      0.7020590000      0.0179120000
C                  1.4819480000      1.2908280000     -0.0533550000
C                  2.6261630000      0.5596620000      0.1676890000
C                  2.5324550000     -0.8232150000      0.4890820000
C                  1.2979440000     -1.4239580000      0.5774700000
C                  0.0978470000     -0.7040550000      0.3445350000
H                 -3.3260460000     -1.0294780000      0.4443080000
H                 -3.1566160000      1.4737200000     -0.1365660000
H                  1.5296990000      2.3482960000     -0.2894310000
H                  3.6001950000      1.0349450000      0.0971990000
H                  3.4350870000     -1.4015280000      0.6634480000
H                  1.2027780000     -2.4741290000      0.8311330000
$end

$rem
BASIS  =  6-311++G(d,p)
GUI  =  2
JOB_TYPE  =  SP
METHOD  =  B3LYP
SCF_CONVERGENCE  = 8
SOLVENT_METHOD = sm12
$end

$smx
solvent dimethylformamide
charges CM5
$end

--------------------------------------------------------------

             Standard Nuclear Orientation (Angstroms)
    I     Atom           X                Y                Z
 ----------------------------------------------------------------
    1      O      -1.3128890000    -2.5356770000     0.9701770000
    2      C      -1.1681490000    -1.3820420000     0.5004690000
    3      C      -2.3856890000    -0.6190100000     0.0806470000
    4      O      -2.4379130000    -0.1674800000    -1.2903240000
    5      C      -2.2876070000     0.8289820000    -0.2550240000
    6      C      -0.9703920000     1.5356940000    -0.1770470000
    7      O      -0.9519300000     2.7863880000    -0.2663300000
    8      C       0.1931130000     0.7020590000     0.0179120000
    9      C       1.4819480000     1.2908280000    -0.0533550000
   10      C       2.6261630000     0.5596620000     0.1676890000
   11      C       2.5324550000    -0.8232150000     0.4890820000
   12      C       1.2979440000    -1.4239580000     0.5774700000
   13      C       0.0978470000    -0.7040550000     0.3445350000
   14      H      -3.3260460000    -1.0294780000     0.4443080000
   15      H      -3.1566160000     1.4737200000    -0.1365660000
   16      H       1.5296990000     2.3482960000    -0.2894310000
   17      H       3.6001950000     1.0349450000     0.0971990000
   18      H       3.4350870000    -1.4015280000     0.6634480000
   19      H       1.2027780000    -2.4741290000     0.8311330000
 ----------------------------------------------------------------

   17    -610.5230315471      4.65e-09  Convergence criterion met
 Total energy in the final basis set =     -610.6087787463

                    Orbital Energies (a.u.)
 --------------------------------------------------------------

 Alpha MOs
 -- Occupied --
-19.1475 -19.0861 -19.0861 -10.2317 -10.2314 -10.2306 -10.2306 -10.1801
-10.1797 -10.1791 -10.1791 -10.1772 -10.1768  -1.0837  -1.0083  -1.0075
 -0.8593  -0.7794  -0.7593  -0.7053  -0.6957  -0.6345  -0.6223  -0.5691
 -0.5270  -0.5223  -0.5065  -0.4686  -0.4463  -0.4405  -0.4337  -0.4157
 -0.4140  -0.4107  -0.4096  -0.3712  -0.3582  -0.3555  -0.3474  -0.3190
 -0.2980  -0.2668  -0.2654  -0.2446  -0.2431  -0.1377

 Beta MOs
 -- Occupied --
-19.1468 -19.0807 -19.0807 -10.2317 -10.2314 -10.2288 -10.2288 -10.1796
-10.1796 -10.1788 -10.1784 -10.1753 -10.1749  -1.0827  -0.9987  -0.9981
 -0.8562  -0.7735  -0.7561  -0.7033  -0.6895  -0.6300  -0.6208  -0.5670
 -0.5234  -0.5207  -0.5054  -0.4659  -0.4421  -0.4374  -0.4327  -0.4106
 -0.4093  -0.4040  -0.3980  -0.3635  -0.3513  -0.3451  -0.3402  -0.3120
 -0.2931  -0.2577  -0.2480  -0.2395  -0.2370

          Ground-State Mulliken Net Atomic Charges

     Atom                 Charge (a.u.)    Spin (a.u.)
  --------------------------------------------------------
      1 O                    -0.345135       0.193645
      2 C                    -0.608256       0.089180
      3 C                     0.413685       0.004874
      4 O                    -0.126941       0.021623
      5 C                     0.414169       0.004821
      6 C                    -0.609528       0.089428
      7 O                    -0.345670       0.193785
      8 C                    -1.164864       0.119785
      9 C                    -0.043435       0.008549
     10 C                     0.554204       0.075893
     11 C                     0.553272       0.075973
     12 C                    -0.044680       0.008437
     13 C                    -1.168384       0.120316
     14 H                     0.287331       0.002973
     15 H                     0.287684       0.002989
     16 H                     0.141697       0.000098
     17 H                     0.331516      -0.006233
     18 H                     0.331484      -0.006240
     19 H                     0.141849       0.000106
  --------------------------------------------------------
  Sum of atomic charges =    -1.000000

                    Cartesian Multipole Moments
 -----------------------------------------------------------------
    Charge (ESU x 10^10)
                -4.8032
    Dipole Moment (Debye)
         X       3.3762      Y      -0.0341      Z       0.1621
       Tot       3.3803
    Quadrupole Moments (Debye-Ang)
        XX     -82.4900     XY      -2.6761     YY    -108.5583
        XZ      -2.9817     YZ       5.8598     ZZ     -85.7543

 Total job time:  250.08s(wall), 1922.17s(cpu)
        *  Thank you very much for using Q-Chem.  Have a nice day.  *
