 Gaussian 16, Revision A.03,
 Gaussian 16:  ES64L-G16RevA.03 25-Dec-2016

 ----------------------------------------------------------------------
 #P UB3LYP/6-311++G(d,p) nosym opt freq SCRF=(PCM,Solvent=n,n-DiMethylF
 ormamide)
 ----------------------------------------------------------------------

 -------
 Radical
 -------
 Symbolic Z-matrix:
 Charge = -1 Multiplicity = 2

 SCF Done:  E(UB3LYP) =  -685.918543809     A.U. after   20 cycles
 SCF Done:  E(UB3LYP) =  -685.918994422     A.U. after   15 cycles
 SCF Done:  E(UB3LYP) =  -685.919056642     A.U. after   15 cycles
 SCF Done:  E(UB3LYP) =  -685.919060706     A.U. after   14 cycles
 SCF Done:  E(UB3LYP) =  -685.919061596     A.U. after   11 cycles
 Optimization completed.
    -- Stationary point found.
 Normal termination of Gaussian 16 at Sun Feb 11 15:06:02 2024.

 ----------------------------------------------------------------------
 #P Geom=AllCheck Guess=TCheck SCRF=Check GenChk UB3LYP/6-311++G(d,p) F
 req
 ----------------------------------------------------------------------

 Structure from the checkpoint file:  "309-rad.chk"
 -------
 Radical
 -------
 Charge = -1 Multiplicity = 2

                          Input orientation:
 ---------------------------------------------------------------------
 Center     Atomic      Atomic             Coordinates (Angstroms)
 Number     Number       Type             X           Y           Z
 ---------------------------------------------------------------------
      1          8           0        1.684905    2.419725    0.385010
      2          6           0        1.402336    1.201255    0.198262
      3          6           0        0.015722    0.706870    0.205436
      4          6           0       -1.041586    1.610170    0.428045
      5          6           0       -2.359485    1.183874    0.443209
      6          6           0       -2.662344   -0.174625    0.233617
      7          6           0       -1.641553   -1.082793    0.012167
      8          6           0       -0.294086   -0.669039   -0.007435
      9          6           0        0.773297   -1.628394   -0.241311
     10          8           0        0.606725   -2.876387   -0.444608
     11          6           0        2.107796   -1.112913   -0.238441
     12          8           0        3.115638   -2.013059   -0.456446
     13          6           0        2.421714    0.212033   -0.032561
     14          8           0        3.727311    0.631903   -0.043414
     15          1           0       -0.796740    2.653267    0.588507
     16          1           0       -3.158404    1.896588    0.616792
     17          1           0       -3.694175   -0.508567    0.245867
     18          1           0       -1.860441   -2.131697   -0.150573
     19          1           0        2.652142   -2.865522   -0.572861
     20          1           0        4.288149   -0.137744   -0.210126
 ---------------------------------------------------------------------

 SCF Done:  E(UB3LYP) =  -685.919061596     A.U. after    1 cycles

 Alpha  occ. eigenvalues --  -19.15394 -19.15356 -19.08528 -19.07835 -10.22709
 Alpha  occ. eigenvalues --  -10.22592 -10.22458 -10.22215 -10.17707 -10.17639
 Alpha  occ. eigenvalues --  -10.17287 -10.17236 -10.17207 -10.17098  -1.07825
 Alpha  occ. eigenvalues --   -1.05392  -0.99878  -0.99581  -0.86037  -0.80326
 Alpha  occ. eigenvalues --   -0.75274  -0.73698  -0.68317  -0.62949  -0.62075
 Alpha  occ. eigenvalues --   -0.57909  -0.55744  -0.52636  -0.51503  -0.47592
 Alpha  occ. eigenvalues --   -0.46328  -0.44792  -0.43671  -0.42635  -0.41753
 Alpha  occ. eigenvalues --   -0.41556  -0.39628  -0.39413  -0.38685  -0.37418
 Alpha  occ. eigenvalues --   -0.35578  -0.35115  -0.34405  -0.34011  -0.26782
 Alpha  occ. eigenvalues --   -0.25941  -0.25902  -0.24605  -0.22139  -0.15308
 Alpha virt. eigenvalues --   -0.03296  -0.00831  -0.00675   0.00392   0.01491
 Alpha virt. eigenvalues --    0.02686   0.02987   0.04486   0.04924   0.05386
 Alpha virt. eigenvalues --    0.05412   0.06551   0.07096   0.07712   0.07884

  Beta  occ. eigenvalues --  -19.15347 -19.15328 -19.07943 -19.07220 -10.22528
  Beta  occ. eigenvalues --  -10.22359 -10.22346 -10.22161 -10.17659 -10.17559
  Beta  occ. eigenvalues --  -10.17255 -10.17195 -10.17167 -10.17095  -1.07703
  Beta  occ. eigenvalues --   -1.05242  -0.98842  -0.98547  -0.85792  -0.79887
  Beta  occ. eigenvalues --   -0.75036  -0.73530  -0.67431  -0.62739  -0.61839
  Beta  occ. eigenvalues --   -0.57678  -0.55559  -0.52476  -0.51287  -0.47366
  Beta  occ. eigenvalues --   -0.46132  -0.43798  -0.43546  -0.42564  -0.41393
  Beta  occ. eigenvalues --   -0.41041  -0.39238  -0.38128  -0.38048  -0.37242
  Beta  occ. eigenvalues --   -0.35440  -0.33879  -0.33581  -0.32897  -0.25409
  Beta  occ. eigenvalues --   -0.25141  -0.24844  -0.24021  -0.21225
  Beta virt. eigenvalues --   -0.08788  -0.02524  -0.00792   0.00398   0.00411
  Beta virt. eigenvalues --    0.01509   0.02701   0.03004   0.04882   0.04965
  Beta virt. eigenvalues --    0.05394   0.06574   0.07146   0.07253   0.07758

 Mulliken charges and spin densities:
               1          2
     1  O   -0.494157   0.227517
     2  C   -0.587772   0.090222
     3  C    0.446545   0.037844
     4  C    0.172195   0.028062
     5  C   -0.435106   0.047600
     6  C   -0.354399   0.023187
     7  C    0.092967   0.046583
     8  C    0.445078   0.029893
     9  C   -0.640774   0.116234
    10  O   -0.529353   0.213070
    11  C    0.065745   0.047034
    12  O   -0.337125   0.008878
    13  C    0.175401   0.085569
    14  O   -0.318507   0.011947
    15  H    0.161510  -0.001679
    16  H    0.181853  -0.003630
    17  H    0.186174  -0.002124
    18  H    0.162263  -0.002687
    19  H    0.301296  -0.002867
    20  H    0.306166  -0.000652
 Sum of Mulliken charges =  -1.00000   1.00000

 Dipole moment (field-independent basis, Debye):
    X=             -6.5777    Y=             -1.4389    Z=             -0.2193  Tot=              6.7368
 Quadrupole moment (field-independent basis, Debye-Ang):
   XX=            -92.8030   YY=           -114.1442   ZZ=            -86.3282
   XY=            -13.2719   XZ=             -2.3679   YZ=             -4.0913

  Exact polarizability: 279.215   2.485 281.971 -11.373  30.984 104.582
 Approx polarizability: 306.837   9.954 337.121 -11.023  37.596 119.022

                      1                      2                      3
                      A                      A                      A
 Frequencies --     88.7286               119.7257               160.6808
 Red. masses --      8.6092                 4.7272                 8.0745
 Frc consts  --      0.0399                 0.0399                 0.1228
 IR Inten    --     12.2103                 0.7015                 0.8992

                      4                      5                      6
                      A                      A                      A
 Frequencies --    174.1049               259.7223               279.9406
 Red. masses --      7.0826                 5.6605                 5.1348
 Frc consts  --      0.1265                 0.2250                 0.2371
 IR Inten    --      0.5798                 5.7807                20.2434

                      7                      8                      9
                      A                      A                      A
 Frequencies --    311.8011               315.6352               366.3985
 Red. masses --      3.9988                 7.3176                 4.7242
 Frc consts  --      0.2291                 0.4295                 0.3737
 IR Inten    --     11.7045                25.8641                56.0904

                     10                     11                     12
                      A                      A                      A
 Frequencies --    367.3256               420.0468               423.2639
 Red. masses --      1.4726                 9.0543                 6.4528
 Frc consts  --      0.1171                 0.9412                 0.6811
 IR Inten    --    165.5871                 1.1411                 4.3956

                     13                     14                     15
                      A                      A                      A
 Frequencies --    434.9534               447.1521               519.3637
 Red. masses --      8.6650                 3.4054                11.0211
 Frc consts  --      0.9658                 0.4012                 1.7515
 IR Inten    --      4.4981                15.3991                 0.8534

                     16                     17                     18
                      A                      A                      A
 Frequencies --    546.6446               570.4894               623.4456
 Red. masses --      2.0984                 1.6441                 8.5016
 Frc consts  --      0.3694                 0.3153                 1.9469
 IR Inten    --     35.4618                65.0188                10.1391

                     19                     20                     21
                      A                      A                      A
 Frequencies --    672.3155               677.9415               697.4086
 Red. masses --      6.5435                 7.1725                 3.5019
 Frc consts  --      1.7426                 1.9422                 1.0035
 IR Inten    --     15.9205                 6.3362                61.0123

                     22                     23                     24
                      A                      A                      A
 Frequencies --    719.5410               735.9395               780.3867
 Red. masses --      6.5638                 5.0109                 1.6408
 Frc consts  --      2.0022                 1.5990                 0.5887
 IR Inten    --     13.7322                 6.3163                60.3425

                     25                     26                     27
                      A                      A                      A
 Frequencies --    877.6871               889.7129               960.4776
 Red. masses --      1.3528                 5.5268                 7.6331
 Frc consts  --      0.6140                 2.5776                 4.1488
 IR Inten    --      0.0444                96.2369               242.6242

                     28                     29                     30
                      A                      A                      A
 Frequencies --    978.6771               995.1376              1044.7038
 Red. masses --      1.3672                 1.2807                 1.9930
 Frc consts  --      0.7715                 0.7473                 1.2816
 IR Inten    --      2.8732                 0.0061                 6.5881

                     31                     32                     33
                      A                      A                      A
 Frequencies --   1061.9076              1111.2906              1157.5340
 Red. masses --      5.6040                 2.1613                 1.3017
 Frc consts  --      3.7232                 1.5726                 1.0276
 IR Inten    --    225.7396                 4.0801                22.1965

                     34                     35                     36
                      A                      A                      A
 Frequencies --   1176.2650              1206.3511              1234.1404
 Red. masses --      2.0455                 1.9991                 2.4831
 Frc consts  --      1.6675                 1.7141                 2.2283
 IR Inten    --    219.4190                17.2665                56.1878

                     37                     38                     39
                      A                      A                      A
 Frequencies --   1277.9198              1309.6596              1337.7592
 Red. masses --      2.1670                 2.1863                 2.9799
 Frc consts  --      2.0851                 2.2094                 3.1420
 IR Inten    --    423.4409               442.4591                62.8179

                     40                     41                     42
                      A                      A                      A
 Frequencies --   1354.8340              1445.1040              1459.6022
 Red. masses --      5.0138                 2.5302                 3.4424
 Frc consts  --      5.4224                 3.1132                 4.3210
 IR Inten    --    167.6032               277.5799               316.4840

                     43                     44                     45
                      A                      A                      A
 Frequencies --   1467.6203              1507.9479              1538.2090
 Red. masses --      4.4524                 4.6696                 5.1858
 Frc consts  --      5.6503                 6.2562                 7.2293
 IR Inten    --    497.0279               965.4518               155.5305

                     46                     47                     48
                      A                      A                      A
 Frequencies --   1579.8221              1623.8802              1641.6278
 Red. masses --      6.5397                 5.8033                 7.2578
 Frc consts  --      9.6167                 9.0164                11.5241
 IR Inten    --     54.1141                 4.8085                71.5846

                     49                     50                     51
                      A                      A                      A
 Frequencies --   3159.7357              3173.0194              3186.4487
 Red. masses --      1.0858                 1.0896                 1.0920
 Frc consts  --      6.3870                 6.4637                 6.5328
 IR Inten    --      8.3308                17.4191                20.7776

                     52                     53                     54
                      A                      A                      A
 Frequencies --   3190.5783              3588.3647              3777.6149
 Red. masses --      1.0952                 1.0642                 1.0658
 Frc consts  --      6.5690                 8.0735                 8.9611
 IR Inten    --     34.2484               181.1163               172.4155

 - Thermochemistry -
 -------------------
 Temperature   298.150 Kelvin.  Pressure   1.00000 Atm.
 Atom     1 has atomic number  8 and mass  15.99491

 Molecular mass:   190.02661 amu.
 Principal axes and moments of inertia in atomic units:
                           1         2         3
     Eigenvalues --  1623.024592739.130274362.14705
           X            0.97312   0.22123   0.06399
           Y           -0.20810   0.96372  -0.16717
           Z           -0.09865   0.14936   0.98385
 This molecule is an asymmetric top.
 Rotational symmetry number  1.
 Warning -- assumption of classical behavior for rotation
           may cause significant error
 Rotational temperatures (Kelvin)      0.05337     0.03162     0.01986
 Rotational constants (GHZ):           1.11196     0.65887     0.41373
 Zero-point vibrational energy     365020.1 (Joules/Mol)
                                   87.24189 (Kcal/Mol)
 Warning -- explicit consideration of  17 degrees of freedom as
           vibrations may cause significant error
 Vibrational temperatures:    127.66   172.26   231.18   250.50   373.68
          (Kelvin)            402.77   448.61   454.13   527.17   528.50
                              604.35   608.98   625.80   643.35   747.25
                              786.50   820.81   897.00   967.31   975.41
                             1003.42  1035.26  1058.85  1122.80  1262.80
                             1280.10  1381.91  1408.10  1431.78  1503.10
                             1527.85  1598.90  1665.43  1692.38  1735.67
                             1775.65  1838.64  1884.31  1924.74  1949.30
                             2079.18  2100.04  2111.58  2169.60  2213.14
                             2273.01  2336.40  2361.94  4546.15  4565.27
                             4584.59  4590.53  5162.86  5435.15

 Zero-point correction=                           0.139029 (Hartree/Particle)
 Thermal correction to Energy=                    0.149915
 Thermal correction to Enthalpy=                  0.150859
 Thermal correction to Gibbs Free Energy=         0.102125
 Sum of electronic and zero-point Energies=           -685.780033
 Sum of electronic and thermal Energies=              -685.769146
 Sum of electronic and thermal Enthalpies=            -685.768202
 Sum of electronic and thermal Free Energies=         -685.816936

                     E (Thermal)             CV                S
                      KCal/Mol        Cal/Mol-Kelvin    Cal/Mol-Kelvin
 Total                   94.073             43.428            102.569
 Electronic               0.000              0.000              1.377
 Translational            0.889              2.981             41.632
 Rotational               0.889              2.981             31.340
 Vibrational             92.296             37.467             28.221
 Vibration     1          0.602              1.957              3.688
 Vibration     2          0.609              1.933              3.105
 Vibration     3          0.622              1.891              2.542
 Vibration     4          0.627              1.874              2.391
 Vibration     5          0.668              1.746              1.664
 Vibration     6          0.680              1.711              1.534
 Vibration     7          0.700              1.651              1.353
 Vibration     8          0.703              1.644              1.333
 Vibration     9          0.739              1.541              1.095
 Vibration    10          0.740              1.539              1.091
 Vibration    11          0.783              1.427              0.892
 Vibration    12          0.785              1.420              0.881
 Vibration    13          0.796              1.394              0.843
 Vibration    14          0.806              1.367              0.804
 Vibration    15          0.874              1.207              0.611
 Vibration    16          0.902              1.147              0.551
 Vibration    17          0.927              1.095              0.503

                           ! Non-Optimized Parameters !
 Normal termination of Gaussian 16 at Sun Feb 11 15:18:33 2024.
