 Gaussian 16, Revision A.03,
 Gaussian 16:  ES64L-G16RevA.03 25-Dec-2016

 --------------------------------------
 #P UB3LYP/6-311++G(d,p) nosym opt freq
 --------------------------------------

 --------
 Oxidized
 --------
 Symbolic Z-matrix:
 Charge =  0 Multiplicity = 1

 SCF Done:  E(UB3LYP) =  -1314.98912547     A.U. after   18 cycles
 SCF Done:  E(UB3LYP) =  -1314.99581192     A.U. after   16 cycles
 SCF Done:  E(UB3LYP) =  -1314.99678810     A.U. after   17 cycles
 SCF Done:  E(UB3LYP) =  -1314.99689177     A.U. after   16 cycles
 SCF Done:  E(UB3LYP) =  -1314.99688321     A.U. after   16 cycles
 SCF Done:  E(UB3LYP) =  -1314.99697663     A.U. after   14 cycles
 SCF Done:  E(UB3LYP) =  -1314.99697947     A.U. after   14 cycles
 SCF Done:  E(UB3LYP) =  -1314.99698335     A.U. after   13 cycles
 SCF Done:  E(UB3LYP) =  -1314.99698391     A.U. after   13 cycles
 SCF Done:  E(UB3LYP) =  -1314.99698421     A.U. after   11 cycles
 SCF Done:  E(UB3LYP) =  -1314.99698441     A.U. after   11 cycles
 SCF Done:  E(UB3LYP) =  -1314.99698448     A.U. after   10 cycles
 Optimization completed.
    -- Stationary point found.
 Normal termination of Gaussian 16 at Tue Dec 26 21:55:48 2023.

 ----------------------------------------------------------------------
 #P Geom=AllCheck Guess=TCheck SCRF=Check GenChk UB3LYP/6-311++G(d,p) F
 req
 ----------------------------------------------------------------------

 Structure from the checkpoint file:  "268.chk"
 --------
 Oxidized
 --------
 Charge =  0 Multiplicity = 1

                          Input orientation:
 ---------------------------------------------------------------------
 Center     Atomic      Atomic             Coordinates (Angstroms)
 Number     Number       Type             X           Y           Z
 ---------------------------------------------------------------------
      1          6           0        1.449742    3.395614   -0.413674
      2          6           0        0.643840    3.112574   -1.511515
      3          6           0       -0.052916    1.903626   -1.579700
      4          6           0        1.559988    2.471628    0.628370
      5          6           0        0.857676    1.255344    0.559601
      6          6           0        0.054592    0.976418   -0.548735
      7          6           0        2.434671    2.797783    1.794081
      8          6           0        2.473964    1.789168    2.894309
      9          6           0        1.814277    0.626289    2.829155
     10          6           0        0.967981    0.260022    1.659876
     11          8           0        3.093707    3.818688    1.840318
     12          8           0        0.399660   -0.816990    1.635610
     13         16           0        3.372653    2.167756    4.447741
     14          8           0        2.864905    3.446374    4.942386
     15          8           0        3.264202    0.948758    5.257534
     16          6           0        5.099429    2.353940    3.978169
     17          6           0        5.590464    3.621085    3.671763
     18          6           0        5.916207    1.223767    3.975864
     19          6           0        6.937641    3.751911    3.344985
     20          6           0        7.767465    2.630755    3.325947
     21          6           0        7.259719    1.370126    3.640089
     22          1           0        1.998412    4.326621   -0.343935
     23          1           0        0.556977    3.833497   -2.316237
     24          1           0       -0.678940    1.687020   -2.437584
     25          1           0       -0.475557    0.032515   -0.582105
     26          1           0        1.864774   -0.094399    3.638458
     27          1           0        4.927116    4.474796    3.689540
     28          1           0        5.508805    0.259337    4.251738
     29          1           0        7.338746    4.730384    3.108306
     30          1           0        8.815214    2.740422    3.069774
     31          1           0        7.910227    0.503421    3.636761
 ---------------------------------------------------------------------

 SCF Done:  E(UB3LYP) =  -1314.99698448     A.U. after    2 cycles

 Alpha  occ. eigenvalues --  -89.06505 -19.15084 -19.15018 -19.12722 -19.12686
 Alpha  occ. eigenvalues --  -10.30540 -10.29928 -10.25115 -10.23679 -10.22647
 Alpha  occ. eigenvalues --  -10.22617 -10.22470 -10.21641 -10.21587 -10.21458
 Alpha  occ. eigenvalues --  -10.21448 -10.20899 -10.20568 -10.20454 -10.20204
 Alpha  occ. eigenvalues --  -10.20073  -8.12867  -6.09108  -6.09067  -6.08989
 Alpha  occ. eigenvalues --   -1.12346  -1.08585  -1.08170  -1.01906  -0.90863
 Alpha  occ. eigenvalues --   -0.89122  -0.86711  -0.80293  -0.79574  -0.79156
 Alpha  occ. eigenvalues --   -0.77828  -0.73006  -0.69709  -0.66996  -0.65470
 Alpha  occ. eigenvalues --   -0.63736  -0.61715  -0.60079  -0.56842  -0.55861
 Alpha  occ. eigenvalues --   -0.54445  -0.52628  -0.51091  -0.49775  -0.49053
 Alpha  occ. eigenvalues --   -0.48061  -0.47654  -0.47175  -0.46787  -0.46766
 Alpha  occ. eigenvalues --   -0.46129  -0.45692  -0.45272  -0.44641  -0.43457
 Alpha  occ. eigenvalues --   -0.40265  -0.40190  -0.39759  -0.39362  -0.38756
 Alpha  occ. eigenvalues --   -0.37626  -0.35107  -0.34224  -0.33177  -0.32029
 Alpha  occ. eigenvalues --   -0.31766  -0.30373  -0.29924  -0.29481  -0.28885
 Alpha  occ. eigenvalues --   -0.28504  -0.28085
 Alpha virt. eigenvalues --   -0.14535  -0.07534  -0.06599  -0.04793  -0.03813
 Alpha virt. eigenvalues --   -0.01652  -0.01185   0.00333   0.00433   0.00691
 Alpha virt. eigenvalues --    0.00905   0.01544   0.02591   0.02982   0.03230

  Beta  occ. eigenvalues --  -89.06505 -19.15084 -19.15018 -19.12722 -19.12686
  Beta  occ. eigenvalues --  -10.30540 -10.29928 -10.25115 -10.23679 -10.22647
  Beta  occ. eigenvalues --  -10.22617 -10.22470 -10.21641 -10.21587 -10.21458
  Beta  occ. eigenvalues --  -10.21448 -10.20899 -10.20568 -10.20454 -10.20204
  Beta  occ. eigenvalues --  -10.20073  -8.12867  -6.09108  -6.09067  -6.08989
  Beta  occ. eigenvalues --   -1.12346  -1.08585  -1.08170  -1.01906  -0.90863
  Beta  occ. eigenvalues --   -0.89122  -0.86711  -0.80293  -0.79574  -0.79156
  Beta  occ. eigenvalues --   -0.77828  -0.73006  -0.69709  -0.66996  -0.65470
  Beta  occ. eigenvalues --   -0.63736  -0.61715  -0.60079  -0.56842  -0.55861
  Beta  occ. eigenvalues --   -0.54445  -0.52628  -0.51091  -0.49775  -0.49053
  Beta  occ. eigenvalues --   -0.48061  -0.47654  -0.47175  -0.46787  -0.46766
  Beta  occ. eigenvalues --   -0.46129  -0.45692  -0.45272  -0.44641  -0.43457
  Beta  occ. eigenvalues --   -0.40265  -0.40190  -0.39759  -0.39362  -0.38756
  Beta  occ. eigenvalues --   -0.37626  -0.35107  -0.34224  -0.33177  -0.32029
  Beta  occ. eigenvalues --   -0.31766  -0.30373  -0.29924  -0.29481  -0.28885
  Beta  occ. eigenvalues --   -0.28504  -0.28085
  Beta virt. eigenvalues --   -0.14535  -0.07534  -0.06599  -0.04793  -0.03813
  Beta virt. eigenvalues --   -0.01652  -0.01185   0.00333   0.00433   0.00691
  Beta virt. eigenvalues --    0.00905   0.01544   0.02591   0.02982   0.03230

 Mulliken charges and spin densities:
               1          2
     1  C    0.218321  -0.000000
     2  C   -0.348258   0.000000
     3  C   -0.252448  -0.000000
     4  C    0.102216   0.000000
     5  C    0.432879  -0.000000
     6  C    0.088339   0.000000
     7  C   -0.406806  -0.000000
     8  C   -0.168706   0.000000
     9  C   -0.168896  -0.000000
    10  C   -0.665612   0.000000
    11  O   -0.147252  -0.000000
    12  O   -0.198907  -0.000000
    13  S    0.480960  -0.000000
    14  O   -0.059292  -0.000000
    15  O   -0.094067   0.000000
    16  C    0.543889   0.000000
    17  C   -0.295080  -0.000000
    18  C    0.029360   0.000000
    19  C   -0.394995   0.000000
    20  C   -0.273158   0.000000
    21  C   -0.524638  -0.000000
    22  H    0.182006   0.000000
    23  H    0.183862  -0.000000
    24  H    0.186401  -0.000000
    25  H    0.180636   0.000000
    26  H    0.297543   0.000000
    27  H    0.282690   0.000000
    28  H    0.243389   0.000000
    29  H    0.193059  -0.000000
    30  H    0.168607   0.000000
    31  H    0.183959  -0.000000
 Sum of Mulliken charges =  -0.00000  -0.00000

 Dipole moment (field-independent basis, Debye):
    X=              2.0834    Y=              0.5808    Z=             -5.9252  Tot=              6.3076
 Quadrupole moment (field-independent basis, Debye-Ang):
   XX=            -95.8790   YY=           -130.9797   ZZ=           -157.1791
   XY=              2.3210   XZ=             -0.1131   YZ=            -15.8804

  Exact polarizability: 236.095  36.330 213.032  45.563 -14.807 203.867
 Approx polarizability: 343.501  79.045 432.531  35.838 -28.994 299.801

                      1                      2                      3
                      A                      A                      A
 Frequencies --     23.4341                31.1319                47.1687
 Red. masses --      5.8830                 7.2313                 4.8613
 Frc consts  --      0.0019                 0.0041                 0.0064
 IR Inten    --      1.0379                 0.6279                 0.6381

                      4                      5                      6
                      A                      A                      A
 Frequencies --     72.1924               116.8144               133.8597
 Red. masses --      6.3877                 5.2044                 8.6156
 Frc consts  --      0.0196                 0.0418                 0.0910
 IR Inten    --      1.0714                 0.4474                 6.8493

                      7                      8                      9
                      A                      A                      A
 Frequencies --    136.6574               178.4003               186.4949
 Red. masses --      7.5994                 6.4909                 5.9308
 Frc consts  --      0.0836                 0.1217                 0.1215
 IR Inten    --      2.5924                 1.0770                 1.0120

                     10                     11                     12
                      A                      A                      A
 Frequencies --    208.7503               231.7939               267.1995
 Red. masses --      5.8925                 7.4939                 8.5110
 Frc consts  --      0.1513                 0.2372                 0.3580
 IR Inten    --      0.1074                 1.2753                 0.3159

                     13                     14                     15
                      A                      A                      A
 Frequencies --    280.5024               302.2986               357.5269
 Red. masses --      9.0520                 8.5442                 6.3889
 Frc consts  --      0.4196                 0.4600                 0.4812
 IR Inten    --      0.7923                 2.4356                 3.0554

                     16                     17                     18
                      A                      A                      A
 Frequencies --    375.8953               410.7036               412.3378
 Red. masses --     10.3320                 3.7155                 3.6078
 Frc consts  --      0.8601                 0.3693                 0.3614
 IR Inten    --     14.7430                 1.0233                 0.4580

                     19                     20                     21
                      A                      A                      A
 Frequencies --    432.0141               451.2782               459.3240
 Red. masses --      4.8941                 5.5477                 9.8935
 Frc consts  --      0.5382                 0.6657                 1.2298
 IR Inten    --      3.0608                14.7772                 7.1299

                     22                     23                     24
                      A                      A                      A
 Frequencies --    475.9575               484.6369               539.6362
 Red. masses --      4.7020                 6.8546                 8.2119
 Frc consts  --      0.6276                 0.9486                 1.4090
 IR Inten    --      4.4635                 1.9642                42.8380

                     25                     26                     27
                      A                      A                      A
 Frequencies --    571.2413               623.1543               626.6645
 Red. masses --      7.9493                 7.8561                 6.4445
 Frc consts  --      1.5283                 1.7974                 1.4911
 IR Inten    --    155.4095                68.3529                 0.0633

                     28                     29                     30
                      A                      A                      A
 Frequencies --    670.9654               678.3814               700.9167
 Red. masses --      5.7836                 4.1289                 2.2100
 Frc consts  --      1.5341                 1.1195                 0.6397
 IR Inten    --      3.1499                 4.3005                31.7617

                     31                     32                     33
                      A                      A                      A
 Frequencies --    706.5719               716.1733               728.2480
 Red. masses --      3.8069                 6.4625                 4.5604
 Frc consts  --      1.1198                 1.9529                 1.4250
 IR Inten    --     35.1922                 3.9821               101.2570

                     34                     35                     36
                      A                      A                      A
 Frequencies --    766.5164               791.6162               809.5010
 Red. masses --      1.6417                 1.9428                 3.2350
 Frc consts  --      0.5683                 0.7173                 1.2490
 IR Inten    --     16.6597                29.7681                 2.9062

                     37                     38                     39
                      A                      A                      A
 Frequencies --    812.7793               829.6479               855.6635
 Red. masses --      5.3482                 7.1442                 1.2435
 Frc consts  --      2.0816                 2.8973                 0.5364
 IR Inten    --      3.6752                 2.9794                 0.3193

                     40                     41                     42
                      A                      A                      A
 Frequencies --    916.6678               947.5418               964.3107
 Red. masses --      1.3680                 1.3514                 1.4301
 Frc consts  --      0.6773                 0.7149                 0.7835
 IR Inten    --      0.1324                 0.4088                 8.6539

                     43                     44                     45
                      A                      A                      A
 Frequencies --    993.9854              1002.9107              1012.0514
 Red. masses --      1.3830                 1.3877                 1.3169
 Frc consts  --      0.8050                 0.8224                 0.7947
 IR Inten    --      0.1878                 0.6251                 0.0688

                     46                     47                     48
                      A                      A                      A
 Frequencies --   1014.3402              1019.0284              1038.5543
 Red. masses --      6.0293                 1.3236                 4.0607
 Frc consts  --      3.6550                 0.8098                 2.5806
 IR Inten    --      4.3066                 0.0114                 8.7955

                     49                     50                     51
                      A                      A                      A
 Frequencies --   1042.5056              1062.5770              1080.7635
 Red. masses --      3.4630                 3.1368                 2.9693
 Frc consts  --      2.2175                 2.0867                 2.0435
 IR Inten    --     31.2270                43.2808                73.1531

                     52                     53                     54
                      A                      A                      A
 Frequencies --   1092.0035              1101.2235              1116.4851
 Red. masses --      3.0027                 1.5685                 4.4616
 Frc consts  --      2.1096                 1.1207                 3.2768
 IR Inten    --     18.3615                 7.5913               126.9656

                     55                     56                     57
                      A                      A                      A
 Frequencies --   1136.3587              1185.2838              1185.5232
 Red. masses --      1.8888                 1.1268                 1.1212
 Frc consts  --      1.4370                 0.9327                 0.9284
 IR Inten    --     42.5958                 8.5190                 0.4037

                     58                     59                     60
                      A                      A                      A
 Frequencies --   1200.7333              1230.6412              1267.9688
 Red. masses --      1.1559                 2.1734                 2.3679
 Frc consts  --      0.9819                 1.9394                 2.2430
 IR Inten    --      6.5013                79.9215               170.6275

                     61                     62                     63
                      A                      A                      A
 Frequencies --   1282.5507              1308.5436              1332.4881
 Red. masses --     13.2312                 2.4983                 2.5202
 Frc consts  --     12.8232                 2.5204                 2.6364
 IR Inten    --    151.0942               139.4401                 3.5902

                     64                     65                     66
                      A                      A                      A
 Frequencies --   1337.4534              1347.3150              1359.4973
 Red. masses --      2.4447                 1.9614                 7.3550
 Frc consts  --      2.5765                 2.0978                 8.0092
 IR Inten    --     29.6746                 2.8884                 7.0743

                     67                     68                     69
                      A                      A                      A
 Frequencies --   1476.7916              1482.0819              1505.5311
 Red. masses --      2.1482                 2.3534                 2.5912
 Frc consts  --      2.7604                 3.0458                 3.4604
 IR Inten    --     16.2212                 0.1472                 1.4530

                     70                     71                     72
                      A                      A                      A
 Frequencies --   1506.3048              1611.4464              1621.6928
 Red. masses --      2.0158                 6.5769                 5.3102
 Frc consts  --      2.6948                10.0625                 8.2280
 IR Inten    --      3.3378                 0.6911                 3.4154

                     73                     74                     75
                      A                      A                      A
 Frequencies --   1624.3798              1627.7992              1656.1474
 Red. masses --      5.7650                 5.7436                 9.1181
 Frc consts  --      8.9624                 8.9667                14.7350
 IR Inten    --      0.8747                63.1982                32.4971

                     76                     77                     78
                      A                      A                      A
 Frequencies --   1724.6351              1732.9795              3169.7490
 Red. masses --     11.9641                12.3882                 1.0865
 Frc consts  --     20.9665                21.9203                 6.4316
 IR Inten    --     32.2339               357.4858                 0.6920

                     79                     80                     81
                      A                      A                      A
 Frequencies --   3173.8661              3182.2670              3187.3724
 Red. masses --      1.0872                 1.0901                 1.0915
 Frc consts  --      6.4526                 6.5039                 6.5332
 IR Inten    --      2.5141                 9.4635                 8.3072

                     82                     83                     84
                      A                      A                      A
 Frequencies --   3187.7136              3191.1507              3200.3866
 Red. masses --      1.0917                 1.0948                 1.0930
 Frc consts  --      6.5360                 6.5690                 6.5962
 IR Inten    --      6.3285                10.6167                 0.7453

                     85                     86                     87
                      A                      A                      A
 Frequencies --   3203.5732              3203.6154              3221.3191
 Red. masses --      1.0948                 1.0950                 1.0934
 Frc consts  --      6.6199                 6.6211                 6.6847
 IR Inten    --      8.6239                 5.0339                 4.0364

 - Thermochemistry -
 -------------------
 Temperature   298.150 Kelvin.  Pressure   1.00000 Atm.
 Atom     1 has atomic number  6 and mass  12.00000

 Molecular mass:   298.02998 amu.
 Principal axes and moments of inertia in atomic units:
                           1         2         3
     Eigenvalues --  3344.618689602.42667**********
           X            0.77502   0.39648  -0.49209
           Y            0.12430   0.66784   0.73385
           Z            0.61959  -0.62992   0.46831
 This molecule is an asymmetric top.
 Rotational symmetry number  1.
 Warning -- assumption of classical behavior for rotation
           may cause significant error
 Rotational temperatures (Kelvin)      0.02590     0.00902     0.00797
 Rotational constants (GHZ):           0.53960     0.18795     0.16613
 Zero-point vibrational energy     583623.1 (Joules/Mol)
                                  139.48926 (Kcal/Mol)
 Warning -- explicit consideration of  25 degrees of freedom as
           vibrations may cause significant error
 Vibrational temperatures:     33.72    44.79    67.87   103.87   168.07
          (Kelvin)            192.59   196.62   256.68   268.32   300.35
                              333.50   384.44   403.58   434.94   514.40
                              540.83   590.91   593.26   621.57   649.29
                              660.86   684.80   697.28   776.42   821.89
                              896.58   901.63   965.37   976.04  1008.46
                             1016.60  1030.41  1047.79  1102.85  1138.96
                             1164.69  1169.41  1193.68  1231.11  1318.88
                             1363.30  1387.43  1430.12  1442.96  1456.12
                             1459.41  1466.15  1494.25  1499.93  1528.81
                             1554.98  1571.15  1584.41  1606.37  1634.97
                             1705.36  1705.70  1727.59  1770.62  1824.32
                             1845.30  1882.70  1917.15  1924.30  1938.49
                             1956.01  2124.77  2132.39  2166.12  2167.24
                             2318.51  2333.25  2337.12  2342.04  2382.83
                             2481.37  2493.37  4560.56  4566.49  4578.57
                             4585.92  4586.41  4591.35  4604.64  4609.23
                             4609.29  4634.76

 Zero-point correction=                           0.222290 (Hartree/Particle)
 Thermal correction to Energy=                    0.239190
 Thermal correction to Enthalpy=                  0.240134
 Thermal correction to Gibbs Free Energy=         0.176078
 Sum of electronic and zero-point Energies=          -1314.774694
 Sum of electronic and thermal Energies=             -1314.757794
 Sum of electronic and thermal Enthalpies=           -1314.756850
 Sum of electronic and thermal Free Energies=        -1314.820907

                     E (Thermal)             CV                S
                      KCal/Mol        Cal/Mol-Kelvin    Cal/Mol-Kelvin
 Total                  150.094             65.705            134.818
 Electronic               0.000              0.000              0.000
 Translational            0.889              2.981             42.973
 Rotational               0.889              2.981             34.211
 Vibrational            148.317             59.743             57.634
 Vibration     1          0.593              1.985              6.320
 Vibration     2          0.594              1.983              5.756
 Vibration     3          0.595              1.979              4.933
 Vibration     4          0.598              1.967              4.093
 Vibration     5          0.608              1.935              3.152
 Vibration     6          0.613              1.920              2.890
 Vibration     7          0.614              1.917              2.850
 Vibration     8          0.629              1.869              2.345
 Vibration     9          0.632              1.858              2.262
 Vibration    10          0.642              1.827              2.055
 Vibration    11          0.653              1.792              1.865
 Vibration    12          0.672              1.733              1.614
 Vibration    13          0.680              1.710              1.531
 Vibration    14          0.694              1.669              1.404
 Vibration    15          0.733              1.560              1.133
 Vibration    16          0.747              1.521              1.056
 Vibration    17          0.775              1.447              0.924
 Vibration    18          0.776              1.443              0.918
 Vibration    19          0.793              1.400              0.852
 Vibration    20          0.810              1.358              0.792
 Vibration    21          0.817              1.340              0.768
 Vibration    22          0.833              1.303              0.721
 Vibration    23          0.841              1.284              0.698
 Vibration    24          0.895              1.162              0.566
 Vibration    25          0.927              1.093              0.502

 Optimization completed.
    -- Stationary point found.
 Normal termination of Gaussian 16 at Tue Dec 26 23:38:05 2023.
