 Gaussian 16, Revision A.03,
 Gaussian 16:  ES64L-G16RevA.03 25-Dec-2016

 ----------------------------------------------------------------------
 #P UB3LYP/6-311++G(d,p) nosym opt freq SCRF=(PCM,Solvent=n,n-DiMethylF
 ormamide)
 ----------------------------------------------------------------------

 -------
 Radical
 -------
 Symbolic Z-matrix:
 Charge = -1 Multiplicity = 2

 SCF Done:  E(UB3LYP) =  -765.524278289     A.U. after   20 cycles
 SCF Done:  E(UB3LYP) =  -765.524853507     A.U. after   21 cycles
 SCF Done:  E(UB3LYP) =  -765.525389259     A.U. after   18 cycles
 SCF Done:  E(UB3LYP) =  -765.525216673     A.U. after   18 cycles
 SCF Done:  E(UB3LYP) =  -765.525499375     A.U. after   16 cycles
 SCF Done:  E(UB3LYP) =  -765.525733432     A.U. after   14 cycles
 SCF Done:  E(UB3LYP) =  -765.525884002     A.U. after   16 cycles
 SCF Done:  E(UB3LYP) =  -765.525914610     A.U. after   15 cycles
 SCF Done:  E(UB3LYP) =  -765.525937428     A.U. after   14 cycles
 SCF Done:  E(UB3LYP) =  -765.525949647     A.U. after   14 cycles
 SCF Done:  E(UB3LYP) =  -765.525951282     A.U. after   12 cycles
 SCF Done:  E(UB3LYP) =  -765.525959485     A.U. after   12 cycles
 SCF Done:  E(UB3LYP) =  -765.525967399     A.U. after   13 cycles
 SCF Done:  E(UB3LYP) =  -765.525970691     A.U. after   13 cycles
 SCF Done:  E(UB3LYP) =  -765.525971088     A.U. after   10 cycles
 SCF Done:  E(UB3LYP) =  -765.525971168     A.U. after   10 cycles
 SCF Done:  E(UB3LYP) =  -765.525971172     A.U. after    8 cycles
 Optimization completed.
    -- Stationary point found.
 Normal termination of Gaussian 16 at Sat Feb 10 13:14:53 2024.

 ----------------------------------------------------------------------
 #P Geom=AllCheck Guess=TCheck SCRF=Check GenChk UB3LYP/6-311++G(d,p) F
 req
 ----------------------------------------------------------------------

 Structure from the checkpoint file:  "079-rad.chk"
 -------
 Radical
 -------
 Charge = -1 Multiplicity = 2

                          Input orientation:
 ---------------------------------------------------------------------
 Center     Atomic      Atomic             Coordinates (Angstroms)
 Number     Number       Type             X           Y           Z
 ---------------------------------------------------------------------
      1          6           0        1.157097    1.410138   -2.704862
      2          6           0       -0.166523    1.658207   -3.219163
      3          6           0       -1.155489    0.717731   -3.139049
      4          6           0       -0.941637   -0.577239   -2.539088
      5          6           0        0.393733   -0.855840   -2.017437
      6          8           0        2.079235    2.283798   -2.749114
      7          8           0       -1.870997   -1.439988   -2.467347
      8          1           0       -0.350251    2.629653   -3.668348
      9          6           0        1.380791    0.101578   -2.111128
     10          6           0        2.760734   -0.130000   -1.547907
     11          6           0        3.871876   -0.488469   -2.481382
     12          6           0        5.185228   -0.556970   -1.991631
     13          6           0        3.629294   -0.777730   -3.830856
     14          6           0        6.233666   -0.903177   -2.835790
     15          6           0        5.982112   -1.192364   -4.180014
     16          6           0        4.679803   -1.130938   -4.675303
     17          8           0        2.960654   -0.031296   -0.343532
     18          6           0        0.617090   -2.214214   -1.405809
     19          1           0        5.367520   -0.332385   -0.947845
     20          1           0        2.618108   -0.730159   -4.216284
     21          1           0        7.246329   -0.948984   -2.451638
     22          1           0        6.800057   -1.464267   -4.837736
     23          1           0        4.483129   -1.356740   -5.717013
     24          1           0       -2.149276    0.920459   -3.527142
     25          1           0        0.018640   -2.333328   -0.496492
     26          1           0        1.661394   -2.388077   -1.146079
     27          1           0        0.292093   -3.000199   -2.092889
 ---------------------------------------------------------------------

 SCF Done:  E(UB3LYP) =  -765.525971172     A.U. after    1 cycles

 Alpha  occ. eigenvalues --  -19.12071 -19.07983 -19.07916 -10.27085 -10.22511
 Alpha  occ. eigenvalues --  -10.22050 -10.19151 -10.18895 -10.18863 -10.18671
 Alpha  occ. eigenvalues --  -10.18486 -10.18471 -10.18206 -10.17406 -10.16575
 Alpha  occ. eigenvalues --  -10.16500 -10.16066  -1.05153  -0.99957  -0.99679
 Alpha  occ. eigenvalues --   -0.87088  -0.83350  -0.77959  -0.76624  -0.75954
 Alpha  occ. eigenvalues --   -0.71595  -0.66786  -0.65060  -0.61983  -0.60294
 Alpha  occ. eigenvalues --   -0.56591  -0.55347  -0.51687  -0.49041  -0.48191
 Alpha  occ. eigenvalues --   -0.46730  -0.45992  -0.44911  -0.43882  -0.43430
 Alpha  occ. eigenvalues --   -0.42368  -0.41826  -0.41019  -0.40282  -0.39497
 Alpha  occ. eigenvalues --   -0.39188  -0.37246  -0.37066  -0.36883  -0.36487
 Alpha  occ. eigenvalues --   -0.35801  -0.35331  -0.28455  -0.27421  -0.26951
 Alpha  occ. eigenvalues --   -0.26777  -0.25407  -0.24637  -0.23674  -0.16582
 Alpha virt. eigenvalues --   -0.07198  -0.02413  -0.01268  -0.00429   0.00590
 Alpha virt. eigenvalues --    0.01158   0.01588   0.02014   0.02443   0.02684
 Alpha virt. eigenvalues --    0.03201   0.03620   0.03975   0.04731   0.05147

  Beta  occ. eigenvalues --  -19.12062 -19.07290 -19.07200 -10.27090 -10.22370
  Beta  occ. eigenvalues --  -10.21907 -10.19150 -10.18895 -10.18862 -10.18671
  Beta  occ. eigenvalues --  -10.18486 -10.18471 -10.18070 -10.17329 -10.16466
  Beta  occ. eigenvalues --  -10.16386 -10.16076  -1.05128  -0.98747  -0.98413
  Beta  occ. eigenvalues --   -0.87083  -0.82782  -0.77801  -0.76467  -0.75942
  Beta  occ. eigenvalues --   -0.71207  -0.66042  -0.64885  -0.61943  -0.60104
  Beta  occ. eigenvalues --   -0.56226  -0.55223  -0.51562  -0.48866  -0.47995
  Beta  occ. eigenvalues --   -0.46677  -0.45709  -0.44803  -0.43699  -0.43382
  Beta  occ. eigenvalues --   -0.41690  -0.41632  -0.40821  -0.39849  -0.39259
  Beta  occ. eigenvalues --   -0.37720  -0.37058  -0.36979  -0.36223  -0.35661
  Beta  occ. eigenvalues --   -0.35296  -0.34172  -0.27441  -0.26971  -0.26747
  Beta  occ. eigenvalues --   -0.25054  -0.24486  -0.23983  -0.23106
  Beta virt. eigenvalues --   -0.09317  -0.07147  -0.02392  -0.00469   0.00086
  Beta virt. eigenvalues --    0.00612   0.01185   0.01633   0.02385   0.02538
  Beta virt. eigenvalues --    0.03199   0.03573   0.03921   0.04527   0.04770

 Mulliken charges and spin densities:
               1          2
     1  C   -0.376730   0.102215
     2  C   -0.203874   0.084684
     3  C    0.090283   0.077224
     4  C   -0.469812   0.102843
     5  C   -0.055079   0.087405
     6  O   -0.487662   0.248383
     7  O   -0.497309   0.256461
     8  H    0.187733  -0.007631
     9  C    0.954978   0.046754
    10  C   -0.100412  -0.009845
    11  C    0.615003   0.012765
    12  C    0.484217  -0.005217
    13  C   -0.926142  -0.000306
    14  C   -0.445848   0.001363
    15  C   -0.314179   0.000339
    16  C   -0.205858  -0.004664
    17  O   -0.297856   0.000506
    18  C   -0.619761   0.003826
    19  H    0.216048  -0.000190
    20  H    0.166589   0.001078
    21  H    0.199490   0.000019
    22  H    0.182929   0.000024
    23  H    0.217791  -0.000109
    24  H    0.192461  -0.007170
    25  H    0.178842   0.005749
    26  H    0.138153  -0.000355
    27  H    0.176003   0.003848
 Sum of Mulliken charges =  -1.00000   1.00000

 Dipole moment (field-independent basis, Debye):
    X=             -0.9116    Y=             -3.0348    Z=              8.2969  Tot=              8.8814
 Quadrupole moment (field-independent basis, Debye-Ang):
   XX=           -112.0132   YY=           -120.4256   ZZ=           -116.9249
   XY=            -25.4911   XZ=             -8.8544   YZ=              9.7634

  Exact polarizability: 335.918  35.008 243.823  -2.630  -9.297 223.446
 Approx polarizability: 360.670  52.479 274.765  -0.455  -3.784 266.295

                      1                      2                      3
                      A                      A                      A
 Frequencies --     23.1880                39.4609                58.6638
 Red. masses --      6.5334                 3.9623                 5.0909
 Frc consts  --      0.0021                 0.0036                 0.0103
 IR Inten    --      3.6080                 0.2271                 2.5612

                      4                      5                      6
                      A                      A                      A
 Frequencies --    104.4716               119.4055               125.1659
 Red. masses --      1.1853                 5.7386                 4.1738
 Frc consts  --      0.0076                 0.0482                 0.0385
 IR Inten    --      0.5066                25.1493                 1.2481

                      7                      8                      9
                      A                      A                      A
 Frequencies --    133.8118               174.3827               243.5976
 Red. masses --      5.7291                 5.5312                 4.8493
 Frc consts  --      0.0604                 0.0991                 0.1695
 IR Inten    --      1.8137                 1.3783                 7.6525

                     10                     11                     12
                      A                      A                      A
 Frequencies --    249.0812               318.2311               330.2276
 Red. masses --      5.6779                 4.3559                 4.5989
 Frc consts  --      0.2075                 0.2599                 0.2955
 IR Inten    --      1.1767                 5.7937                 4.8910

                     13                     14                     15
                      A                      A                      A
 Frequencies --    362.9128               404.8873               413.2306
 Red. masses --      6.4640                 7.2691                 2.8751
 Frc consts  --      0.5016                 0.7021                 0.2893
 IR Inten    --      3.1893                27.6394                 0.4866

                     16                     17                     18
                      A                      A                      A
 Frequencies --    432.9985               453.2585               472.3632
 Red. masses --      4.1765                 5.8594                 8.4353
 Frc consts  --      0.4614                 0.7092                 1.1089
 IR Inten    --      2.7696                 3.5248                 1.9536

                     19                     20                     21
                      A                      A                      A
 Frequencies --    529.4002               574.2433               595.0829
 Red. masses --      5.3737                 3.3417                 4.9137
 Frc consts  --      0.8873                 0.6492                 1.0252
 IR Inten    --     15.8793                10.4080                11.5394

                     22                     23                     24
                      A                      A                      A
 Frequencies --    629.5568               652.4975               686.3952
 Red. masses --      6.4243                 3.7600                 6.6786
 Frc consts  --      1.5002                 0.9432                 1.8539
 IR Inten    --      0.5055                 4.9808                24.0256

                     25                     26                     27
                      A                      A                      A
 Frequencies --    698.5968               709.9482               746.3713
 Red. masses --      2.9245                 1.8444                 6.9174
 Frc consts  --      0.8409                 0.5477                 2.2704
 IR Inten    --     11.1290               118.7924                34.8033

                     28                     29                     30
                      A                      A                      A
 Frequencies --    778.6543               794.8989               825.2476
 Red. masses --      5.7640                 2.4579                 2.0328
 Frc consts  --      2.0590                 0.9150                 0.8157
 IR Inten    --     20.8102                18.2982                63.3896

                     31                     32                     33
                      A                      A                      A
 Frequencies --    851.1157               863.2066               935.7447
 Red. masses --      3.9240                 1.2508                 2.8403
 Frc consts  --      1.6748                 0.5491                 1.4653
 IR Inten    --    102.5098                 0.3701               120.7844

                     34                     35                     36
                      A                      A                      A
 Frequencies --    959.3315               960.7230              1004.0313
 Red. masses --      1.4370                 1.2911                 1.3807
 Frc consts  --      0.7792                 0.7021                 0.8201
 IR Inten    --      1.8276                 0.2735                 0.4079

                     37                     38                     39
                      A                      A                      A
 Frequencies --   1013.8852              1018.7433              1028.7324
 Red. masses --      6.2270                 1.3347                 3.7886
 Frc consts  --      3.7715                 0.8161                 2.3623
 IR Inten    --      2.1680                 0.9385                41.2616

                     40                     41                     42
                      A                      A                      A
 Frequencies --   1040.7697              1042.7148              1084.9105
 Red. masses --      1.5637                 2.1167                 2.2798
 Frc consts  --      0.9979                 1.3559                 1.5810
 IR Inten    --      0.9646                 9.6079                29.8993

                     43                     44                     45
                      A                      A                      A
 Frequencies --   1099.4566              1135.6602              1170.3461
 Red. masses --      1.5724                 1.8956                 2.1525
 Frc consts  --      1.1199                 1.4404                 1.7371
 IR Inten    --      8.9873                29.9317                39.2250

                     46                     47                     48
                      A                      A                      A
 Frequencies --   1178.1837              1188.5768              1225.8948
 Red. masses --      1.1184                 1.1859                 3.4890
 Frc consts  --      0.9147                 0.9870                 3.0893
 IR Inten    --      2.9539                53.2197                53.4370

                     49                     50                     51
                      A                      A                      A
 Frequencies --   1256.2394              1332.8537              1345.8323
 Red. masses --      4.6501                 2.5277                 2.2391
 Frc consts  --      4.3237                 2.6457                 2.3895
 IR Inten    --    268.7994                16.2106                 2.6286

                     52                     53                     54
                      A                      A                      A
 Frequencies --   1354.6116              1405.5486              1425.6709
 Red. masses --      2.0790                 1.2712                 7.0505
 Frc consts  --      2.2477                 1.4796                 8.4433
 IR Inten    --     45.9201                16.7993               437.9969

                     55                     56                     57
                      A                      A                      A
 Frequencies --   1459.9686              1468.2262              1473.3683
 Red. masses --      1.0709                 1.3333                 4.1221
 Frc consts  --      1.3449                 1.6935                 5.2722
 IR Inten    --     14.2093                26.4506                 6.5884

                     58                     59                     60
                      A                      A                      A
 Frequencies --   1475.2852              1510.1181              1514.6992
 Red. masses --      3.0115                 4.5170                 2.2408
 Frc consts  --      3.8618                 6.0690                 3.0291
 IR Inten    --     17.0363               964.0513                51.9029

                     61                     62                     63
                      A                      A                      A
 Frequencies --   1521.7543              1612.8397              1629.8351
 Red. masses --      3.4306                 5.5870                 5.6709
 Frc consts  --      4.6807                 8.5628                 8.8755
 IR Inten    --     96.1439                46.4106                84.2006

                     64                     65                     66
                      A                      A                      A
 Frequencies --   1635.6486              1687.5292              3024.8399
 Red. masses --      7.1630                11.9961                 1.0404
 Frc consts  --     11.2908                20.1277                 5.6087
 IR Inten    --     10.6395               474.3715                46.7965

                     67                     68                     69
                      A                      A                      A
 Frequencies --   3069.4524              3117.0555              3148.1046
 Red. masses --      1.0967                 1.0998                 1.0858
 Frc consts  --      6.0878                 6.2957                 6.3400
 IR Inten    --     28.1680                30.3904                29.8541

                     70                     71                     72
                      A                      A                      A
 Frequencies --   3167.0358              3167.7559              3176.8759
 Red. masses --      1.0954                 1.0862                 1.0889
 Frc consts  --      6.4734                 6.4218                 6.4753
 IR Inten    --     33.9214                 0.1848                10.6234

                     73                     74                     75
                      A                      A                      A
 Frequencies --   3185.7643              3194.0185              3197.1886
 Red. masses --      1.0923                 1.0934                 1.0963
 Frc consts  --      6.5318                 6.5724                 6.6029
 IR Inten    --     20.5611                20.6149                13.9992

 - Thermochemistry -
 -------------------
 Temperature   298.150 Kelvin.  Pressure   1.00000 Atm.
 Atom     1 has atomic number  6 and mass  12.00000

 Molecular mass:   226.06299 amu.
 Principal axes and moments of inertia in atomic units:
                           1         2         3
     Eigenvalues --  2009.711365916.296766217.51333
           X            0.98842   0.06586   0.13671
           Y           -0.10548   0.94585   0.30698
           Z           -0.10909  -0.31784   0.94185
 This molecule is an asymmetric top.
 Rotational symmetry number  1.
 Warning -- assumption of classical behavior for rotation
           may cause significant error
 Rotational temperatures (Kelvin)      0.04310     0.01464     0.01393
 Rotational constants (GHZ):           0.89801     0.30505     0.29027
 Zero-point vibrational energy     526598.4 (Joules/Mol)
                                  125.86004 (Kcal/Mol)
 Warning -- explicit consideration of  21 degrees of freedom as
           vibrations may cause significant error
 Vibrational temperatures:     33.36    56.78    84.40   150.31   171.80
          (Kelvin)            180.09   192.53   250.90   350.48   358.37
                              457.86   475.12   522.15   582.54   594.55
                              622.99   652.14   679.63   761.69   826.21
                              856.19   905.79   938.80   987.57  1005.12
                             1021.46  1073.86  1120.31  1143.68  1187.35
                             1224.57  1241.96  1346.33  1380.26  1382.27
                             1444.58  1458.75  1465.74  1480.12  1497.44
                             1500.23  1560.94  1581.87  1633.96  1683.87
                             1695.14  1710.10  1763.79  1807.45  1917.68
                             1936.35  1948.98  2022.27  2051.22  2100.57
                             2112.45  2119.85  2122.61  2172.72  2179.31
                             2189.47  2320.52  2344.97  2353.33  2427.98
                             4352.07  4416.26  4484.75  4529.42  4556.66
                             4557.69  4570.82  4583.60  4595.48  4600.04

 Zero-point correction=                           0.200571 (Hartree/Particle)
 Thermal correction to Energy=                    0.215050
 Thermal correction to Enthalpy=                  0.215994
 Thermal correction to Gibbs Free Energy=         0.156875
 Sum of electronic and zero-point Energies=           -765.325400
 Sum of electronic and thermal Energies=              -765.310921
 Sum of electronic and thermal Enthalpies=            -765.309977
 Sum of electronic and thermal Free Energies=         -765.369096

                     E (Thermal)             CV                S
                      KCal/Mol        Cal/Mol-Kelvin    Cal/Mol-Kelvin
 Total                  134.946             54.893            124.428
 Electronic               0.000              0.000              1.377
 Translational            0.889              2.981             42.149
 Rotational               0.889              2.981             32.669
 Vibrational            133.169             48.931             48.232
 Vibration     1          0.593              1.985              6.341
 Vibration     2          0.594              1.981              5.286
 Vibration     3          0.596              1.974              4.502
 Vibration     4          0.605              1.946              3.369
 Vibration     5          0.609              1.933              3.110
 Vibration     6          0.610              1.928              3.019
 Vibration     7          0.613              1.920              2.891
 Vibration     8          0.627              1.874              2.388
 Vibration     9          0.659              1.773              1.776
 Vibration    10          0.662              1.764              1.737
 Vibration    11          0.705              1.639              1.319
 Vibration    12          0.713              1.615              1.259
 Vibration    13          0.737              1.549              1.110
 Vibration    14          0.770              1.460              0.945
 Vibration    15          0.777              1.442              0.915
 Vibration    16          0.794              1.398              0.849
 Vibration    17          0.812              1.354              0.786
 Vibration    18          0.829              1.311              0.731
 Vibration    19          0.884              1.185              0.589
 Vibration    20          0.931              1.087              0.496
 Vibration    21          0.953              1.042              0.458

 Optimization completed.
    -- Stationary point found.
 Normal termination of Gaussian 16 at Sat Feb 10 14:35:33 2024.
