 Gaussian 16, Revision A.03,
 Gaussian 16:  ES64L-G16RevA.03 25-Dec-2016

 ----------------------------------------------------------------
 #P UB3LYP/6-311++G(d,p) SCRF=(PCM,Solvent=n,n-DiMethylFormamide)
 ----------------------------------------------------------------

 ------------------
 Radical PCM in DMF
 ------------------
 Symbolic Z-matrix:
 Charge = -1 Multiplicity = 2

                         Standard orientation:
 ---------------------------------------------------------------------
 Center     Atomic      Atomic             Coordinates (Angstroms)
 Number     Number       Type             X           Y           Z
 ---------------------------------------------------------------------
      1          6           0       -4.338092    0.289580   -0.701840
      2          6           0       -5.035752   -0.901200   -0.783283
      3          6           0       -4.413169   -2.110538   -0.413085
      4          6           0       -3.000754    0.315162   -0.249991
      5          6           0       -2.369726   -0.906018    0.124171
      6          6           0       -3.101094   -2.103024    0.032019
      7          6           0       -2.271033    1.562294   -0.164907
      8          6           0       -0.907841    1.486637    0.307900
      9          6           0       -0.269316    0.324090    0.684936
     10          6           0       -0.971202   -0.938841    0.602994
     11          8           0       -2.737057    2.708518   -0.472860
     12          8           0       -0.423534   -2.025222    0.926303
     13          1           0       -4.795253    1.232327   -0.980708
     14          1           0       -6.064243   -0.905900   -1.132801
     15          1           0       -4.961883   -3.045494   -0.477333
     16          1           0       -2.597105   -3.017957    0.322437
     17          8           0       -0.282636    2.699008    0.358383
     18          6           0        1.158381    0.328372    1.167058
     19          6           0        2.179288    0.046223    0.047729
     20          6           0        3.627562    0.014553    0.548187
     21          6           0        4.655409   -0.266401   -0.553846
     22          6           0        6.105291   -0.302903   -0.056759
     23          6           0        7.124023   -0.584754   -1.166062
     24          1           0       -0.990628    3.304138    0.043979
     25          1           0        1.262445   -0.447683    1.932247
     26          1           0        1.387572    1.296148    1.624968
     27          1           0        2.077338    0.811931   -0.730703
     28          1           0        1.929435   -0.914717   -0.414458
     29          1           0        3.720318   -0.750188    1.330961
     30          1           0        3.867340    0.973394    1.028369
     31          1           0        4.563040    0.497205   -1.337821
     32          1           0        4.415350   -1.223888   -1.034681
     33          1           0        6.198293   -1.066488    0.725632
     34          1           0        6.345739    0.653776    0.423942
     35          1           0        6.929746   -1.551040   -1.643204
     36          1           0        8.148114   -0.604715   -0.779458
     37          1           0        7.078339    0.181325   -1.947293
 ---------------------------------------------------------------------

 SCF Done:  E(UB3LYP) =  -846.618658345     A.U. after   20 cycles

 The electronic state is 2-A.
 Alpha  occ. eigenvalues --  -19.14250 -19.08511 -19.07310 -10.22216 -10.22034
 Alpha  occ. eigenvalues --  -10.21981 -10.17398 -10.17252 -10.17176 -10.17140
 Alpha  occ. eigenvalues --  -10.17060 -10.16909 -10.16140 -10.16014 -10.15734
 Alpha  occ. eigenvalues --  -10.15728 -10.15661 -10.15604 -10.15411  -1.06243
 Alpha  occ. eigenvalues --   -0.99855  -0.99489  -0.85791  -0.81323  -0.79728
 Alpha  occ. eigenvalues --   -0.76916  -0.75055  -0.73960  -0.70230  -0.67050
 Alpha  occ. eigenvalues --   -0.64105  -0.61647  -0.59780  -0.57517  -0.57198
 Alpha  occ. eigenvalues --   -0.56733  -0.53605  -0.50367  -0.48408  -0.47437
 Alpha  occ. eigenvalues --   -0.45950  -0.45236  -0.43908  -0.43581  -0.42785
 Alpha  occ. eigenvalues --   -0.42443  -0.41702  -0.41250  -0.40394  -0.38859
 Alpha  occ. eigenvalues --   -0.38775  -0.38395  -0.38125  -0.37416  -0.36177
 Alpha  occ. eigenvalues --   -0.35279  -0.34574  -0.34203  -0.33951  -0.33460
 Alpha  occ. eigenvalues --   -0.32303  -0.32266  -0.31698  -0.31198  -0.26646
 Alpha  occ. eigenvalues --   -0.25896  -0.25731  -0.23834  -0.22675  -0.15006
 Alpha virt. eigenvalues --   -0.03229  -0.00783  -0.00432   0.00059   0.00695
 Alpha virt. eigenvalues --    0.01109   0.01406   0.01995   0.02398   0.03122
 Alpha virt. eigenvalues --    0.03248   0.04092   0.04649   0.04747   0.04896

  Beta  occ. eigenvalues --  -19.14203 -19.07883 -19.06778 -10.22083 -10.21932
  Beta  occ. eigenvalues --  -10.21696 -10.17382 -10.17248 -10.17067 -10.17051
  Beta  occ. eigenvalues --  -10.17009 -10.16934 -10.16060 -10.16014 -10.15741
  Beta  occ. eigenvalues --  -10.15728 -10.15660 -10.15595 -10.15411  -1.06029
  Beta  occ. eigenvalues --   -0.98926  -0.98426  -0.85556  -0.81122  -0.79572
  Beta  occ. eigenvalues --   -0.76759  -0.74836  -0.73853  -0.70065  -0.66322
  Beta  occ. eigenvalues --   -0.63934  -0.61473  -0.59585  -0.57430  -0.57181
  Beta  occ. eigenvalues --   -0.56500  -0.53431  -0.50138  -0.48204  -0.47324
  Beta  occ. eigenvalues --   -0.45827  -0.45138  -0.43832  -0.42890  -0.42622
  Beta  occ. eigenvalues --   -0.42243  -0.41255  -0.40776  -0.40171  -0.38646
  Beta  occ. eigenvalues --   -0.38296  -0.37959  -0.37682  -0.37243  -0.35243
  Beta  occ. eigenvalues --   -0.34845  -0.34423  -0.33837  -0.33293  -0.32757
  Beta  occ. eigenvalues --   -0.32259  -0.32181  -0.31657  -0.31082  -0.25345
  Beta  occ. eigenvalues --   -0.25024  -0.24681  -0.23331  -0.21780
  Beta virt. eigenvalues --   -0.08477  -0.02475  -0.00458   0.00061   0.00345
  Beta virt. eigenvalues --    0.00723   0.01126   0.01413   0.02002   0.02406
  Beta virt. eigenvalues --    0.03140   0.03259   0.04120   0.04663   0.04810

 Mulliken charges and spin densities:
               1          2
     1  C    0.080612   0.074545
     2  C   -0.380163  -0.000936
     3  C   -0.443934   0.072607
     4  C    0.437765  -0.002200
     5  C   -0.035520   0.061593
     6  C    0.100952   0.002563
     7  C   -0.918461   0.165974
     8  C   -0.586064   0.059170
     9  C    2.015678   0.051540
    10  C   -0.757904   0.074962
    11  O   -0.524295   0.229610
    12  O   -0.455231   0.197556
    13  H    0.165968  -0.004065
    14  H    0.182591  -0.000631
    15  H    0.178162  -0.005180
    16  H    0.165931  -0.000284
    17  O   -0.284715   0.015913
    18  C   -0.380014   0.009520
    19  C   -0.532493  -0.002530
    20  C   -0.104317   0.003708
    21  C   -0.219246  -0.002241
    22  C   -0.201600  -0.000016
    23  C   -0.680813   0.000022
    24  H    0.290318  -0.003628
    25  H    0.197058   0.002517
    26  H    0.211710  -0.000604
    27  H    0.158883   0.001927
    28  H    0.170670  -0.001657
    29  H    0.111422   0.000505
    30  H    0.110477  -0.000237
    31  H    0.120132   0.000021
    32  H    0.119352  -0.000033
    33  H    0.131807  -0.000009
    34  H    0.131575  -0.000003
    35  H    0.140750   0.000003
    36  H    0.142643  -0.000003
    37  H    0.140316  -0.000001
 Sum of Mulliken charges =  -1.00000   1.00000

 Dipole moment (field-independent basis, Debye):
    X=              6.5880    Y=             -1.5693    Z=             -1.4045  Tot=              6.9164
 Quadrupole moment (field-independent basis, Debye-Ang):
   XX=           -136.0335   YY=           -143.3135   ZZ=           -124.1287
   XY=             12.9111   XZ=             -0.2651   YZ=              5.7415

 Normal termination of Gaussian 16 at Sun Jan 21 08:42:14 2024.
