 Q-Chem 5.4, Q-Chem, Inc., Pleasanton, CA (2021)
 Q-Chem 5.4.0 for Intel X86 EM64T Linux

User input:
--------------------------------------------------------------
$molecule
0 1
C                 -0.3000430000      1.1453250000     -0.2707540000
C                 -1.4039390000      0.2855180000     -0.7598580000
C                 -1.3552510000     -1.0503600000     -0.6760220000
C                 -0.1856410000     -1.7426170000     -0.0852770000
C                  0.9325230000     -0.9001620000      0.4111170000
C                  0.8904020000      0.4443030000      0.3300060000
O                 -0.3480580000      2.3551260000     -0.3481690000
O                 -0.1311690000     -2.9570220000     -0.0040300000
C                  1.9632970000      1.2588310000      0.8059460000
N                  2.8389110000      1.9025040000      1.1952550000
H                 -2.2480400000      0.8147650000     -1.1874750000
H                 -2.1571900000     -1.6880830000     -1.0306150000
H                  1.7773160000     -1.4274580000      0.8389170000
$end
$rem
MAX_SCF_CYCLES=200
BASIS  =  6-311++G(d,p)
GUI  =  2
JOB_TYPE  =  SP
METHOD  =  B3LYP
SOLVENT_METHOD = COSMO
$end
$solvent
dielectric 37.219
opticaldielectric 1.43
$end

--------------------------------------------------------------

             Standard Nuclear Orientation (Angstroms)
    I     Atom           X                Y                Z
 ----------------------------------------------------------------
    1      C       0.5769036446    -1.1306010240    -0.0000522001
    2      C      -0.8061905481    -1.6636371757     0.0002543114
    3      C      -1.8778034854    -0.8601356275     0.0002118371
    4      C      -1.7341838959     0.6148424468    -0.0000224933
    5      C      -0.3567473822     1.1708072041    -0.0000434438
    6      C       0.7259503509     0.3684949682     0.0000218750
    7      O       1.5450644313    -1.8617518830    -0.0003596042
    8      O      -2.7020860246     1.3547838067    -0.0001989061
    9      C       2.0527001286     0.8984133130     0.0000716256
   10      N       3.1180952200     1.3428338276     0.0001766255
   11      H      -0.8853829379    -2.7449297988     0.0003662453
   12      H      -2.8933475448    -1.2398766343     0.0003181923
   13      H      -0.2755361856     2.2516096202    -0.0001018049
 ----------------------------------------------------------------

    9    -473.8193196230      8.21e-06  Convergence criterion met
 Total energy in the final basis set =     -473.8193196230
    6    -473.8385751551      4.86e-06  Convergence criterion met
 Total energy in the final basis set =     -473.8385751551

                    Orbital Energies (a.u.)
 --------------------------------------------------------------

 Alpha MOs
 -- Occupied --
-19.1620 -19.1603 -14.3481 -10.3109 -10.3048 -10.2634 -10.2472 -10.2433
-10.2239 -10.2227  -1.0959  -1.0899  -0.9474  -0.8881  -0.8236  -0.7394
 -0.6836  -0.6398  -0.5675  -0.5454  -0.5208  -0.4921  -0.4729  -0.4706
 -0.4535  -0.4399  -0.4288  -0.4071  -0.4017  -0.3747  -0.3271  -0.3147
 -0.3111  -0.3006

          Ground-State Mulliken Net Atomic Charges

     Atom                 Charge (a.u.)
  ----------------------------------------
      1 C                    -1.094029
      2 C                     0.209790
      3 C                     0.091933
      4 C                    -0.273160
      5 C                    -0.493876
      6 C                     2.286725
      7 O                    -0.265222
      8 O                    -0.286510
      9 C                    -0.752856
     10 N                    -0.261226
     11 H                     0.277744
     12 H                     0.276182
     13 H                     0.284504
  ----------------------------------------
  Sum of atomic charges =     0.000000

                    Cartesian Multipole Moments
 -----------------------------------------------------------------
    Charge (ESU x 10^10)
                 0.0000
    Dipole Moment (Debye)
         X      -4.9729      Y      -1.7896      Z       0.0011
       Tot       5.2851
    Quadrupole Moments (Debye-Ang)
        XX     -81.2694     XY       7.2719     YY     -57.9223
        XZ      -0.0006     YZ      -0.0027     ZZ     -55.0749

 Total job time:  11.00s(wall), 79.26s(cpu)
        *  Thank you very much for using Q-Chem.  Have a nice day.  *
