 Q-Chem 5.4, Q-Chem, Inc., Pleasanton, CA (2021)
 Q-Chem 5.4.0 for Intel X86 EM64T Linux

User input:
--------------------------------------------------------------
$molecule
-1 2
C                  7.1948680000      1.1919300000      0.2117650000
C                  8.2930470000      1.0332210000      1.1542310000
C                  8.8927830000     -0.1911630000      1.3524900000
C                  8.4566550000     -1.3789550000      0.6289200000
C                  7.3533050000     -1.2215710000     -0.3129030000
C                  6.7646260000      0.0075160000     -0.5161460000
O                  6.6292380000      2.3132660000      0.0259940000
O                  9.0131260000     -2.5043750000      0.8109340000
C                  5.6239550000      0.2094210000     -1.5002500000
C                  6.9012480000     -2.4631790000     -1.0457170000
C                  8.7438160000      2.2628230000      1.9041260000
C                 10.0296850000     -0.3579390000      2.3311270000
C                  4.2730140000      0.1063330000     -0.8384850000
H                  5.7107380000     -0.4843620000     -2.3387150000
H                  5.7188230000      1.2284180000     -1.8931080000
H                  7.4380670000     -3.3249600000     -0.6482730000
H                  7.1109140000     -2.4013780000     -2.1219750000
H                  5.8245050000     -2.6300740000     -0.9355230000
H                  8.1456150000      3.1178900000      1.5879600000
H                  9.8026430000      2.4855020000      1.7199290000
H                  8.6338890000      2.1400880000      2.9894610000
H                  9.7339600000     -0.0722990000      3.3488200000
H                 10.8888100000      0.2720270000      2.0664160000
H                 10.3501570000     -1.3999560000      2.3387900000
C                  3.2058570000     -0.6242270000     -1.1934220000
C                  3.1588640000     -1.5418410000     -2.3930410000
C                  1.9345820000     -0.5685770000     -0.3686290000
C                  0.7309670000      0.0763210000     -1.0840090000
C                 -0.5209710000      0.1340700000     -0.1994050000
C                 -1.7991470000      0.6590900000     -0.8841360000
C                 -3.0177080000      0.4552040000      0.0387640000
C                 -4.3870350000      0.7178110000     -0.6028910000
C                 -5.5542870000      0.4063020000      0.3435420000
C                 -6.9635670000      0.5435620000     -0.2675370000
C                 -8.0189270000     -0.0213340000      0.7046950000
C                 -9.4378110000     -0.1590890000      0.1363210000
C                 -1.6515440000      2.1242000000     -1.3227340000
C                -10.4098600000     -0.8200650000      1.1225580000
C                -11.8307530000     -1.0733260000      0.5833570000
C                -12.5774270000      0.2278610000      0.2550800000
C                -12.6405400000     -1.9206100000      1.5752490000
H                  4.1852610000      0.7293240000      0.0495740000
H                  4.1360080000     -1.6661920000     -2.8589740000
H                  2.4719830000     -1.1682210000     -3.1628840000
H                  2.7954790000     -2.5369580000     -2.1052740000
H                  2.1334340000     -0.0142440000      0.5545360000
H                  1.6507090000     -1.5881280000     -0.0654490000
H                  0.4961730000     -0.4854070000     -1.9967120000
H                  1.0219330000      1.0819990000     -1.4042970000
H                 -0.3117140000      0.7515720000      0.6851890000
H                 -0.7232940000     -0.8760000000      0.1801400000
H                 -1.9631310000      0.0505520000     -1.7860230000
H                 -2.9034010000      1.0954600000      0.9245450000
H                 -3.0008650000     -0.5774410000      0.4097120000
H                 -4.4837230000      0.1014030000     -1.5071200000
H                 -4.4457910000      1.7588240000     -0.9332670000
H                 -5.4860450000      1.0532760000      1.2292400000
H                 -5.4365340000     -0.6206350000      0.7118720000
C                 -7.2744780000      1.9932930000     -0.6705380000
H                 -8.0479490000      0.6096870000      1.6039110000
H                 -7.6832560000     -1.0101170000      1.0417010000
H                 -9.3992390000     -0.7565010000     -0.7846940000
H                 -9.8186800000      0.8251330000     -0.1516810000
H                 -0.8038900000      2.2568780000     -1.9981630000
H                 -1.4861590000      2.7711920000     -0.4533470000
H                 -2.5418650000      2.4858940000     -1.8439930000
H                -10.4803000000     -0.2058540000      2.0312380000
H                 -9.9845650000     -1.7803400000      1.4408120000
H                -11.7337950000     -1.6498590000     -0.3472680000
H                -12.0627730000      0.8166650000     -0.5079040000
H                -12.6768710000      0.8535370000      1.1495710000
H                -13.5853910000      0.0176970000     -0.1156890000
H                -12.1442320000     -2.8730710000      1.7841390000
H                -13.6399730000     -2.1409360000      1.1876210000
H                -12.7632580000     -1.3939170000      2.5283780000
H                 -6.9895960000     -0.0739660000     -1.1775330000
H                 -7.2595780000      2.6487610000      0.2081320000
H                 -8.2586830000      2.0836170000     -1.1369130000
H                 -6.5431380000      2.3790420000     -1.3842110000
$end
$rem
MAX_SCF_CYCLES=200
BASIS  =  6-311++G(d,p)
GUI  =  2
JOB_TYPE  =  SP
SCF_ALGORITHM = RCA_DIIS
THRESH = 14
METHOD  =  B3LYP
SOLVENT_METHOD = PCM
$end
$pcm
theory = CPCM
$end
$solvent
dielectric 37.219
opticaldielectric 1.43
$end

--------------------------------------------------------------

             Standard Nuclear Orientation (Angstroms)
    I     Atom           X                Y                Z
 ----------------------------------------------------------------
    1      C       7.1948680000     1.1919300000     0.2117650000
    2      C       8.2930470000     1.0332210000     1.1542310000
    3      C       8.8927830000    -0.1911630000     1.3524900000
    4      C       8.4566550000    -1.3789550000     0.6289200000
    5      C       7.3533050000    -1.2215710000    -0.3129030000
    6      C       6.7646260000     0.0075160000    -0.5161460000
    7      O       6.6292380000     2.3132660000     0.0259940000
    8      O       9.0131260000    -2.5043750000     0.8109340000
    9      C       5.6239550000     0.2094210000    -1.5002500000
   10      C       6.9012480000    -2.4631790000    -1.0457170000
   11      C       8.7438160000     2.2628230000     1.9041260000
   12      C      10.0296850000    -0.3579390000     2.3311270000
   13      C       4.2730140000     0.1063330000    -0.8384850000
   14      H       5.7107380000    -0.4843620000    -2.3387150000
   15      H       5.7188230000     1.2284180000    -1.8931080000
   16      H       7.4380670000    -3.3249600000    -0.6482730000
   17      H       7.1109140000    -2.4013780000    -2.1219750000
   18      H       5.8245050000    -2.6300740000    -0.9355230000
   19      H       8.1456150000     3.1178900000     1.5879600000
   20      H       9.8026430000     2.4855020000     1.7199290000
   21      H       8.6338890000     2.1400880000     2.9894610000
   22      H       9.7339600000    -0.0722990000     3.3488200000
   23      H      10.8888100000     0.2720270000     2.0664160000
   24      H      10.3501570000    -1.3999560000     2.3387900000
   25      C       3.2058570000    -0.6242270000    -1.1934220000
   26      C       3.1588640000    -1.5418410000    -2.3930410000
   27      C       1.9345820000    -0.5685770000    -0.3686290000
   28      C       0.7309670000     0.0763210000    -1.0840090000
   29      C      -0.5209710000     0.1340700000    -0.1994050000
   30      C      -1.7991470000     0.6590900000    -0.8841360000
   31      C      -3.0177080000     0.4552040000     0.0387640000
   32      C      -4.3870350000     0.7178110000    -0.6028910000
   33      C      -5.5542870000     0.4063020000     0.3435420000
   34      C      -6.9635670000     0.5435620000    -0.2675370000
   35      C      -8.0189270000    -0.0213340000     0.7046950000
   36      C      -9.4378110000    -0.1590890000     0.1363210000
   37      C      -1.6515440000     2.1242000000    -1.3227340000
   38      C     -10.4098600000    -0.8200650000     1.1225580000
   39      C     -11.8307530000    -1.0733260000     0.5833570000
   40      C     -12.5774270000     0.2278610000     0.2550800000
   41      C     -12.6405400000    -1.9206100000     1.5752490000
   42      H       4.1852610000     0.7293240000     0.0495740000
   43      H       4.1360080000    -1.6661920000    -2.8589740000
   44      H       2.4719830000    -1.1682210000    -3.1628840000
   45      H       2.7954790000    -2.5369580000    -2.1052740000
   46      H       2.1334340000    -0.0142440000     0.5545360000
   47      H       1.6507090000    -1.5881280000    -0.0654490000
   48      H       0.4961730000    -0.4854070000    -1.9967120000
   49      H       1.0219330000     1.0819990000    -1.4042970000
   50      H      -0.3117140000     0.7515720000     0.6851890000
   51      H      -0.7232940000    -0.8760000000     0.1801400000
   52      H      -1.9631310000     0.0505520000    -1.7860230000
   53      H      -2.9034010000     1.0954600000     0.9245450000
   54      H      -3.0008650000    -0.5774410000     0.4097120000
   55      H      -4.4837230000     0.1014030000    -1.5071200000
   56      H      -4.4457910000     1.7588240000    -0.9332670000
   57      H      -5.4860450000     1.0532760000     1.2292400000
   58      H      -5.4365340000    -0.6206350000     0.7118720000
   59      C      -7.2744780000     1.9932930000    -0.6705380000
   60      H      -8.0479490000     0.6096870000     1.6039110000
   61      H      -7.6832560000    -1.0101170000     1.0417010000
   62      H      -9.3992390000    -0.7565010000    -0.7846940000
   63      H      -9.8186800000     0.8251330000    -0.1516810000
   64      H      -0.8038900000     2.2568780000    -1.9981630000
   65      H      -1.4861590000     2.7711920000    -0.4533470000
   66      H      -2.5418650000     2.4858940000    -1.8439930000
   67      H     -10.4803000000    -0.2058540000     2.0312380000
   68      H      -9.9845650000    -1.7803400000     1.4408120000
   69      H     -11.7337950000    -1.6498590000    -0.3472680000
   70      H     -12.0627730000     0.8166650000    -0.5079040000
   71      H     -12.6768710000     0.8535370000     1.1495710000
   72      H     -13.5853910000     0.0176970000    -0.1156890000
   73      H     -12.1442320000    -2.8730710000     1.7841390000
   74      H     -13.6399730000    -2.1409360000     1.1876210000
   75      H     -12.7632580000    -1.3939170000     2.5283780000
   76      H      -6.9895960000    -0.0739660000    -1.1775330000
   77      H      -7.2595780000     2.6487610000     0.2081320000
   78      H      -8.2586830000     2.0836170000    -1.1369130000
   79      H      -6.5431380000     2.3790420000    -1.3842110000
 ----------------------------------------------------------------

   78   -1284.9585253149      4.18E-06 Convergence criterion met
 Total energy in the final basis set = -1284.95852531

                    Orbital Energies (a.u.)
 --------------------------------------------------------------

 Alpha MOs
 -- Occupied --
-19.0689 -19.0684 -10.2095 -10.2090 -10.1667 -10.1657 -10.1633 -10.1632
-10.1605 -10.1591 -10.1585 -10.1582 -10.1580 -10.1566 -10.1554 -10.1542
-10.1539 -10.1538 -10.1535 -10.1534 -10.1532 -10.1531 -10.1529 -10.1528
-10.1493 -10.1489 -10.1479 -10.1477 -10.1475 -10.1472 -10.1471  -0.9918
 -0.9892  -0.8270  -0.8193  -0.8143  -0.8059  -0.7962  -0.7853  -0.7613
 -0.7441  -0.7275  -0.7173  -0.7149  -0.6952  -0.6771  -0.6762  -0.6715
 -0.6653  -0.6559  -0.6280  -0.6256  -0.6086  -0.5854  -0.5675  -0.5560
 -0.5516  -0.5442  -0.5380  -0.5363  -0.5098  -0.4950  -0.4748  -0.4704
 -0.4624  -0.4582  -0.4454  -0.4395  -0.4377  -0.4353  -0.4349  -0.4277
 -0.4249  -0.4188  -0.4161  -0.4136  -0.4097  -0.4035  -0.4026  -0.4021
 -0.3916  -0.3867  -0.3864  -0.3827  -0.3817  -0.3779  -0.3772  -0.3736
 -0.3725  -0.3714  -0.3690  -0.3641  -0.3604  -0.3589  -0.3577  -0.3538
 -0.3517  -0.3480  -0.3439  -0.3386  -0.3379  -0.3349  -0.3280  -0.3251
 -0.3221  -0.3189  -0.3162  -0.3131  -0.3126  -0.3108  -0.3080  -0.3070
 -0.3015  -0.2839  -0.2629  -0.2414  -0.2364  -0.2249  -0.2217  -0.1517

 Beta MOs
 -- Occupied --
-19.0624 -19.0620 -10.2076 -10.2071 -10.1667 -10.1657 -10.1633 -10.1632
-10.1594 -10.1582 -10.1580 -10.1575 -10.1572 -10.1567 -10.1554 -10.1542
-10.1538 -10.1538 -10.1535 -10.1534 -10.1532 -10.1531 -10.1529 -10.1528
-10.1493 -10.1489 -10.1480 -10.1477 -10.1475 -10.1472 -10.1471  -0.9804
 -0.9775  -0.8235  -0.8186  -0.8135  -0.8055  -0.7960  -0.7840  -0.7610
 -0.7437  -0.7265  -0.7154  -0.7136  -0.6933  -0.6771  -0.6760  -0.6715
 -0.6651  -0.6543  -0.6252  -0.6214  -0.6078  -0.5852  -0.5674  -0.5560
 -0.5516  -0.5442  -0.5347  -0.5323  -0.5091  -0.4935  -0.4748  -0.4704
 -0.4623  -0.4577  -0.4451  -0.4382  -0.4355  -0.4350  -0.4323  -0.4249
 -0.4239  -0.4182  -0.4148  -0.4112  -0.4085  -0.4022  -0.4009  -0.4003
 -0.3892  -0.3860  -0.3846  -0.3825  -0.3799  -0.3779  -0.3763  -0.3736
 -0.3723  -0.3703  -0.3640  -0.3605  -0.3598  -0.3563  -0.3535  -0.3488
 -0.3479  -0.3437  -0.3387  -0.3361  -0.3342  -0.3306  -0.3275  -0.3244
 -0.3210  -0.3187  -0.3160  -0.3131  -0.3125  -0.3108  -0.3080  -0.3069
 -0.3013  -0.2838  -0.2380  -0.2353  -0.2305  -0.2185  -0.2172

          Ground-State Mulliken Net Atomic Charges

     Atom                 Charge (a.u.)    Spin (a.u.)
  --------------------------------------------------------
      1 C                    -1.203595       0.106189
      2 C                     0.719991       0.092080
      3 C                     0.400581       0.065538
      4 C                    -1.287827       0.106530
      5 C                     0.677659       0.067772
      6 C                     1.017060       0.064187
      7 O                    -0.504358       0.233694
      8 O                    -0.522682       0.235287
      9 C                    -0.140934       0.010165
     10 C                    -0.672073       0.002329
     11 C                    -0.531739      -0.000282
     12 C                    -0.531605       0.001724
     13 C                    -0.629377      -0.002274
     14 H                     0.182871      -0.000540
     15 H                     0.223035       0.002878
     16 H                     0.175563      -0.002020
     17 H                     0.179385       0.004589
     18 H                     0.169097       0.003297
     19 H                     0.175000      -0.001332
     20 H                     0.155437       0.003441
     21 H                     0.158389       0.003514
     22 H                     0.154589       0.003093
     23 H                     0.155921       0.003164
     24 H                     0.180250      -0.001619
     25 C                     1.327580       0.006736
     26 C                    -0.819629      -0.001791
     27 C                    -1.247573      -0.005952
     28 C                    -0.135039       0.001174
     29 C                    -0.877582      -0.000348
     30 C                     1.361705      -0.000229
     31 C                    -0.971996       0.000196
     32 C                    -0.086130      -0.000029
     33 C                    -1.032812       0.000037
     34 C                     1.337838      -0.000030
     35 C                    -0.764178      -0.000027
     36 C                     0.024690      -0.000024
     37 C                    -0.806958      -0.000011
     38 C                    -0.771515       0.000008
     39 C                     0.547233       0.000059
     40 C                    -0.713548       0.000006
     41 C                    -0.685264      -0.000057
     42 H                     0.239192      -0.001676
     43 H                     0.114474       0.000182
     44 H                     0.175338      -0.000113
     45 H                     0.172371       0.000108
     46 H                     0.130048      -0.000041
     47 H                     0.175840       0.000272
     48 H                     0.138825       0.000268
     49 H                     0.151526      -0.000110
     50 H                     0.143695       0.000047
     51 H                     0.128693      -0.000086
     52 H                     0.140094      -0.000029
     53 H                     0.154886      -0.000004
     54 H                     0.111922       0.000018
     55 H                     0.159945       0.000001
     56 H                     0.107514       0.000001
     57 H                     0.151022      -0.000012
     58 H                     0.116908      -0.000007
     59 C                    -0.791178       0.000004
     60 H                     0.146306       0.000001
     61 H                     0.112259       0.000023
     62 H                     0.150533       0.000016
     63 H                     0.106057       0.000012
     64 H                     0.146789       0.000016
     65 H                     0.164830      -0.000001
     66 H                     0.147582      -0.000006
     67 H                     0.145808      -0.000009
     68 H                     0.133685      -0.000010
     69 H                     0.143758      -0.000020
     70 H                     0.146778      -0.000006
     71 H                     0.151461      -0.000003
     72 H                     0.150970      -0.000006
     73 H                     0.140788       0.000012
     74 H                     0.161683       0.000013
     75 H                     0.144635       0.000011
     76 H                     0.136568       0.000017
     77 H                     0.163293      -0.000004
     78 H                     0.149835      -0.000005
     79 H                     0.147811       0.000010
  --------------------------------------------------------
  Sum of atomic charges =    -1.000000

                    Cartesian Multipole Moments
 -----------------------------------------------------------------
    Charge (ESU x 10^10)
                -4.8032
    Dipole Moment (Debye)
         X     -37.4388      Y       0.1583      Z      -2.4536
       Tot      37.5194
    Quadrupole Moments (Debye-Ang)
        XX    -505.2562     XY      22.3260     YY    -235.8127
        XZ     -14.9803     YZ       9.1834     ZZ    -203.6790

 Total job time:  12233.39s(wall), 46648.15s(cpu)
        *  Thank you very much for using Q-Chem.  Have a nice day.  *
