 Q-Chem 5.4, Q-Chem, Inc., Pleasanton, CA (2021)
 Q-Chem 5.4.0 for Intel X86 EM64T Linux

User input:
--------------------------------------------------------------
$molecule
-2 2
C                 -3.4910560000      2.4308950000      1.1340260000
C                 -4.2138110000      2.2998590000      2.3041160000
C                 -3.8327700000      1.3563790000      3.2733210000
C                 -2.3419150000      1.6242220000      0.8634270000
C                 -1.9548770000      0.6657510000      1.8472210000
C                 -2.7030040000      0.5563830000      3.0173420000
C                 -1.6335010000      1.8174530000     -0.3836450000
C                 -0.4514870000      0.9724850000     -0.6293980000
C                 -0.0140610000      0.0015430000      0.3024640000
C                 -0.7341350000     -0.2462380000      1.6397280000
C                  0.2697620000      1.1355130000     -1.8388330000
C                  1.3879860000      0.3664270000     -2.1233230000
C                  1.8193380000     -0.5947070000     -1.2052120000
C                  1.1157040000     -0.7619510000     -0.0136020000
O                 -2.0133020000      2.6812630000     -1.2318940000
S                  2.3701580000      0.6189300000     -3.6507810000
O                  1.3950120000      1.0140050000     -4.7020720000
O                  3.3497240000      1.6914050000     -3.3106910000
O                  3.0200360000     -0.7032140000     -3.9003640000
C                  0.2737920000     -0.0031650000      2.7984780000
C                 -1.2060950000     -1.7273690000      1.6832770000
H                 -3.7663420000      3.1516670000      0.3730910000
H                 -5.0834240000      2.9321920000      2.4751170000
H                 -4.3908690000      1.2420600000      4.1978890000
H                 -2.4120760000     -0.1722850000      3.7695740000
H                 -0.0872280000      1.8755500000     -2.5431680000
H                  2.6814370000     -1.2060270000     -1.4418320000
H                  1.4659950000     -1.5184540000      0.6837050000
H                  0.6152890000      1.0347880000      2.7837240000
H                  1.1513870000     -0.6491040000      2.7009960000
H                 -0.1893170000     -0.1955890000      3.7715180000
H                 -0.3638790000     -2.4147240000      1.5600500000
H                 -1.9169990000     -1.9157980000      0.8749530000
H                 -1.7015130000     -1.9557050000      2.6323660000
$end
$rem
MAX_SCF_CYCLES=200
BASIS  =  6-311++G(d,p)
GUI  =  2
JOB_TYPE  =  SP
METHOD  =  B3LYP
SOLVENT_METHOD = COSMO
$end
$solvent
dielectric 37.219
opticaldielectric 1.43
$end

--------------------------------------------------------------

             Standard Nuclear Orientation (Angstroms)
    I     Atom           X                Y                Z
 ----------------------------------------------------------------
    1      C       3.4494729361    -2.0491362054     0.0022156115
    2      C       4.7902640132    -1.7164686456     0.0185683986
    3      C       5.1883847130    -0.3688476892     0.0296477696
    4      C       2.4252510113    -1.0514389793    -0.0040994082
    5      C       2.8291321575     0.3171653470     0.0067598440
    6      C       4.1884010461     0.6220516134     0.0232211736
    7      C       1.0413189666    -1.4743220638    -0.0208080968
    8      C       0.0109163636    -0.4208573907    -0.0230912498
    9      C       0.3417737591     0.9549703022    -0.0148327321
   10      C       1.7965056532     1.4567264508    -0.0016843888
   11      C      -1.3557738452    -0.7970215348    -0.0361172881
   12      C      -2.3670128497     0.1517805771    -0.0409108180
   13      C      -2.0416273089     1.5107755520    -0.0356353776
   14      C      -0.7002091354     1.8895237626    -0.0232729140
   15      O       0.7264603262    -2.7034258106    -0.0313389021
   16      S      -4.1369075702    -0.3234261615     0.0156469227
   17      O      -4.2426571690    -1.5942958694    -0.7498032401
   18      O      -4.4540523947    -0.4709396965     1.4658442539
   19      O      -4.8525204323     0.8231199726    -0.6215563726
   20      C       2.0080236484     2.3320016382     1.2659339951
   21      C       2.0318095059     2.3324234392    -1.2650840396
   22      H       3.1195696892    -3.0813224000    -0.0062837704
   23      H       5.5418380027    -2.5041416197     0.0231464739
   24      H       6.2384042571    -0.0919779679     0.0427408511
   25      H       4.5008566423     1.6630858391     0.0314902957
   26      H      -1.5878875162    -1.8539077950    -0.0534115226
   27      H      -2.8354852180     2.2470707733    -0.0596107770
   28      H      -0.4701066306     2.9517335123    -0.0242273565
   29      H       1.8477207369     1.7312394167     2.1645841170
   30      H       1.3048544377     3.1697995738     1.2896109112
   31      H       3.0252507871     2.7347679875     1.3024305619
   32      H       1.3298757578     3.1708280755    -1.3016389197
   33      H       1.8880239764     1.7318816863    -2.1667231020
   34      H       3.0499797497     2.7341356923    -1.2824873156
 ----------------------------------------------------------------

   11   -1316.8801193266      5.33e-06  Convergence criterion met
 Total energy in the final basis set =    -1316.8801193266
    5   -1317.1416352991      7.20e-06  Convergence criterion met
 Total energy in the final basis set =    -1317.1416352991

                    Orbital Energies (a.u.)
 --------------------------------------------------------------

 Alpha MOs
 -- Occupied --
-89.0439 -19.0916 -19.0903 -19.0895 -19.0531 -10.1960 -10.1887 -10.1853
-10.1737 -10.1691 -10.1646 -10.1630 -10.1623 -10.1621 -10.1593 -10.1587
-10.1581 -10.1570 -10.1522 -10.1518 -10.1517  -8.1029  -6.0658  -6.0657
 -6.0643  -1.1071  -0.9774  -0.9731  -0.9701  -0.8629  -0.8415  -0.8031
 -0.7572  -0.7422  -0.7310  -0.7174  -0.6793  -0.6408  -0.6367  -0.6100
 -0.5869  -0.5732  -0.5481  -0.5212  -0.5158  -0.4810  -0.4659  -0.4585
 -0.4541  -0.4468  -0.4423  -0.4284  -0.4252  -0.4221  -0.4082  -0.4045
 -0.3957  -0.3913  -0.3906  -0.3846  -0.3636  -0.3575  -0.3545  -0.3437
 -0.3415  -0.3359  -0.3357  -0.3315  -0.3196  -0.3021  -0.3005  -0.2954
 -0.2847  -0.2577  -0.2498  -0.2455  -0.2414  -0.2399  -0.2260  -0.1096

 Beta MOs
 -- Occupied --
-89.0439 -19.0916 -19.0904 -19.0896 -19.0476 -10.1917 -10.1888 -10.1861
-10.1724 -10.1675 -10.1651 -10.1630 -10.1608 -10.1604 -10.1602 -10.1591
-10.1587 -10.1546 -10.1515 -10.1514 -10.1503  -8.1029  -6.0658  -6.0656
 -6.0643  -1.1072  -0.9732  -0.9701  -0.9668  -0.8606  -0.8394  -0.8015
 -0.7530  -0.7405  -0.7283  -0.7159  -0.6787  -0.6382  -0.6304  -0.6086
 -0.5847  -0.5723  -0.5463  -0.5187  -0.5150  -0.4789  -0.4650  -0.4579
 -0.4540  -0.4456  -0.4410  -0.4270  -0.4244  -0.4186  -0.4076  -0.4033
 -0.3944  -0.3894  -0.3873  -0.3723  -0.3629  -0.3526  -0.3517  -0.3407
 -0.3371  -0.3357  -0.3355  -0.3223  -0.3185  -0.3012  -0.2985  -0.2952
 -0.2848  -0.2577  -0.2408  -0.2362  -0.2348  -0.2288  -0.2212

          Ground-State Mulliken Net Atomic Charges

     Atom                 Charge (a.u.)    Spin (a.u.)
  --------------------------------------------------------
      1 C                    -0.110294       0.183975
      2 C                    -0.432656      -0.071565
      3 C                    -0.537856       0.199973
      4 C                     0.532869      -0.067929
      5 C                     0.315325       0.138281
      6 C                    -0.250041      -0.065155
      7 C                    -0.585625       0.281463
      8 C                     0.657608      -0.041970
      9 C                     0.284921       0.122041
     10 C                     0.396665      -0.097069
     11 C                    -0.017604       0.157419
     12 C                    -0.941353      -0.071587
     13 C                    -0.546521       0.152976
     14 C                    -0.306493      -0.046906
     15 O                    -0.589287       0.206865
     16 S                     0.834073       0.004101
     17 O                    -0.434934      -0.000257
     18 O                    -0.404828      -0.001551
     19 O                    -0.456087      -0.000686
     20 C                    -0.833231       0.019637
     21 C                    -0.828565       0.019296
     22 H                     0.185975      -0.011517
     23 H                     0.186819       0.004109
     24 H                     0.192517      -0.014689
     25 H                     0.139647       0.002877
     26 H                     0.206688      -0.010851
     27 H                     0.220627      -0.011687
     28 H                     0.150593       0.002073
     29 H                     0.174954       0.000581
     30 H                     0.156751       0.004273
     31 H                     0.154921       0.004297
     32 H                     0.156003       0.004596
     33 H                     0.173542       0.000866
     34 H                     0.154867       0.003716
  --------------------------------------------------------
  Sum of atomic charges =    -2.000008

                    Cartesian Multipole Moments
 -----------------------------------------------------------------
    Charge (ESU x 10^10)
                -9.6064
    Dipole Moment (Debye)
         X      20.6988      Y      12.2417      Z      -0.1866
       Tot      24.0486
    Quadrupole Moments (Debye-Ang)
        XX    -270.2013     XY       0.2323     YY    -162.8925
        XZ       1.0278     YZ      -0.2140     ZZ    -150.8138

 Total job time:  193.93s(wall), 1461.07s(cpu)
        *  Thank you very much for using Q-Chem.  Have a nice day.  *
