 Gaussian 16, Revision A.03,
 Gaussian 16:  ES64L-G16RevA.03 25-Dec-2016

 ----------------------------------------------------------------------
 #P UB3LYP/6-311++G(d,p) nosym opt freq SCRF=(PCM,Solvent=n,n-DiMethylF
 ormamide)
 ----------------------------------------------------------------------

 --------
 Oxidized
 --------
 Symbolic Z-matrix:
 Charge =  0 Multiplicity = 1

 SCF Done:  E(UB3LYP) =  -918.135385307     A.U. after   14 cycles
 SCF Done:  E(UB3LYP) =  -918.135468053     A.U. after   12 cycles
 SCF Done:  E(UB3LYP) =  -918.135490190     A.U. after   11 cycles
 SCF Done:  E(UB3LYP) =  -918.135494641     A.U. after    9 cycles
 SCF Done:  E(UB3LYP) =  -918.135494993     A.U. after    9 cycles
 SCF Done:  E(UB3LYP) =  -918.135495470     A.U. after    8 cycles
 SCF Done:  E(UB3LYP) =  -918.135495608     A.U. after    8 cycles
 SCF Done:  E(UB3LYP) =  -918.135495701     A.U. after    8 cycles
 SCF Done:  E(UB3LYP) =  -918.135495827     A.U. after    8 cycles
 SCF Done:  E(UB3LYP) =  -918.135496083     A.U. after    8 cycles
 SCF Done:  E(UB3LYP) =  -918.135496315     A.U. after    8 cycles
 SCF Done:  E(UB3LYP) =  -918.135496465     A.U. after    8 cycles
 SCF Done:  E(UB3LYP) =  -918.135496640     A.U. after    9 cycles
 Optimization completed.
    -- Stationary point found.
 Normal termination of Gaussian 16 at Sat Feb 10 22:53:37 2024.

 ----------------------------------------------------------------------
 #P Geom=AllCheck Guess=TCheck SCRF=Check GenChk UB3LYP/6-311++G(d,p) F
 req
 ----------------------------------------------------------------------

 Structure from the checkpoint file:  "197.chk"
 --------
 Oxidized
 --------
 Charge =  0 Multiplicity = 1

                          Input orientation:
 ---------------------------------------------------------------------
 Center     Atomic      Atomic             Coordinates (Angstroms)
 Number     Number       Type             X           Y           Z
 ---------------------------------------------------------------------
      1          6           0       -4.021564   -1.006759    0.248469
      2          6           0       -2.647278   -0.391661    0.252352
      3          6           0       -2.479557    0.976379    0.426310
      4          6           0       -3.667523    1.882697    0.611092
      5          6           0       -1.168956    1.531263    0.439004
      6          8           0       -1.055213    2.856559    0.624519
      7          6           0       -0.038510    0.716803    0.263896
      8          6           0        1.292078    1.310269    0.279165
      9          8           0        1.456417    2.536586    0.446205
     10          6           0        2.462637    0.422940    0.091379
     11          6           0        3.751596    0.966446    0.102250
     12          6           0        4.859360    0.144668   -0.072429
     13          6           0        4.689970   -1.230074   -0.260131
     14          6           0        3.413142   -1.780128   -0.272914
     15          6           0        2.291946   -0.962037   -0.097983
     16          6           0        0.938088   -1.561716   -0.113799
     17          8           0        0.799817   -2.790802   -0.284115
     18          6           0       -0.211335   -0.686149    0.073336
     19          6           0       -1.508166   -1.224880    0.068103
     20          8           0       -1.719514   -2.539136   -0.110244
     21          1           0       -3.968402   -2.092641    0.261565
     22          1           0       -4.578543   -0.704856   -0.644999
     23          1           0       -4.600316   -0.674130    1.113650
     24          1           0       -4.140287    1.707862    1.583606
     25          1           0       -3.377323    2.929361    0.561258
     26          1           0       -4.425913    1.692540   -0.152113
     27          1           0       -0.082303    3.060934    0.600836
     28          1           0        3.868774    2.032455    0.248277
     29          1           0        5.855143    0.571742   -0.062875
     30          1           0        5.554476   -1.869007   -0.396018
     31          1           0        3.268009   -2.842928   -0.417251
     32          1           0       -0.822950   -2.955798   -0.217553
 ---------------------------------------------------------------------

 SCF Done:  E(UB3LYP) =  -918.135496640     A.U. after    1 cycles

 Alpha  occ. eigenvalues --  -19.16195 -19.16193 -19.13722 -19.13721 -10.28699
 Alpha  occ. eigenvalues --  -10.28698 -10.26616 -10.26614 -10.21232 -10.21183
 Alpha  occ. eigenvalues --  -10.21125 -10.21068 -10.20692 -10.20649 -10.20079
 Alpha  occ. eigenvalues --  -10.20046 -10.20007 -10.19988 -10.17449 -10.17449
 Alpha  occ. eigenvalues --   -1.09190  -1.09021  -1.05752  -1.05618  -0.89722
 Alpha  occ. eigenvalues --   -0.88175  -0.83283  -0.78764  -0.78380  -0.77437
 Alpha  occ. eigenvalues --   -0.73715  -0.71438  -0.68110  -0.65286  -0.64890
 Alpha  occ. eigenvalues --   -0.63133  -0.60224  -0.57116  -0.55595  -0.53998
 Alpha  occ. eigenvalues --   -0.53628  -0.50549  -0.49417  -0.48410  -0.47507
 Alpha  occ. eigenvalues --   -0.46527  -0.46323  -0.45448  -0.45189  -0.44706
 Alpha  occ. eigenvalues --   -0.43756  -0.43282  -0.42445  -0.41343  -0.41210
 Alpha  occ. eigenvalues --   -0.39486  -0.39274  -0.39217  -0.38411  -0.37997
 Alpha  occ. eigenvalues --   -0.37821  -0.37522  -0.37010  -0.32902  -0.29876
 Alpha  occ. eigenvalues --   -0.28822  -0.28236  -0.28180  -0.26947  -0.23234
 Alpha virt. eigenvalues --   -0.12366  -0.07181  -0.03945  -0.01406  -0.01065
 Alpha virt. eigenvalues --   -0.00194   0.00702   0.01477   0.01884   0.02823
 Alpha virt. eigenvalues --    0.03091   0.03388   0.03577   0.03713   0.04072

  Beta  occ. eigenvalues --  -19.16195 -19.16193 -19.13722 -19.13721 -10.28699
  Beta  occ. eigenvalues --  -10.28698 -10.26616 -10.26614 -10.21232 -10.21183
  Beta  occ. eigenvalues --  -10.21125 -10.21068 -10.20692 -10.20649 -10.20079
  Beta  occ. eigenvalues --  -10.20046 -10.20007 -10.19988 -10.17449 -10.17449
  Beta  occ. eigenvalues --   -1.09190  -1.09021  -1.05752  -1.05618  -0.89722
  Beta  occ. eigenvalues --   -0.88175  -0.83283  -0.78764  -0.78380  -0.77437
  Beta  occ. eigenvalues --   -0.73715  -0.71438  -0.68110  -0.65286  -0.64890
  Beta  occ. eigenvalues --   -0.63133  -0.60224  -0.57116  -0.55595  -0.53998
  Beta  occ. eigenvalues --   -0.53628  -0.50549  -0.49417  -0.48410  -0.47507
  Beta  occ. eigenvalues --   -0.46527  -0.46323  -0.45448  -0.45189  -0.44706
  Beta  occ. eigenvalues --   -0.43756  -0.43282  -0.42445  -0.41343  -0.41210
  Beta  occ. eigenvalues --   -0.39486  -0.39274  -0.39217  -0.38411  -0.37997
  Beta  occ. eigenvalues --   -0.37821  -0.37522  -0.37010  -0.32902  -0.29876
  Beta  occ. eigenvalues --   -0.28822  -0.28236  -0.28180  -0.26947  -0.23234
  Beta virt. eigenvalues --   -0.12366  -0.07181  -0.03945  -0.01406  -0.01065
  Beta virt. eigenvalues --   -0.00194   0.00702   0.01477   0.01884   0.02823
  Beta virt. eigenvalues --    0.03091   0.03388   0.03577   0.03713   0.04072

 Mulliken charges and spin densities:
               1          2
     1  C   -0.526673  -0.000000
     2  C    0.583795  -0.000000
     3  C    0.587743  -0.000000
     4  C   -0.526801  -0.000000
     5  C   -0.605179   0.000000
     6  O   -0.349818  -0.000000
     7  C    0.469227   0.000000
     8  C   -0.450968  -0.000000
     9  O   -0.341597   0.000000
    10  C    0.111629   0.000000
    11  C    0.121415   0.000000
    12  C   -0.358556  -0.000000
    13  C   -0.358905  -0.000000
    14  C    0.120203   0.000000
    15  C    0.119533  -0.000000
    16  C   -0.450657  -0.000000
    17  O   -0.341656   0.000000
    18  C    0.468667   0.000000
    19  C   -0.603530   0.000000
    20  O   -0.350328  -0.000000
    21  H    0.194102  -0.000000
    22  H    0.192507   0.000000
    23  H    0.171189  -0.000000
    24  H    0.193503   0.000000
    25  H    0.194173  -0.000000
    26  H    0.170372  -0.000000
    27  H    0.380565   0.000000
    28  H    0.193958   0.000000
    29  H    0.208694  -0.000000
    30  H    0.208677   0.000000
    31  H    0.193893  -0.000000
    32  H    0.380818   0.000000
 Sum of Mulliken charges =  -0.00000   0.00000

 Dipole moment (field-independent basis, Debye):
    X=              0.7679    Y=             -0.0873    Z=             -0.0419  Tot=              0.7740
 Quadrupole moment (field-independent basis, Debye-Ang):
   XX=            -82.2445   YY=           -131.4567   ZZ=           -117.5242
   XY=             -5.8158   XZ=             -2.5595   YZ=             -1.7414

  Exact polarizability: 477.844 -15.378 328.685 -20.117  28.504 143.407
 Approx polarizability: 516.848  -8.563 421.048 -19.851  37.826 170.763

                      1                      2                      3
                      A                      A                      A
 Frequencies --     41.1873                51.3564                82.1932
 Red. masses --      4.9249                 1.1585                 3.4314
 Frc consts  --      0.0049                 0.0018                 0.0137
 IR Inten    --      5.6110                 0.0592                 0.0114

                      4                      5                      6
                      A                      A                      A
 Frequencies --     91.1391               117.8095               125.4251
 Red. masses --      1.1016                 5.7685                 3.8885
 Frc consts  --      0.0054                 0.0472                 0.0360
 IR Inten    --      0.2888                 0.0166                 0.0052

                      7                      8                      9
                      A                      A                      A
 Frequencies --    158.5038               159.0426               190.7139
 Red. masses --      5.0358                 6.7622                 4.6505
 Frc consts  --      0.0745                 0.1008                 0.0997
 IR Inten    --      0.4219                 1.5027                 0.0525

                     10                     11                     12
                      A                      A                      A
 Frequencies --    226.7148               302.8066               304.5530
 Red. masses --      6.3994                 4.4275                 4.4800
 Frc consts  --      0.1938                 0.2392                 0.2448
 IR Inten    --      0.2888                 0.2570                 0.1012

                     13                     14                     15
                      A                      A                      A
 Frequencies --    312.8516               342.4381               372.3545
 Red. masses --      4.3245                 3.1485                 5.4842
 Frc consts  --      0.2494                 0.2175                 0.4480
 IR Inten    --      8.6612                 1.2396                12.0104

                     16                     17                     18
                      A                      A                      A
 Frequencies --    389.6877               405.7375               408.6037
 Red. masses --      7.0638                 8.0848                 6.2504
 Frc consts  --      0.6320                 0.7842                 0.6148
 IR Inten    --     15.1620                 0.3544                 7.3567

                     19                     20                     21
                      A                      A                      A
 Frequencies --    426.4275               438.5114               459.8156
 Red. masses --      3.3297                 8.8803                 9.4655
 Frc consts  --      0.3567                 1.0061                 1.1791
 IR Inten    --      4.3477                47.0601                31.0904

                     22                     23                     24
                      A                      A                      A
 Frequencies --    461.4464               517.3644               536.6093
 Red. masses --      5.2377                10.2427                 4.9254
 Frc consts  --      0.6571                 1.6153                 0.8356
 IR Inten    --      3.9363                 2.9195                 0.1730

                     25                     26                     27
                      A                      A                      A
 Frequencies --    545.6755               550.5957               647.9513
 Red. masses --      5.6181                 6.9348                 6.8020
 Frc consts  --      0.9856                 1.2386                 1.6826
 IR Inten    --      8.8042                 5.4425                25.6058

                     28                     29                     30
                      A                      A                      A
 Frequencies --    659.5754               679.1744               698.6120
 Red. masses --      5.7459                 4.9524                 4.7157
 Frc consts  --      1.4728                 1.3460                 1.3560
 IR Inten    --      4.4787                 0.0761                17.3067

                     31                     32                     33
                      A                      A                      A
 Frequencies --    717.6013               739.9911               741.7458
 Red. masses --      6.0913                 2.1620                 5.5424
 Frc consts  --      1.8481                 0.6975                 1.7966
 IR Inten    --      0.4167                67.5315                 6.8897

                     34                     35                     36
                      A                      A                      A
 Frequencies --    766.1757               780.8872               806.3284
 Red. masses --      5.7348                 5.7933                 1.2554
 Frc consts  --      1.9835                 2.0814                 0.4809
 IR Inten    --      4.3110                 0.0017               252.4508

                     37                     38                     39
                      A                      A                      A
 Frequencies --    811.7823               819.4244               882.5188
 Red. masses --      1.1200                 1.5809                 4.7325
 Frc consts  --      0.4348                 0.6254                 2.1717
 IR Inten    --      7.7958               100.1072                 0.4605

                     40                     41                     42
                      A                      A                      A
 Frequencies --    911.8342               943.9325               974.5097
 Red. masses --      1.3824                 5.1210                 2.5557
 Frc consts  --      0.6772                 2.6884                 1.4300
 IR Inten    --      0.0046                38.4169               137.2264

                     43                     44                     45
                      A                      A                      A
 Frequencies --   1001.5287              1023.6583              1028.0273
 Red. masses --      1.3855                 1.3333                 1.4429
 Frc consts  --      0.8188                 0.8231                 0.8984
 IR Inten    --      1.6828                 0.0006                 4.9407

                     46                     47                     48
                      A                      A                      A
 Frequencies --   1031.8934              1059.8922              1061.9702
 Red. masses --      2.1667                 1.6816                 1.7800
 Frc consts  --      1.3593                 1.1130                 1.1828
 IR Inten    --     78.7114                 1.2295                10.2336

                     49                     50                     51
                      A                      A                      A
 Frequencies --   1085.6001              1112.5219              1123.4926
 Red. masses --      5.1429                 2.1481                 2.0739
 Frc consts  --      3.5710                 1.5664                 1.5423
 IR Inten    --     97.9136                74.2358                 5.2901

                     52                     53                     54
                      A                      A                      A
 Frequencies --   1158.9989              1183.9604              1226.9459
 Red. masses --      3.5355                 1.2040                 2.2692
 Frc consts  --      2.7981                 0.9944                 2.0127
 IR Inten    --     20.0098                22.5610                32.6127

                     55                     56                     57
                      A                      A                      A
 Frequencies --   1266.2296              1280.0478              1289.1391
 Red. masses --      3.8467                 7.8201                 2.0651
 Frc consts  --      3.6338                 7.5495                 2.0221
 IR Inten    --   1052.3355               512.4582               221.6930

                     58                     59                     60
                      A                      A                      A
 Frequencies --   1351.4631              1353.3946              1376.7845
 Red. masses --      2.4049                 6.2086                 3.7150
 Frc consts  --      2.5880                 6.7003                 4.1490
 IR Inten    --    175.7144                91.2319               697.9906

                     61                     62                     63
                      A                      A                      A
 Frequencies --   1395.6078              1398.4007              1408.0878
 Red. masses --      2.0365                 3.5743                 1.2009
 Frc consts  --      2.3371                 4.1182                 1.4029
 IR Inten    --    817.7858                 7.2982                16.3434

                     64                     65                     66
                      A                      A                      A
 Frequencies --   1410.2134              1437.3996              1475.3122
 Red. masses --      1.9058                 4.3931                 1.2054
 Frc consts  --      2.2330                 5.3479                 1.5458
 IR Inten    --    195.2361               107.1479                 6.2749

                     67                     68                     69
                      A                      A                      A
 Frequencies --   1478.9187              1484.0840              1486.5214
 Red. masses --      1.1769                 1.1459                 2.3322
 Frc consts  --      1.5166                 1.4870                 3.0364
 IR Inten    --    166.6930                 0.7523                18.8088

                     70                     71                     72
                      A                      A                      A
 Frequencies --   1490.7606              1495.5565              1503.4611
 Red. masses --      1.0519                 3.0564                 2.6421
 Frc consts  --      1.3773                 4.0277                 3.5188
 IR Inten    --     45.8399                60.1132                12.6868

                     73                     74                     75
                      A                      A                      A
 Frequencies --   1594.0535              1602.0835              1604.0151
 Red. masses --      3.0410                 4.7686                 6.5722
 Frc consts  --      4.5527                 7.2113                 9.9627
 IR Inten    --    187.7136               801.9346                14.5527

                     76                     77                     78
                      A                      A                      A
 Frequencies --   1615.6059              1646.7437              1654.3801
 Red. masses --      3.2183                 7.9876                 7.7871
 Frc consts  --      4.9493                12.7620                12.5573
 IR Inten    --      4.8291               209.8944                31.0954

                     79                     80                     81
                      A                      A                      A
 Frequencies --   3028.8692              3030.7273              3077.8261
 Red. masses --      1.0446                 1.0456                 1.0948
 Frc consts  --      5.6464                 5.6585                 6.1107
 IR Inten    --     49.0617                 3.9697                29.0889

                     82                     83                     84
                      A                      A                      A
 Frequencies --   3084.0076              3149.9629              3150.4791
 Red. masses --      1.0951                 1.0970                 1.0967
 Frc consts  --      6.1368                 6.4130                 6.4136
 IR Inten    --      7.9795                17.3962                 2.9958

                     85                     86                     87
                      A                      A                      A
 Frequencies --   3180.0203              3186.0943              3190.0226
 Red. masses --      1.0876                 1.0713                 1.0700
 Frc consts  --      6.4800                 6.4072                 6.4153
 IR Inten    --      5.0455               685.3345                70.0020

                     88                     89                     90
                      A                      A                      A
 Frequencies --   3192.5081              3206.0917              3208.7667
 Red. masses --      1.0917                 1.0925                 1.0952
 Frc consts  --      6.5558                 6.6165                 6.6436
 IR Inten    --      3.2237                 3.1043                20.7509

 - Thermochemistry -
 -------------------
 Temperature   298.150 Kelvin.  Pressure   1.00000 Atm.
 Atom     1 has atomic number  6 and mass  12.00000

 Molecular mass:   268.07356 amu.
 Principal axes and moments of inertia in atomic units:
                           1         2         3
     Eigenvalues --  2770.864736746.648729495.19871
           X            0.99125   0.12113   0.05243
           Y           -0.11278   0.98366  -0.14036
           Z           -0.06858   0.13322   0.98871
 This molecule is an asymmetric top.
 Rotational symmetry number  1.
 Warning -- assumption of classical behavior for rotation
           may cause significant error
 Rotational temperatures (Kelvin)      0.03126     0.01284     0.00912
 Rotational constants (GHZ):           0.65133     0.26750     0.19007
 Zero-point vibrational energy     636914.2 (Joules/Mol)
                                  152.22615 (Kcal/Mol)
 Warning -- explicit consideration of  26 degrees of freedom as
           vibrations may cause significant error
 Vibrational temperatures:     59.26    73.89   118.26   131.13   169.50
          (Kelvin)            180.46   228.05   228.83   274.39   326.19
                              435.67   438.18   450.12   492.69   535.74
                              560.67   583.77   587.89   613.53   630.92
                              661.57   663.92   744.37   772.06   785.11
                              792.18   932.26   948.98   977.18  1005.15
                             1032.47  1064.68  1067.21  1102.36  1123.52
                             1160.13  1167.97  1178.97  1269.75  1311.93
                             1358.11  1402.10  1440.98  1472.82  1479.10
                             1484.66  1524.95  1527.94  1561.94  1600.67
                             1616.46  1667.54  1703.45  1765.30  1821.82
                             1841.70  1854.78  1944.45  1947.23  1980.89
                             2007.97  2011.99  2025.92  2028.98  2068.10
                             2122.65  2127.83  2135.27  2138.77  2144.87
                             2151.77  2163.15  2293.49  2305.04  2307.82
                             2324.50  2369.30  2380.28  4357.87  4360.54
                             4428.31  4437.20  4532.09  4532.84  4575.34
                             4584.08  4589.73  4593.31  4612.85  4616.70

 Zero-point correction=                           0.242588 (Hartree/Particle)
 Thermal correction to Energy=                    0.258959
 Thermal correction to Enthalpy=                  0.259904
 Thermal correction to Gibbs Free Energy=         0.198731
 Sum of electronic and zero-point Energies=           -917.892909
 Sum of electronic and thermal Energies=              -917.876537
 Sum of electronic and thermal Enthalpies=            -917.875593
 Sum of electronic and thermal Free Energies=         -917.936766

                     E (Thermal)             CV                S
                      KCal/Mol        Cal/Mol-Kelvin    Cal/Mol-Kelvin
 Total                  162.499             64.470            128.749
 Electronic               0.000              0.000              0.000
 Translational            0.889              2.981             42.657
 Rotational               0.889              2.981             33.539
 Vibrational            160.722             58.508             52.552
 Vibration     1          0.594              1.981              5.201
 Vibration     2          0.596              1.977              4.764
 Vibration     3          0.600              1.961              3.838
 Vibration     4          0.602              1.955              3.635
 Vibration     5          0.608              1.935              3.136
 Vibration     6          0.610              1.928              3.015
 Vibration     7          0.621              1.893              2.568
 Vibration     8          0.621              1.892              2.561
 Vibration     9          0.634              1.853              2.221
 Vibration    10          0.650              1.800              1.905
 Vibration    11          0.694              1.668              1.401
 Vibration    12          0.695              1.665              1.392
 Vibration    13          0.701              1.649              1.347
 Vibration    14          0.722              1.591              1.201
 Vibration    15          0.744              1.529              1.070
 Vibration    16          0.758              1.492              1.001
 Vibration    17          0.771              1.458              0.942
 Vibration    18          0.773              1.452              0.932
 Vibration    19          0.788              1.413              0.870
 Vibration    20          0.799              1.386              0.831
 Vibration    21          0.818              1.339              0.767
 Vibration    22          0.819              1.336              0.762
 Vibration    23          0.872              1.212              0.616
 Vibration    24          0.892              1.169              0.573
 Vibration    25          0.901              1.149              0.553
 Vibration    26          0.906              1.138              0.543

                           ! Non-Optimized Parameters !
 Normal termination of Gaussian 16 at Sat Feb 10 23:47:17 2024.
