 Q-Chem 5.4, Q-Chem, Inc., Pleasanton, CA (2021)
 Q-Chem 5.4.0 for Intel X86 EM64T Linux

User input:
--------------------------------------------------------------
$molecule
-1 2
C                 -1.7631600000     -3.7213920000      1.3013420000
C                 -0.3781800000     -3.9547000000      1.0442140000
C                  0.4328430000     -2.9503280000      0.5696640000
C                 -0.0540060000     -1.6106830000      0.3024510000
C                 -1.4684500000     -1.3551830000      0.5585770000
C                 -2.2526940000     -2.3723510000      1.0331060000
O                 -2.6017410000     -4.5785780000      1.7401020000
O                  0.7102190000     -0.7031020000     -0.1335570000
O                 -3.5849730000     -2.2210230000      1.3033750000
C                 -2.0083880000      0.0230220000      0.2914550000
H                  0.0074330000     -4.9517040000      1.2375650000
H                  1.4867670000     -3.1238330000      0.3732270000
H                 -1.5519990000      0.7608530000      0.9621000000
H                 -3.0912090000      0.0522160000      0.4242650000
H                 -1.7586160000      0.3436920000     -0.7251920000
H                 -3.8268800000     -3.1226740000      1.6124360000
$end
$rem
MAX_SCF_CYCLES=200
BASIS  =  6-311++G(d,p)
GUI  =  2
JOB_TYPE  =  SP
METHOD  =  B3LYP
SOLVENT_METHOD = PCM
$end
$pcm
theory = CPCM
$end
$solvent
dielectric 37.219
opticaldielectric 1.43
$end

--------------------------------------------------------------

             Standard Nuclear Orientation (Angstroms)
    I     Atom           X                Y                Z
 ----------------------------------------------------------------
    1      C      -1.7631600000    -3.7213920000     1.3013420000
    2      C      -0.3781800000    -3.9547000000     1.0442140000
    3      C       0.4328430000    -2.9503280000     0.5696640000
    4      C      -0.0540060000    -1.6106830000     0.3024510000
    5      C      -1.4684500000    -1.3551830000     0.5585770000
    6      C      -2.2526940000    -2.3723510000     1.0331060000
    7      O      -2.6017410000    -4.5785780000     1.7401020000
    8      O       0.7102190000    -0.7031020000    -0.1335570000
    9      O      -3.5849730000    -2.2210230000     1.3033750000
   10      C      -2.0083880000     0.0230220000     0.2914550000
   11      H       0.0074330000    -4.9517040000     1.2375650000
   12      H       1.4867670000    -3.1238330000     0.3732270000
   13      H      -1.5519990000     0.7608530000     0.9621000000
   14      H      -3.0912090000     0.0522160000     0.4242650000
   15      H      -1.7586160000     0.3436920000    -0.7251920000
   16      H      -3.8268800000    -3.1226740000     1.6124360000
 ----------------------------------------------------------------

    9    -496.3151146358      7.08e-06  Convergence criterion met
 Total energy in the final basis set =     -496.3151146358

                    Orbital Energies (a.u.)
 --------------------------------------------------------------

 Alpha MOs
 -- Occupied --
-19.1426 -19.0896 -19.0785 -10.2231 -10.2219 -10.2206 -10.1641 -10.1640
-10.1629 -10.1548  -1.0619  -0.9998  -0.9972  -0.8236  -0.7624  -0.6925
 -0.6672  -0.5906  -0.5779  -0.5115  -0.4861  -0.4585  -0.4365  -0.4309
 -0.4046  -0.4000  -0.3991  -0.3944  -0.3746  -0.3612  -0.3561  -0.3452
 -0.2822  -0.2614  -0.2428  -0.2273  -0.1645

 Beta MOs
 -- Occupied --
-19.1422 -19.0830 -19.0722 -10.2206 -10.2206 -10.2198 -10.1638 -10.1633
-10.1606 -10.1549  -1.0599  -0.9888  -0.9861  -0.8179  -0.7599  -0.6869
 -0.6596  -0.5873  -0.5742  -0.5078  -0.4842  -0.4551  -0.4271  -0.4267
 -0.4008  -0.3962  -0.3928  -0.3906  -0.3592  -0.3562  -0.3432  -0.3364
 -0.2555  -0.2526  -0.2369  -0.2199

          Ground-State Mulliken Net Atomic Charges

     Atom                 Charge (a.u.)    Spin (a.u.)
  --------------------------------------------------------
      1 C                    -0.134607       0.153560
      2 C                    -0.013961       0.054135
      3 C                     0.170108       0.182032
      4 C                    -0.951540       0.083441
      5 C                     1.945061       0.024867
      6 C                    -1.554375       0.040465
      7 O                    -0.550707       0.233452
      8 O                    -0.511452       0.224129
      9 O                    -0.310757       0.013923
     10 C                    -0.295029       0.009376
     11 H                     0.202410      -0.004958
     12 H                     0.194417      -0.014161
     13 H                     0.172026       0.001892
     14 H                     0.175660      -0.000370
     15 H                     0.163310       0.001446
     16 H                     0.299437      -0.003227
  --------------------------------------------------------
  Sum of atomic charges =    -1.000000

                    Cartesian Multipole Moments
 -----------------------------------------------------------------
    Charge (ESU x 10^10)
                -4.8032
    Dipole Moment (Debye)
         X       5.1180      Y      11.1937      Z      -3.5665
       Tot      12.8146
    Quadrupole Moments (Debye-Ang)
        XX     -82.9592     XY     -26.7942     YY    -105.9191
        XZ      11.5826     YZ      16.7798     ZZ     -69.1727

 Total job time:  14.54s(wall), 98.58s(cpu)
        *  Thank you very much for using Q-Chem.  Have a nice day.  *
