 Q-Chem 5.4, Q-Chem, Inc., Pleasanton, CA (2021)
 Q-Chem 5.4.0 for Intel X86 EM64T Linux

User input:
--------------------------------------------------------------
$molecule
-2 1
C                  6.8870930000     -1.6443580000     -0.2498260000
C                  7.4529360000     -0.6900720000     -1.0691260000
C                  6.6313090000      0.3240520000     -1.6392040000
C                  5.2796360000      0.3384310000     -1.3642440000
C                  4.6630770000     -0.6266950000     -0.5262900000
C                  5.5005240000     -1.6603980000      0.0548300000
C                  4.9855290000     -2.6986180000      0.9249840000
C                  3.5658830000     -2.6115300000      1.1613490000
C                  2.7213860000     -1.5746650000      0.5793670000
C                  3.2363630000     -0.5422830000     -0.2867500000
C                  2.9571840000     -3.5841940000      2.0038310000
C                  1.6133020000     -3.5391580000      2.2550530000
C                  0.7583240000     -2.5426240000      1.7047320000
C                  1.3387620000     -1.5943910000      0.8862370000
O                  5.7309870000     -3.6138600000      1.4383650000
O                  2.4956830000      0.3755640000     -0.8030870000
H                  7.4850940000     -2.4308810000      0.2005860000
H                  4.6248140000      1.0972080000     -1.7822500000
H                  3.6151290000     -4.3391640000      2.4186570000
H                  0.7352860000     -0.8099360000      0.4383450000
I                  0.7129270000     -5.0259670000      3.5375840000
H                  8.5211390000     -0.7101950000     -1.2800220000
H                  7.0690680000      1.0818410000     -2.2872720000
H                 -0.3034350000     -2.5321160000      1.9216110000
$end
$rem
MAX_SCF_CYCLES=200
BASIS  =  6-311++G(d,p)
GUI  =  2
JOB_TYPE  =  SP
METHOD  =  B3LYP
SOLVENT_METHOD = COSMO
$end
$solvent
dielectric 37.219
opticaldielectric 1.43
$end

--------------------------------------------------------------

             Standard Nuclear Orientation (Angstroms)
    I     Atom           X                Y                Z
 ----------------------------------------------------------------
    1      C       3.9506421279    -1.8036740371     0.0001712276
    2      C       5.2769313330    -1.4254554554     0.0006289996
    3      C       5.6135862095    -0.0415584922     0.0008018425
    4      C       4.6081006647     0.9028081595     0.0004815187
    5      C       3.2333601801     0.5508586282     0.0000020241
    6      C       2.8901591615    -0.8597344603    -0.0001527891
    7      C       1.5230482162    -1.3406669645    -0.0005907110
    8      C       0.5346700653    -0.2909259829    -0.0006125474
    9      C       0.8755545507     1.1270884778    -0.0004841279
   10      C       2.2372811901     1.6034004182    -0.0002451452
   11      C      -0.8416067133    -0.6545574951    -0.0005676843
   12      C      -1.8125242980     0.3090184532    -0.0005670170
   13      C      -1.5174966514     1.7018139459    -0.0005561906
   14      C      -0.1856145492     2.0652396256    -0.0005347814
   15      O       1.2223418204    -2.5922703847    -0.0009672206
   16      O       2.5440653924     2.8538152320     0.0001043647
   17      H       3.6599737014    -2.8499084460     0.0000210214
   18      H       4.8297412348     1.9658880394     0.0006547022
   19      H      -1.0574495363    -1.7168021976    -0.0005231826
   20      H       0.0990587582     3.1136294770    -0.0005081237
   21      I      -3.8941926466    -0.2678852962     0.0003599171
   22      H       6.0633027541    -2.1788209986     0.0008605767
   23      H       6.6580093512     0.2667422705     0.0012307975
   24      H      -2.3082326170     2.4429048482    -0.0005562634
 ----------------------------------------------------------------

   11   -7607.8593475447      9.46e-06  Convergence criterion met
 Total energy in the final basis set =    -7607.8593475447
    6   -7608.1215566075      3.45e-06  Convergence criterion met
 Total energy in the final basis set =    -7608.1215566075

                    Orbital Energies (a.u.)
 --------------------------------------------------------------

 Alpha MOs
 -- Occupied --
********-176.2867-165.6902-165.6884-165.6884 -35.7832 -31.2757 -31.2706
-31.2706 -22.9264 -22.9252 -22.9252 -22.9216 -22.9216 -19.0308 -19.0306
-10.2032 -10.1835 -10.1829 -10.1627 -10.1614 -10.1580 -10.1536 -10.1531
-10.1504 -10.1502 -10.1476 -10.1450 -10.1449 -10.1443  -6.3325  -4.7433
 -4.7309  -4.7309  -2.0093  -2.0054  -2.0051  -1.9947  -1.9946  -0.9497
 -0.9464  -0.8412  -0.8284  -0.7633  -0.7394  -0.7281  -0.7168  -0.6541
 -0.6361  -0.6097  -0.5839  -0.5654  -0.5325  -0.5122  -0.4923  -0.4478
 -0.4464  -0.4333  -0.4203  -0.4083  -0.4018  -0.3907  -0.3811  -0.3796
 -0.3728  -0.3540  -0.3496  -0.3364  -0.3265  -0.3176  -0.3156  -0.3061
 -0.2728  -0.2613  -0.2424  -0.2339  -0.2312  -0.2189  -0.2139  -0.2062
 -0.1163

          Ground-State Mulliken Net Atomic Charges

     Atom                 Charge (a.u.)
  ----------------------------------------
      1 C                    -0.004782
      2 C                    -0.521080
      3 C                    -0.511255
      4 C                     0.002761
      5 C                     0.182341
      6 C                     0.239597
      7 C                    -0.285745
      8 C                     0.173036
      9 C                     0.107583
     10 C                    -0.360321
     11 C                     0.054631
     12 C                    -0.018018
     13 C                    -0.638634
     14 C                    -0.109504
     15 O                    -0.694181
     16 O                    -0.691660
     17 H                     0.157916
     18 H                     0.158658
     19 H                     0.139869
     20 H                     0.166695
     21 I                    -0.091810
     22 H                     0.183023
     23 H                     0.183376
     24 H                     0.177505
  ----------------------------------------
  Sum of atomic charges =    -2.000000

                    Cartesian Multipole Moments
 -----------------------------------------------------------------
    Charge (ESU x 10^10)
                -9.6064
    Dipole Moment (Debye)
         X     -13.9689      Y      -0.6202      Z       0.0040
       Tot      13.9826
    Quadrupole Moments (Debye-Ang)
        XX    -186.0301     XY     -13.1627     YY    -179.3814
        XZ      -0.0028     YZ      -0.0102     ZZ    -133.7890

 Total job time:  68.72s(wall), 525.03s(cpu)
        *  Thank you very much for using Q-Chem.  Have a nice day.  *
