 Gaussian 16, Revision A.03,
 Gaussian 16:  ES64L-G16RevA.03 25-Dec-2016

 ----------------------------------------------------------------------
 #P UB3LYP/6-311++G(d,p) nosym opt freq SCRF=(PCM,Solvent=n,n-DiMethylF
 ormamide)
 ----------------------------------------------------------------------

 -------
 Reduced
 -------
 Symbolic Z-matrix:
 Charge = -2 Multiplicity = 1

 SCF Done:  E(UB3LYP) =  -725.314226129     A.U. after   19 cycles
 SCF Done:  E(UB3LYP) =  -725.316187822     A.U. after   14 cycles
 SCF Done:  E(UB3LYP) =  -725.316582579     A.U. after   13 cycles
 SCF Done:  E(UB3LYP) =  -725.316630966     A.U. after   13 cycles
 SCF Done:  E(UB3LYP) =  -725.316679722     A.U. after   12 cycles
 SCF Done:  E(UB3LYP) =  -725.316743954     A.U. after   13 cycles
 SCF Done:  E(UB3LYP) =  -725.316768770     A.U. after   12 cycles
 SCF Done:  E(UB3LYP) =  -725.316791339     A.U. after   12 cycles
 SCF Done:  E(UB3LYP) =  -725.316795862     A.U. after   11 cycles
 SCF Done:  E(UB3LYP) =  -725.316796897     A.U. after   11 cycles
 SCF Done:  E(UB3LYP) =  -725.316797012     A.U. after    9 cycles
 Optimization completed.
    -- Stationary point found.
 Normal termination of Gaussian 16 at Sun Feb 11 02:35:04 2024.

 ----------------------------------------------------------------------
 #P Geom=AllCheck Guess=TCheck SCRF=Check GenChk UB3LYP/6-311++G(d,p) F
 req
 ----------------------------------------------------------------------

 Structure from the checkpoint file:  "259-an.chk"
 -------
 Reduced
 -------
 Charge = -2 Multiplicity = 1

                          Input orientation:
 ---------------------------------------------------------------------
 Center     Atomic      Atomic             Coordinates (Angstroms)
 Number     Number       Type             X           Y           Z
 ---------------------------------------------------------------------
      1          6           0       -1.212373    2.856903    0.018208
      2          6           0       -2.491676    2.354212    0.016362
      3          6           0       -2.723741    0.958243    0.014542
      4          6           0       -0.072126    1.996712    0.018475
      5          6           0       -0.301864    0.569220    0.016678
      6          6           0       -1.637756    0.106038    0.014711
      7          6           0        1.247126    2.573121    0.020478
      8          6           0        2.293571    1.620768    0.020553
      9          6           0        2.085224    0.223041    0.018979
     10          6           0        0.805608   -0.369936    0.016926
     11          8           0        1.446547    3.874327    0.022002
     12          8           0        0.621109   -1.664792    0.015547
     13          1           0       -1.039380    3.929365    0.019470
     14          1           0       -1.791569   -0.967568    0.013247
     15          8           0        3.576675    2.165575    0.022620
     16          8           0       -3.617608    3.166154    0.016124
     17          1           0       -3.741772    0.583962    0.013020
     18          1           0        2.935100   -0.450054    0.019300
     19          6           0        4.692380    1.292146    0.021124
     20          1           0       -3.336872    4.088665    0.017677
     21          1           0        5.576690    1.930781    0.022368
     22          1           0        4.714484    0.654740   -0.870730
     23          1           0        4.714435    0.651527    0.910688
 ---------------------------------------------------------------------

 SCF Done:  E(UB3LYP) =  -725.316797012     A.U. after    1 cycles

 Alpha  occ. eigenvalues --  -19.14019 -19.12321 -19.01554 -19.00799 -10.21067
 Alpha  occ. eigenvalues --  -10.20308 -10.18167 -10.17220 -10.16065 -10.15017
 Alpha  occ. eigenvalues --  -10.14665 -10.14093 -10.13958 -10.13291 -10.11777
 Alpha  occ. eigenvalues --   -1.04463  -1.03106  -0.92345  -0.91141  -0.82316
 Alpha  occ. eigenvalues --   -0.76501  -0.72278  -0.71210  -0.68353  -0.63432
 Alpha  occ. eigenvalues --   -0.60613  -0.57298  -0.53414  -0.52463  -0.49270
 Alpha  occ. eigenvalues --   -0.46734  -0.44590  -0.43926  -0.43868  -0.40791
 Alpha  occ. eigenvalues --   -0.40315  -0.39598  -0.39136  -0.36914  -0.36280
 Alpha  occ. eigenvalues --   -0.35650  -0.35123  -0.33164  -0.32372  -0.31673
 Alpha  occ. eigenvalues --   -0.30243  -0.29820  -0.27861  -0.22453  -0.21066
 Alpha  occ. eigenvalues --   -0.19608  -0.19455  -0.19027  -0.10895
 Alpha virt. eigenvalues --   -0.00417  -0.00023   0.00622   0.01452   0.02196
 Alpha virt. eigenvalues --    0.02543   0.02817   0.04116   0.04559   0.05181
 Alpha virt. eigenvalues --    0.05832   0.05898   0.06532   0.07140   0.08582

  Beta  occ. eigenvalues --  -19.14019 -19.12321 -19.01554 -19.00799 -10.21067
  Beta  occ. eigenvalues --  -10.20308 -10.18167 -10.17220 -10.16065 -10.15017
  Beta  occ. eigenvalues --  -10.14665 -10.14093 -10.13958 -10.13291 -10.11777
  Beta  occ. eigenvalues --   -1.04463  -1.03106  -0.92345  -0.91141  -0.82316
  Beta  occ. eigenvalues --   -0.76501  -0.72278  -0.71210  -0.68353  -0.63432
  Beta  occ. eigenvalues --   -0.60613  -0.57298  -0.53414  -0.52463  -0.49270
  Beta  occ. eigenvalues --   -0.46734  -0.44590  -0.43926  -0.43868  -0.40791
  Beta  occ. eigenvalues --   -0.40315  -0.39598  -0.39136  -0.36914  -0.36280
  Beta  occ. eigenvalues --   -0.35650  -0.35123  -0.33164  -0.32372  -0.31673
  Beta  occ. eigenvalues --   -0.30243  -0.29820  -0.27861  -0.22453  -0.21066
  Beta  occ. eigenvalues --   -0.19608  -0.19455  -0.19027  -0.10895
  Beta virt. eigenvalues --   -0.00417  -0.00023   0.00622   0.01452   0.02196
  Beta virt. eigenvalues --    0.02543   0.02817   0.04116   0.04559   0.05181
  Beta virt. eigenvalues --    0.05832   0.05898   0.06532   0.07140   0.08582

 Mulliken charges and spin densities:
               1          2
     1  C    0.155991  -0.000000
     2  C   -0.548973   0.000000
     3  C   -0.195467   0.000000
     4  C    0.552458  -0.000000
     5  C    0.092096   0.000000
     6  C    0.107138   0.000000
     7  C   -0.753973   0.000000
     8  C   -0.325300  -0.000000
     9  C    0.385451  -0.000000
    10  C   -0.459274   0.000000
    11  O   -0.758319  -0.000000
    12  O   -0.714981   0.000000
    13  H    0.128005   0.000000
    14  H    0.149294   0.000000
    15  O   -0.256843   0.000000
    16  O   -0.321223   0.000000
    17  H    0.178687   0.000000
    18  H    0.149553   0.000000
    19  C   -0.317125   0.000000
    20  H    0.293024  -0.000000
    21  H    0.173160   0.000000
    22  H    0.143341  -0.000000
    23  H    0.143280  -0.000000
 Sum of Mulliken charges =  -2.00000  -0.00000

 Dipole moment (field-independent basis, Debye):
    X=             -5.8136    Y=            -11.9877    Z=             -0.1790  Tot=             13.3242
 Quadrupole moment (field-independent basis, Debye-Ang):
   XX=           -115.6189   YY=           -165.9725   ZZ=            -97.8885
   XY=            -20.8562   XZ=             -0.1472   YZ=             -0.2900

  Exact polarizability: 358.539 -14.531 294.306   0.210   0.154 135.262
 Approx polarizability: 395.963 -11.439 335.027   0.247   0.191 146.763

                      1                      2                      3
                      A                      A                      A
 Frequencies --     40.9417                98.6469               104.6327
 Red. masses --      3.2887                 6.3345                 5.1489
 Frc consts  --      0.0032                 0.0363                 0.0332
 IR Inten    --     21.2286                 1.0490                 2.1126

                      4                      5                      6
                      A                      A                      A
 Frequencies --    167.1329               183.6968               212.2758
 Red. masses --      6.9919                 5.1381                 2.0705
 Frc consts  --      0.1151                 0.1022                 0.0550
 IR Inten    --     14.3138                17.9766                 0.2928

                      7                      8                      9
                      A                      A                      A
 Frequencies --    242.2959               276.0577               304.7087
 Red. masses --      5.1650                 1.7781                 1.4020
 Frc consts  --      0.1787                 0.0798                 0.0767
 IR Inten    --      1.0316                11.0003                87.1683

                     10                     11                     12
                      A                      A                      A
 Frequencies --    320.0402               330.3481               347.1935
 Red. masses --      2.4313                10.3075                 6.0074
 Frc consts  --      0.1467                 0.6627                 0.4267
 IR Inten    --     68.0545                 9.0059                 0.8550

                     13                     14                     15
                      A                      A                      A
 Frequencies --    384.4814               385.6782               455.6468
 Red. masses --      5.4933                 6.3611                 3.1934
 Frc consts  --      0.4784                 0.5575                 0.3906
 IR Inten    --     21.8441                 1.3741                22.7289

                     16                     17                     18
                      A                      A                      A
 Frequencies --    466.5588               481.0767               512.8541
 Red. masses --      6.9680                 6.2372                 8.1256
 Frc consts  --      0.8937                 0.8505                 1.2592
 IR Inten    --      4.6753                44.9118                23.7007

                     19                     20                     21
                      A                      A                      A
 Frequencies --    570.9984               635.2223               658.7593
 Red. masses --      4.4540                 2.3547                 7.6816
 Frc consts  --      0.8556                 0.5598                 1.9641
 IR Inten    --      1.2140                 1.7564                17.6775

                     22                     23                     24
                      A                      A                      A
 Frequencies --    665.4226               713.1853               717.5981
 Red. masses --      5.4644                 4.4494                 5.8188
 Frc consts  --      1.4256                 1.3334                 1.7654
 IR Inten    --     26.7297                 0.1040                47.3704

                     25                     26                     27
                      A                      A                      A
 Frequencies --    752.2546               759.5610               778.7663
 Red. masses --      2.8841                 6.2124                 1.4712
 Frc consts  --      0.9616                 2.1117                 0.5257
 IR Inten    --      6.3304                74.4545               116.3934

                     28                     29                     30
                      A                      A                      A
 Frequencies --    804.2998               852.0847               880.2736
 Red. masses --      2.9915                 1.6060                 5.3400
 Frc consts  --      1.1402                 0.6870                 2.4380
 IR Inten    --      1.1046                43.7803               264.9342

                     31                     32                     33
                      A                      A                      A
 Frequencies --    955.5241               961.4771              1060.0620
 Red. masses --      1.3114                 3.2601                 3.0336
 Frc consts  --      0.7054                 1.7756                 2.0085
 IR Inten    --      1.9568                67.8555               147.3248

                     34                     35                     36
                      A                      A                      A
 Frequencies --   1084.2411              1132.7156              1150.2714
 Red. masses --      2.7050                 3.0651                 1.8754
 Frc consts  --      1.8736                 2.3171                 1.4620
 IR Inten    --    235.5231               151.6579                48.5752

                     37                     38                     39
                      A                      A                      A
 Frequencies --   1157.1399              1163.5033              1175.0916
 Red. masses --      1.8789                 1.2764                 3.0336
 Frc consts  --      1.4822                 1.0181                 2.4680
 IR Inten    --    165.8248                 1.2309               648.9389

                     40                     41                     42
                      A                      A                      A
 Frequencies --   1200.2483              1205.5684              1250.3766
 Red. masses --      1.9431                 1.5960                 2.4801
 Frc consts  --      1.6493                 1.3667                 2.2845
 IR Inten    --    646.0676               278.6151               127.1974

                     43                     44                     45
                      A                      A                      A
 Frequencies --   1277.1110              1321.7699              1367.1632
 Red. masses --      2.5855                 5.6414                 4.8901
 Frc consts  --      2.4845                 5.8070                 5.3853
 IR Inten    --    196.8171               545.7775              1176.5887

                     46                     47                     48
                      A                      A                      A
 Frequencies --   1374.9655              1429.3772              1443.8258
 Red. masses --      5.6719                 2.9686                 4.1536
 Frc consts  --      6.3177                 3.5735                 5.1016
 IR Inten    --    211.4414               413.3680               156.0899

                     49                     50                     51
                      A                      A                      A
 Frequencies --   1473.1177              1478.5646              1497.8686
 Red. masses --      1.2342                 1.0472                 1.0867
 Frc consts  --      1.5781                 1.3488                 1.4365
 IR Inten    --      6.2235                 7.9732                91.4089

                     52                     53                     54
                      A                      A                      A
 Frequencies --   1524.7229              1531.1347              1586.9919
 Red. masses --      4.5577                 4.4095                 6.7992
 Frc consts  --      6.2427                 6.0907                10.0892
 IR Inten    --     91.2513               330.0459               167.6991

                     55                     56                     57
                      A                      A                      A
 Frequencies --   1625.3115              2988.8448              3038.6874
 Red. masses --      7.1215                 1.0339                 1.1049
 Frc consts  --     11.0839                 5.4416                 6.0112
 IR Inten    --    343.7968               150.5970                86.7411

                     58                     59                     60
                      A                      A                      A
 Frequencies --   3102.7240              3148.3802              3162.7909
 Red. masses --      1.0986                 1.0886                 1.0863
 Frc consts  --      6.2314                 6.3578                 6.4023
 IR Inten    --     59.9205                38.5765                 6.0032

                     61                     62                     63
                      A                      A                      A
 Frequencies --   3172.5092              3180.9808              3814.3196
 Red. masses --      1.0863                 1.0925                 1.0661
 Frc consts  --      6.4419                 6.5134                 9.1382
 IR Inten    --     65.4597                43.0458                81.9557

 - Thermochemistry -
 -------------------
 Temperature   298.150 Kelvin.  Pressure   1.00000 Atm.
 Atom     1 has atomic number  6 and mass  12.00000

 Molecular mass:   204.04226 amu.
 Principal axes and moments of inertia in atomic units:
                           1         2         3
     Eigenvalues --  1659.303134196.581815844.46340
           X            0.99228   0.12405  -0.00096
           Y           -0.12405   0.99228  -0.00104
           Z            0.00082   0.00115   1.00000
 This molecule is an asymmetric top.
 Rotational symmetry number  1.
 Warning -- assumption of classical behavior for rotation
           may cause significant error
 Rotational temperatures (Kelvin)      0.05220     0.02064     0.01482
 Rotational constants (GHZ):           1.08765     0.43005     0.30880
 Zero-point vibrational energy     431493.5 (Joules/Mol)
                                  103.12941 (Kcal/Mol)
 Warning -- explicit consideration of  19 degrees of freedom as
           vibrations may cause significant error
 Vibrational temperatures:     58.91   141.93   150.54   240.47   264.30
          (Kelvin)            305.42   348.61   397.19   438.41   460.47
                              475.30   499.53   553.18   554.90   655.57
                              671.27   692.16   737.88   821.54   913.94
                              947.81   957.39  1026.11  1032.46  1082.33
                             1092.84  1120.47  1157.21  1225.96  1266.52
                             1374.79  1383.35  1525.19  1559.98  1629.73
                             1654.98  1664.87  1674.02  1690.69  1726.89
                             1734.54  1799.01  1837.48  1901.73  1967.04
                             1978.27  2056.56  2077.34  2119.49  2127.32
                             2155.10  2193.74  2202.96  2283.33  2338.46
                             4300.28  4371.99  4464.13  4529.82  4550.55
                             4564.53  4576.72  5487.96

 Zero-point correction=                           0.164347 (Hartree/Particle)
 Thermal correction to Energy=                    0.176986
 Thermal correction to Enthalpy=                  0.177931
 Thermal correction to Gibbs Free Energy=         0.125434
 Sum of electronic and zero-point Energies=           -725.152450
 Sum of electronic and thermal Energies=              -725.139811
 Sum of electronic and thermal Enthalpies=            -725.138866
 Sum of electronic and thermal Free Energies=         -725.191364

                     E (Thermal)             CV                S
                      KCal/Mol        Cal/Mol-Kelvin    Cal/Mol-Kelvin
 Total                  111.061             49.337            110.490
 Electronic               0.000              0.000              0.000
 Translational            0.889              2.981             41.844
 Rotational               0.889              2.981             32.076
 Vibrational            109.283             43.375             36.570
 Vibration     1          0.594              1.981              5.213
 Vibration     2          0.604              1.950              3.481
 Vibration     3          0.605              1.946              3.366
 Vibration     4          0.624              1.883              2.467
 Vibration     5          0.631              1.862              2.291
 Vibration     6          0.643              1.822              2.024
 Vibration     7          0.658              1.775              1.786
 Vibration     8          0.678              1.718              1.558
 Vibration     9          0.696              1.665              1.391
 Vibration    10          0.706              1.635              1.310
 Vibration    11          0.713              1.615              1.258
 Vibration    12          0.725              1.581              1.179
 Vibration    13          0.753              1.503              1.021
 Vibration    14          0.754              1.501              1.017
 Vibration    15          0.814              1.348              0.779
 Vibration    16          0.824              1.324              0.747
 Vibration    17          0.837              1.292              0.707
 Vibration    18          0.868              1.222              0.627
 Vibration    19          0.927              1.094              0.502

 Optimization completed.
    -- Stationary point found.
 Normal termination of Gaussian 16 at Sun Feb 11 02:57:55 2024.
