 Q-Chem 5.4, Q-Chem, Inc., Pleasanton, CA (2021)
 Q-Chem 5.4.0 for Intel X86 EM64T Linux

User input:
--------------------------------------------------------------
$molecule
-2 1
C                  1.0546970000      4.3268410000      4.9829140000
C                  1.6722920000      3.9687180000      3.7471820000
C                  1.6085160000      2.7045860000      3.1170730000
C                  0.8652500000      1.5914080000      3.7274390000
C                  0.2527760000      1.9498310000      4.9678250000
C                  0.3200250000      3.2106490000      5.5964790000
O                  1.1459520000      5.5141160000      5.4567290000
O                  0.7662490000      0.4148050000      3.2418260000
H                  2.2221320000      4.7671020000      3.2640760000
C                 -0.3970940000      3.3035560000      6.8686300000
O                 -1.1350600000      2.4482200000      7.3635500000
O                 -0.1906220000      4.4729330000      7.5728430000
C                 -0.8869230000      4.5693070000      8.7985060000
H                 -0.6294270000      5.5515890000      9.2042260000
H                 -0.5897760000      3.7844730000      9.5049290000
H                 -1.9722260000      4.4957140000      8.6605490000
C                  2.2875890000      2.5095920000      1.8430800000
O                  3.1045580000      3.6211730000      1.4873310000
O                  2.2569910000      1.5715580000      1.0640120000
C                  3.7448770000      3.5054630000      0.2365480000
H                 -0.3078500000      1.1635090000      5.4619700000
H                  4.3201600000      4.4273780000      0.1051760000
H                  3.0266450000      3.3990100000     -0.5861720000
H                  4.4190270000      2.6410080000      0.1963000000
$end

$rem
BASIS  =  6-311++G(d,p)
GUI  =  2
JOB_TYPE  =  SP
METHOD  =  B3LYP
SCF_CONVERGENCE  = 8
SOLVENT_METHOD = sm12
$end

$smx
solvent dimethylformamide
charges CM5
$end

--------------------------------------------------------------

             Standard Nuclear Orientation (Angstroms)
    I     Atom           X                Y                Z
 ----------------------------------------------------------------
    1      C       1.0546970000     4.3268410000     4.9829140000
    2      C       1.6722920000     3.9687180000     3.7471820000
    3      C       1.6085160000     2.7045860000     3.1170730000
    4      C       0.8652500000     1.5914080000     3.7274390000
    5      C       0.2527760000     1.9498310000     4.9678250000
    6      C       0.3200250000     3.2106490000     5.5964790000
    7      O       1.1459520000     5.5141160000     5.4567290000
    8      O       0.7662490000     0.4148050000     3.2418260000
    9      H       2.2221320000     4.7671020000     3.2640760000
   10      C      -0.3970940000     3.3035560000     6.8686300000
   11      O      -1.1350600000     2.4482200000     7.3635500000
   12      O      -0.1906220000     4.4729330000     7.5728430000
   13      C      -0.8869230000     4.5693070000     8.7985060000
   14      H      -0.6294270000     5.5515890000     9.2042260000
   15      H      -0.5897760000     3.7844730000     9.5049290000
   16      H      -1.9722260000     4.4957140000     8.6605490000
   17      C       2.2875890000     2.5095920000     1.8430800000
   18      O       3.1045580000     3.6211730000     1.4873310000
   19      O       2.2569910000     1.5715580000     1.0640120000
   20      C       3.7448770000     3.5054630000     0.2365480000
   21      H      -0.3078500000     1.1635090000     5.4619700000
   22      H       4.3201600000     4.4273780000     0.1051760000
   23      H       3.0266450000     3.3990100000    -0.5861720000
   24      H       4.4190270000     2.6410080000     0.1963000000
 ----------------------------------------------------------------

   18    -837.4421524241      7.10e-09  Convergence criterion met
 Total energy in the final basis set =     -837.7197077257

                    Orbital Energies (a.u.)
 --------------------------------------------------------------

 Alpha MOs
 -- Occupied --
-19.1434 -19.1391 -19.0913 -19.0898 -19.0194 -19.0177 -10.2800 -10.2780
-10.2141 -10.2134 -10.1896 -10.1895 -10.1561 -10.1558 -10.1376 -10.1373
 -1.0829  -1.0751  -0.9930  -0.9922  -0.9399  -0.9362  -0.7985  -0.7565
 -0.7160  -0.6919  -0.6604  -0.6234  -0.5647  -0.5532  -0.5351  -0.4925
 -0.4694  -0.4666  -0.4646  -0.4628  -0.4484  -0.4273  -0.4200  -0.4129
 -0.3940  -0.3905  -0.3835  -0.3591  -0.3552  -0.3484  -0.3467  -0.3400
 -0.3262  -0.3177  -0.2885  -0.2870  -0.2647  -0.2640  -0.2369  -0.2313
 -0.1917  -0.1888  -0.1290

          Ground-State Mulliken Net Atomic Charges

     Atom                 Charge (a.u.)
  ----------------------------------------
      1 C                    -1.480565
      2 C                    -1.020706
      3 C                    -0.326694
      4 C                    -1.503045
      5 C                    -1.172189
      6 C                    -0.682319
      7 O                    -0.390716
      8 O                    -0.396542
      9 H                     0.000037
     10 C                     1.772897
     11 O                    -0.224416
     12 O                    -0.075090
     13 C                     0.376905
     14 H                     0.285513
     15 H                     0.215854
     16 H                     0.219625
     17 C                     1.610276
     18 O                    -0.091809
     19 O                    -0.240138
     20 C                     0.396010
     21 H                     0.016321
     22 H                     0.296916
     23 H                     0.209097
     24 H                     0.204779
  ----------------------------------------
  Sum of atomic charges =    -2.000000

                    Cartesian Multipole Moments
 -----------------------------------------------------------------
    Charge (ESU x 10^10)
                -9.6064
    Dipole Moment (Debye)
         X      -8.1709      Y     -25.5578      Z     -41.2579
       Tot      49.2156
    Quadrupole Moments (Debye-Ang)
        XX    -115.2695     XY     -28.2883     YY    -217.4899
        XZ     -24.8697     YZ    -129.0811     ZZ    -304.6617

 Total job time:  453.87s(wall), 3299.84s(cpu)
        *  Thank you very much for using Q-Chem.  Have a nice day.  *
