 Q-Chem 5.4, Q-Chem, Inc., Pleasanton, CA (2021)
 Q-Chem 5.4.0 for Intel X86 EM64T Linux

User input:
--------------------------------------------------------------
$molecule
-2 1
C                 -0.8823480000      3.8446880000     -0.1942380000
C                 -2.0327400000      3.0900680000     -0.0666780000
C                 -1.9480790000      1.6734900000      0.0017050000
C                  0.4034750000      3.2504170000     -0.2582410000
C                  0.4862990000      1.8084840000     -0.1782650000
C                 -0.7067100000      1.0636310000     -0.0552540000
C                  1.5756820000      4.0766600000     -0.4122050000
C                  2.8351840000      3.3884830000     -0.4785220000
C                  2.9146880000      1.9933930000     -0.3241790000
C                  1.7638940000      1.1394010000     -0.2180120000
O                  1.5331990000      5.3662290000     -0.5031080000
O                  1.9065390000     -0.1456560000     -0.1800650000
N                  3.9464460000      4.1939470000     -0.7610260000
H                 -0.9212600000      4.9279000000     -0.2542640000
H                 -3.0042740000      3.5794300000     -0.0205200000
H                 -2.8511880000      1.0745110000      0.0999740000
H                 -0.6078230000     -0.0163940000     -0.0031270000
H                  3.6701110000      5.1621730000     -0.6149500000
H                  4.7943630000      3.9082090000     -0.2778550000
N                  4.0975900000      1.2042580000     -0.3925360000
H                  3.7772120000      0.2342880000     -0.4975240000
C                  5.3724480000      1.3864840000      0.0056140000
C                  6.2489300000      0.1346840000     -0.0881280000
C                  7.4964060000      0.3508450000     -0.9546450000
O                  5.8691080000      2.4420940000      0.4355550000
H                  5.6742410000     -0.7196880000     -0.4588830000
H                  6.5665970000     -0.1054210000      0.9355380000
H                  7.2213460000      0.5395320000     -1.9976530000
H                  8.1542410000     -0.5261270000     -0.9332100000
H                  8.0613560000      1.2136080000     -0.5932170000
$end

$rem
BASIS  =  6-311++G(d,p)
GUI  =  2
JOB_TYPE  =  SP
METHOD  =  B3LYP
SCF_CONVERGENCE  = 8
SOLVENT_METHOD = sm12
$end

$smx
solvent dimethylformamide
charges CM5
$end

--------------------------------------------------------------

             Standard Nuclear Orientation (Angstroms)
    I     Atom           X                Y                Z
 ----------------------------------------------------------------
    1      C      -0.8823480000     3.8446880000    -0.1942380000
    2      C      -2.0327400000     3.0900680000    -0.0666780000
    3      C      -1.9480790000     1.6734900000     0.0017050000
    4      C       0.4034750000     3.2504170000    -0.2582410000
    5      C       0.4862990000     1.8084840000    -0.1782650000
    6      C      -0.7067100000     1.0636310000    -0.0552540000
    7      C       1.5756820000     4.0766600000    -0.4122050000
    8      C       2.8351840000     3.3884830000    -0.4785220000
    9      C       2.9146880000     1.9933930000    -0.3241790000
   10      C       1.7638940000     1.1394010000    -0.2180120000
   11      O       1.5331990000     5.3662290000    -0.5031080000
   12      O       1.9065390000    -0.1456560000    -0.1800650000
   13      N       3.9464460000     4.1939470000    -0.7610260000
   14      H      -0.9212600000     4.9279000000    -0.2542640000
   15      H      -3.0042740000     3.5794300000    -0.0205200000
   16      H      -2.8511880000     1.0745110000     0.0999740000
   17      H      -0.6078230000    -0.0163940000    -0.0031270000
   18      H       3.6701110000     5.1621730000    -0.6149500000
   19      H       4.7943630000     3.9082090000    -0.2778550000
   20      N       4.0975900000     1.2042580000    -0.3925360000
   21      H       3.7772120000     0.2342880000    -0.4975240000
   22      C       5.3724480000     1.3864840000     0.0056140000
   23      C       6.2489300000     0.1346840000    -0.0881280000
   24      C       7.4964060000     0.3508450000    -0.9546450000
   25      O       5.8691080000     2.4420940000     0.4355550000
   26      H       5.6742410000    -0.7196880000    -0.4588830000
   27      H       6.5665970000    -0.1054210000     0.9355380000
   28      H       7.2213460000     0.5395320000    -1.9976530000
   29      H       8.1542410000    -0.5261270000    -0.9332100000
   30      H       8.0613560000     1.2136080000    -0.5932170000
 ----------------------------------------------------------------

   18    -838.0324643148      3.62e-09  Convergence criterion met
 Total energy in the final basis set =     -838.3155070809

                    Orbital Energies (a.u.)
 --------------------------------------------------------------

 Alpha MOs
 -- Occupied --
-19.0895 -19.0372 -19.0253 -14.3392 -14.2927 -10.2710 -10.1889 -10.1806
-10.1803 -10.1790 -10.1786 -10.1716 -10.1696 -10.1687 -10.1666 -10.1665
-10.1516 -10.1510  -1.0327  -0.9635  -0.9455  -0.9171  -0.8805  -0.8424
 -0.7832  -0.7680  -0.7417  -0.7172  -0.6673  -0.6421  -0.6121  -0.6033
 -0.5669  -0.5505  -0.5220  -0.5006  -0.4892  -0.4876  -0.4544  -0.4532
 -0.4364  -0.4349  -0.4236  -0.4154  -0.4134  -0.4045  -0.3905  -0.3756
 -0.3696  -0.3645  -0.3600  -0.3529  -0.3505  -0.3382  -0.3342  -0.3209
 -0.2940  -0.2833  -0.2615  -0.2468  -0.2356  -0.2195  -0.2056  -0.1911
 -0.1186

          Ground-State Mulliken Net Atomic Charges

     Atom                 Charge (a.u.)
  ----------------------------------------
      1 C                    -0.417923
      2 C                     1.500557
      3 C                     1.283617
      4 C                    -1.694610
      5 C                    -1.032079
      6 C                     0.120137
      7 C                    -2.130265
      8 C                    -0.320436
      9 C                     0.453290
     10 C                    -1.815573
     11 O                    -0.404432
     12 O                    -0.260606
     13 N                    -0.327930
     14 H                     0.091635
     15 H                     0.378950
     16 H                     0.386539
     17 H                     0.134768
     18 H                     0.262502
     19 H                     0.291503
     20 N                     0.102903
     21 H                     0.335873
     22 C                    -0.734286
     23 C                     1.010765
     24 C                     0.057836
     25 O                    -0.399668
     26 H                     0.299026
     27 H                     0.219945
     28 H                     0.097030
     29 H                     0.320668
     30 H                     0.190264
  ----------------------------------------
  Sum of atomic charges =    -2.000000

                    Cartesian Multipole Moments
 -----------------------------------------------------------------
    Charge (ESU x 10^10)
                -9.6064
    Dipole Moment (Debye)
         X     -15.4545      Y     -27.9861      Z       2.6250
       Tot      32.0773
    Quadrupole Moments (Debye-Ang)
        XX    -183.0849     XY     -51.6061     YY    -239.7626
        XZ       3.0328     YZ      11.8042     ZZ    -123.1633

 Total job time:  878.32s(wall), 6276.65s(cpu)
        *  Thank you very much for using Q-Chem.  Have a nice day.  *
