 Gaussian 16, Revision A.03,
 Gaussian 16:  ES64L-G16RevA.03 25-Dec-2016

 ----------------------------------------------------------------
 #P UB3LYP/6-311++G(d,p) SCRF=(PCM,Solvent=n,n-DiMethylFormamide)
 ----------------------------------------------------------------

 ------------------
 Quinone PCM in DMF
 ------------------
 Symbolic Z-matrix:
 Charge =  0 Multiplicity = 1

                         Standard orientation:
 ---------------------------------------------------------------------
 Center     Atomic      Atomic             Coordinates (Angstroms)
 Number     Number       Type             X           Y           Z
 ---------------------------------------------------------------------
      1          8           0        0.362924    1.580749    1.397627
      2          6           0        0.569882    0.521904    0.834048
      3          6           0        1.878029    0.169019    0.221616
      4          6           0        2.921300    1.103852    0.305015
      5          6           0        4.150957    0.834210   -0.280035
      6          6           0        4.351337   -0.370352   -0.958735
      7          6           0        3.319545   -1.302996   -1.048724
      8          6           0        2.085919   -1.038061   -0.460332
      9          6           0       -0.569743   -0.519086    0.835660
     10          8           0       -0.362470   -1.576374    1.402042
     11          6           0       -1.878062   -0.168156    0.222533
     12          6           0       -2.920448   -1.103907    0.306850
     13          6           0       -4.150126   -0.836357   -0.279092
     14          6           0       -4.351453    0.367067   -0.959550
     15          6           0       -3.320643    1.300731   -1.050243
     16          6           0       -2.086980    1.037873   -0.460990
     17          1           0        2.744327    2.032635    0.833738
     18          1           0        4.954849    1.558043   -0.210210
     19          1           0        5.311976   -0.580613   -1.415701
     20          1           0        3.476925   -2.238934   -1.572091
     21          1           0        1.295369   -1.774834   -0.518115
     22          1           0       -2.742749   -2.031791    0.836909
     23          1           0       -4.953279   -1.560948   -0.208648
     24          1           0       -5.312087    0.575674   -1.417280
     25          1           0       -3.478798    2.235828   -1.574867
     26          1           0       -1.297252    1.775494   -0.519204
 ---------------------------------------------------------------------

 SCF Done:  E(UB3LYP) =  -690.145783331     A.U. after   14 cycles

 The electronic state is 1-A.
 Alpha  occ. eigenvalues --  -19.14364 -19.14363 -10.28894 -10.28873 -10.20509
 Alpha  occ. eigenvalues --  -10.20509 -10.19965 -10.19965 -10.19712 -10.19712
 Alpha  occ. eigenvalues --  -10.19632 -10.19632 -10.19218 -10.19218 -10.19204
 Alpha  occ. eigenvalues --  -10.19204  -1.08689  -1.06755  -0.88091  -0.88084
 Alpha  occ. eigenvalues --   -0.78923  -0.78237  -0.76922  -0.76851  -0.69866
 Alpha  occ. eigenvalues --   -0.65202  -0.63196  -0.62512  -0.60409  -0.56759
 Alpha  occ. eigenvalues --   -0.54602  -0.51508  -0.50167  -0.48426  -0.47765
 Alpha  occ. eigenvalues --   -0.46942  -0.46203  -0.46018  -0.44894  -0.44353
 Alpha  occ. eigenvalues --   -0.44268  -0.42738  -0.41636  -0.38485  -0.37972
 Alpha  occ. eigenvalues --   -0.37804  -0.37762  -0.36382  -0.36320  -0.33075
 Alpha  occ. eigenvalues --   -0.28437  -0.27739  -0.27661  -0.27628  -0.26001
 Alpha virt. eigenvalues --   -0.10109  -0.07676  -0.03137  -0.03044  -0.00768
 Alpha virt. eigenvalues --    0.00005   0.00011   0.01008   0.01707   0.01754
 Alpha virt. eigenvalues --    0.02509   0.03208   0.03475   0.03753   0.04456

  Beta  occ. eigenvalues --  -19.14364 -19.14363 -10.28894 -10.28873 -10.20509
  Beta  occ. eigenvalues --  -10.20509 -10.19965 -10.19965 -10.19712 -10.19712
  Beta  occ. eigenvalues --  -10.19632 -10.19632 -10.19218 -10.19218 -10.19204
  Beta  occ. eigenvalues --  -10.19204  -1.08689  -1.06755  -0.88091  -0.88084
  Beta  occ. eigenvalues --   -0.78923  -0.78237  -0.76922  -0.76851  -0.69866
  Beta  occ. eigenvalues --   -0.65202  -0.63196  -0.62512  -0.60409  -0.56759
  Beta  occ. eigenvalues --   -0.54602  -0.51508  -0.50167  -0.48426  -0.47765
  Beta  occ. eigenvalues --   -0.46942  -0.46203  -0.46018  -0.44894  -0.44353
  Beta  occ. eigenvalues --   -0.44268  -0.42738  -0.41636  -0.38485  -0.37972
  Beta  occ. eigenvalues --   -0.37804  -0.37762  -0.36382  -0.36320  -0.33075
  Beta  occ. eigenvalues --   -0.28437  -0.27739  -0.27661  -0.27628  -0.26001
  Beta virt. eigenvalues --   -0.10109  -0.07676  -0.03137  -0.03044  -0.00768
  Beta virt. eigenvalues --    0.00005   0.00011   0.01008   0.01707   0.01754
  Beta virt. eigenvalues --    0.02509   0.03208   0.03475   0.03753   0.04456

 Mulliken charges and spin densities:
               1          2
     1  O   -0.254133  -0.000000
     2  C   -0.195684   0.000000
     3  C    1.256217  -0.000000
     4  C    0.487628  -0.000000
     5  C   -0.501556  -0.000000
     6  C   -0.278777  -0.000000
     7  C   -0.518933   0.000000
     8  C   -0.989265   0.000000
     9  C   -0.197619  -0.000000
    10  O   -0.254179  -0.000000
    11  C    1.257197   0.000000
    12  C    0.486060  -0.000000
    13  C   -0.502382   0.000000
    14  C   -0.278788  -0.000000
    15  C   -0.519867  -0.000000
    16  C   -0.986791   0.000000
    17  H    0.209251   0.000000
    18  H    0.206143  -0.000000
    19  H    0.191296   0.000000
    20  H    0.218680  -0.000000
    21  H    0.170059   0.000000
    22  H    0.209263  -0.000000
    23  H    0.206152   0.000000
    24  H    0.191281  -0.000000
    25  H    0.218704  -0.000000
    26  H    0.170041   0.000000
 Sum of Mulliken charges =  -0.00000   0.00000

 Dipole moment (field-independent basis, Debye):
    X=             -0.0011    Y=             -0.0070    Z=             -4.6427  Tot=              4.6427
 Quadrupole moment (field-independent basis, Debye-Ang):
   XX=            -62.1531   YY=            -92.3851   ZZ=            -98.9530
   XY=              0.4521   XZ=              0.0053   YZ=              0.0018

 Normal termination of Gaussian 16 at Sat Jan 13 19:18:19 2024.
