 Q-Chem 5.4, Q-Chem, Inc., Pleasanton, CA (2021)
 Q-Chem 5.4.0 for Intel X86 EM64T Linux

User input:
--------------------------------------------------------------
$molecule
-1 2
O                 -4.7063940000     -0.6730890000      0.9893960000
C                 -3.4632210000     -0.2295320000      0.5691930000
C                 -3.4294200000      0.9787040000     -0.1572840000
C                 -2.2151860000      1.4624880000     -0.5980930000
C                 -1.0055450000      0.7818330000     -0.3419420000
C                  0.2539340000      1.3425560000     -0.8346270000
O                  0.2967300000      2.4168300000     -1.4819330000
C                  1.4626190000      0.5728810000     -0.5249530000
C                  2.7148430000      1.0510140000     -0.9671110000
C                  3.8812330000      0.3614810000     -0.7003640000
C                  3.8304690000     -0.8477200000      0.0289580000
C                  2.6181070000     -1.3358260000      0.4721010000
C                  1.4104600000     -0.6481630000      0.2116900000
C                  0.1517220000     -1.2048120000      0.7020520000
O                  0.1006110000     -2.2835790000      1.3522020000
C                 -1.0524250000     -0.4368310000      0.3926110000
C                 -2.3034530000     -0.9211880000      0.8380340000
H                 -4.5791090000     -1.4989020000      1.4676230000
H                 -4.3577700000      1.5029930000     -0.3549150000
H                 -2.1551760000      2.3881240000     -1.1590560000
H                  2.7221830000      1.9809930000     -1.5242530000
H                  4.8351480000      0.7458990000     -1.0492650000
H                  4.7465140000     -1.3919890000      0.2401270000
H                  2.5513270000     -2.2606830000      1.0335760000
H                 -2.3082050000     -1.8534790000      1.3962310000
$end
$rem
MAX_SCF_CYCLES=200
BASIS  =  6-311++G(d,p)
GUI  =  2
JOB_TYPE  =  SP
METHOD  =  B3LYP
SOLVENT_METHOD = COSMO
$end
$solvent
dielectric 37.219
opticaldielectric 1.43
$end

--------------------------------------------------------------

             Standard Nuclear Orientation (Angstroms)
    I     Atom           X                Y                Z
 ----------------------------------------------------------------
    1      O       4.6570038876    -0.7801667175     0.0000881717
    2      C       3.3701639026    -0.2674920340     0.0000331308
    3      C       3.2433813612     1.1370263000    -0.0000546027
    4      C       1.9825964535     1.6966200356     0.0000317193
    5      C       0.8158372601     0.9023852534    -0.0000598923
    6      C      -0.4964773731     1.5514356102     0.0002250113
    7      O      -0.6220177646     2.8000911772    -0.0000349004
    8      C      -1.6554181358     0.6536197779    -0.0000216735
    9      C      -2.9540522270     1.2065477118     0.0000548106
   10      C      -4.0765573281     0.4021487746     0.0000546925
   11      C      -3.9325872983    -1.0035280199     0.0000126999
   12      C      -2.6733592361    -1.5681424784    -0.0000595798
   13      C      -1.5091250384    -0.7658555620    -0.0001203784
   14      C      -0.1978441885    -1.4102752031    -0.0005803552
   15      O      -0.0636894504    -2.6636893734     0.0004301141
   16      C       0.9566267225    -0.5143314113    -0.0001513013
   17      C       2.2544948821    -1.0743426746     0.0000341496
   18      H       4.5921615657    -1.7407212522    -0.0002358111
   19      H       4.1386867675     1.7487443065    -0.0000686179
   20      H       1.8510698065     2.7726234879     0.0000920555
   21      H      -3.0328532184     2.2878027195     0.0002455458
   22      H      -5.0673765913     0.8468285666     0.0001180532
   23      H      -4.8139516912    -1.6384739535    -0.0000224821
   24      H      -2.5350532759    -2.6432916056    -0.0002336028
   25      H       2.3308647157    -2.1582894420    -0.0001528086
 ----------------------------------------------------------------

   10    -764.2686730225      7.65e-06  Convergence criterion met
 Total energy in the final basis set =     -764.2686730225
    5    -764.3555596812      5.20e-06  Convergence criterion met
 Total energy in the final basis set =     -764.3555596812

                    Orbital Energies (a.u.)
 --------------------------------------------------------------

 Alpha MOs
 -- Occupied --
-19.1565 -19.0804 -19.0787 -10.2382 -10.2292 -10.2247 -10.1781 -10.1759
-10.1741 -10.1736 -10.1734 -10.1721 -10.1716 -10.1713 -10.1699 -10.1693
-10.1693  -1.0627  -1.0081  -1.0036  -0.8630  -0.8515  -0.7851  -0.7550
 -0.7504  -0.7384  -0.6687  -0.6489  -0.6167  -0.5993  -0.5589  -0.5532
 -0.5344  -0.5013  -0.4793  -0.4669  -0.4571  -0.4314  -0.4292  -0.4291
 -0.4229  -0.4192  -0.4108  -0.4076  -0.3973  -0.3846  -0.3788  -0.3579
 -0.3550  -0.3473  -0.3355  -0.3273  -0.2681  -0.2591  -0.2572  -0.2515
 -0.2418  -0.2354  -0.1441

 Beta MOs
 -- Occupied --
-19.1564 -19.0755 -19.0730 -10.2379 -10.2275 -10.2225 -10.1773 -10.1760
-10.1734 -10.1732 -10.1725 -10.1718 -10.1711 -10.1707 -10.1699 -10.1691
-10.1689  -1.0623  -0.9993  -0.9933  -0.8603  -0.8503  -0.7812  -0.7524
 -0.7486  -0.7367  -0.6610  -0.6474  -0.6142  -0.5983  -0.5563  -0.5524
 -0.5324  -0.4998  -0.4766  -0.4653  -0.4561  -0.4304  -0.4283  -0.4223
 -0.4205  -0.4145  -0.4076  -0.4002  -0.3960  -0.3778  -0.3615  -0.3540
 -0.3527  -0.3463  -0.3341  -0.3168  -0.2564  -0.2488  -0.2478  -0.2466
 -0.2369  -0.2295

          Ground-State Mulliken Net Atomic Charges

     Atom                 Charge (a.u.)    Spin (a.u.)
  --------------------------------------------------------
      1 O                    -0.315230       0.004169
      2 C                    -0.613573       0.020839
      3 C                    -0.202249       0.031471
      4 C                     0.122681       0.015768
      5 C                     0.166614       0.014765
      6 C                    -0.464514       0.097447
      7 O                    -0.492497       0.180006
      8 C                     0.132882       0.043285
      9 C                     0.093362       0.015607
     10 C                    -0.488992       0.053712
     11 C                    -0.450181       0.024901
     12 C                     0.065888       0.043873
     13 C                     0.203618       0.023911
     14 C                    -0.506442       0.135160
     15 O                    -0.506115       0.211405
     16 C                     0.388368       0.042590
     17 C                     0.205008       0.058093
     18 H                     0.322799      -0.000176
     19 H                     0.229130      -0.002764
     20 H                     0.186241      -0.000798
     21 H                     0.178336      -0.000515
     22 H                     0.200692      -0.004091
     23 H                     0.202518      -0.002346
     24 H                     0.176711      -0.002338
     25 H                     0.164946      -0.003973
  --------------------------------------------------------
  Sum of atomic charges =    -1.000000

                    Cartesian Multipole Moments
 -----------------------------------------------------------------
    Charge (ESU x 10^10)
                -4.8032
    Dipole Moment (Debye)
         X       0.8565      Y      -1.5094      Z      -0.0031
       Tot       1.7355
    Quadrupole Moments (Debye-Ang)
        XX    -102.3841     XY      -1.5783     YY    -129.5527
        XZ      -0.0033     YZ       0.0069     ZZ    -105.1187

 Total job time:  76.49s(wall), 566.84s(cpu)
        *  Thank you very much for using Q-Chem.  Have a nice day.  *
