 Q-Chem 5.4, Q-Chem, Inc., Pleasanton, CA (2021)
 Q-Chem 5.4.0 for Intel X86 EM64T Linux

User input:
--------------------------------------------------------------
$molecule
0 1
C                 -1.8343800000     -3.6680070000      1.3154460000
C                 -0.3969950000     -3.9356790000      1.0635920000
C                  0.3918660000     -2.9479400000      0.5967720000
C                 -0.1591390000     -1.5565680000      0.3207750000
C                 -1.5880790000     -1.2933440000      0.5709230000
C                 -2.3603290000     -2.2967220000      1.0385980000
O                 -2.6134670000     -4.5047730000      1.7363710000
O                  0.5776960000     -0.6865950000     -0.0986390000
O                 -3.6682560000     -2.1545510000      1.2969170000
C                 -2.1010260000      0.0865070000      0.2887140000
Br                 0.1843080000     -5.6932080000      1.4390750000
Br                 2.2257970000     -3.1692850000      0.2399470000
H                 -1.5624920000      0.8253420000      0.8882990000
H                 -3.1652340000      0.1561780000      0.5076270000
H                 -1.9319650000      0.3511850000     -0.7584900000
H                 -3.9865580000     -3.0177120000      1.6198250000
$end

$rem
BASIS  =  6-311++G(d,p)
GUI  =  2
JOB_TYPE  =  SP
METHOD  =  B3LYP
SCF_CONVERGENCE  = 8
SOLVENT_METHOD = sm12
$end

$smx
solvent dimethylformamide
charges CM5
$end

--------------------------------------------------------------

             Standard Nuclear Orientation (Angstroms)
    I     Atom           X                Y                Z
 ----------------------------------------------------------------
    1      C      -1.8343800000    -3.6680070000     1.3154460000
    2      C      -0.3969950000    -3.9356790000     1.0635920000
    3      C       0.3918660000    -2.9479400000     0.5967720000
    4      C      -0.1591390000    -1.5565680000     0.3207750000
    5      C      -1.5880790000    -1.2933440000     0.5709230000
    6      C      -2.3603290000    -2.2967220000     1.0385980000
    7      O      -2.6134670000    -4.5047730000     1.7363710000
    8      O       0.5776960000    -0.6865950000    -0.0986390000
    9      O      -3.6682560000    -2.1545510000     1.2969170000
   10      C      -2.1010260000     0.0865070000     0.2887140000
   11      Br      0.1843080000    -5.6932080000     1.4390750000
   12      Br      2.2257970000    -3.1692850000     0.2399470000
   13      H      -1.5624920000     0.8253420000     0.8882990000
   14      H      -3.1652340000     0.1561780000     0.5076270000
   15      H      -1.9319650000     0.3511850000    -0.7584900000
   16      H      -3.9865580000    -3.0177120000     1.6198250000
 ----------------------------------------------------------------

   16   -5643.2226407110      4.66e-09  Convergence criterion met
 Total energy in the final basis set =    -5643.2384058569

                    Orbital Energies (a.u.)
 --------------------------------------------------------------

 Alpha MOs
 -- Occupied --
********-482.8591 -62.5127 -62.5118 -56.3333 -56.3325 -56.3295 -56.3288
-56.3285 -56.3280 -19.1901 -19.1700 -19.1491 -10.3171 -10.3033 -10.2832
-10.2822 -10.2798 -10.2197 -10.1793  -8.7215  -8.7206  -6.5536  -6.5528
 -6.5405  -6.5393  -6.5386  -6.5378  -2.6645  -2.6636  -2.6610  -2.6601
 -2.6595  -2.6589  -2.6492  -2.6491  -2.6481  -2.6481  -1.1252  -1.0868
 -1.0850  -0.9080  -0.8489  -0.8292  -0.7785  -0.7300  -0.6967  -0.6444
 -0.6167  -0.5860  -0.5466  -0.5011  -0.4932  -0.4815  -0.4586  -0.4491
 -0.4447  -0.4378  -0.4306  -0.4053  -0.4051  -0.3950  -0.3781  -0.3316
 -0.3296  -0.3228  -0.3075  -0.2939  -0.2928  -0.2662

          Ground-State Mulliken Net Atomic Charges

     Atom                 Charge (a.u.)
  ----------------------------------------
      1 C                    -0.638426
      2 C                     1.170664
      3 C                    -0.199367
      4 C                    -1.164481
      5 C                     2.228804
      6 C                    -1.665027
      7 O                    -0.228374
      8 O                    -0.217683
      9 O                    -0.204983
     10 C                     0.214976
     11 Br                   -0.076428
     12 Br                   -0.118500
     13 H                     0.196586
     14 H                     0.208392
     15 H                     0.196142
     16 H                     0.297704
  ----------------------------------------
  Sum of atomic charges =     0.000000

                    Cartesian Multipole Moments
 -----------------------------------------------------------------
    Charge (ESU x 10^10)
                 0.0000
    Dipole Moment (Debye)
         X      -1.2198      Y      -0.0177      Z       0.2838
       Tot       1.2525
    Quadrupole Moments (Debye-Ang)
        XX     -91.6512     XY      -3.1690     YY     -96.3396
        XZ       0.9433     YZ       1.8679     ZZ     -93.2071

 Total job time:  202.22s(wall), 1548.00s(cpu)
        *  Thank you very much for using Q-Chem.  Have a nice day.  *
