 Q-Chem 5.4, Q-Chem, Inc., Pleasanton, CA (2021)
 Q-Chem 5.4.0 for Intel X86 EM64T Linux

User input:
--------------------------------------------------------------
$molecule
0 1
C                  5.8168810000     -5.1095630000      1.2543830000
C                  6.8112150000     -5.0400580000      0.2901320000
C                  6.6920060000     -4.1292620000     -0.7740590000
C                  4.6982000000     -4.2764600000      1.1696340000
C                  4.5790240000     -3.3690260000      0.1101780000
C                  5.5742760000     -3.2937530000     -0.8624050000
C                  3.6326040000     -4.3593120000      2.2125920000
C                  2.4492940000     -3.4569610000      2.0937710000
C                  2.3356070000     -2.5754800000      1.0678920000
C                  3.3869850000     -2.4744480000      0.0124610000
O                  3.7330650000     -5.1487660000      3.1378790000
O                  3.2803830000     -1.6824460000     -0.9093020000
C                  7.7195800000     -4.0589790000     -1.7689780000
N                  8.5522370000     -4.0076750000     -2.5679670000
H                  5.8888890000     -5.8038170000      2.0820410000
H                  7.6811810000     -5.6822890000      0.3488010000
H                  5.4675830000     -2.5870560000     -1.6753280000
C                  1.4019580000     -3.5758620000      3.1648990000
C                  1.1544550000     -1.6567120000      0.9302400000
H                  1.6652610000     -4.3592120000      3.8727190000
H                  0.4238550000     -3.8048080000      2.7308810000
H                  1.2950460000     -2.6329030000      3.7108980000
H                  0.2276300000     -2.2287060000      0.8181460000
H                  1.2711280000     -1.0107360000      0.0624400000
H                  1.0381590000     -1.0338340000      1.8224120000
$end
$rem
MAX_SCF_CYCLES=200
BASIS  =  6-311++G(d,p)
GUI  =  2
JOB_TYPE  =  SP
METHOD  =  B3LYP
SOLVENT_METHOD = COSMO
$end
$solvent
dielectric 37.219
opticaldielectric 1.43
$end

--------------------------------------------------------------

             Standard Nuclear Orientation (Angstroms)
    I     Atom           X                Y                Z
 ----------------------------------------------------------------
    1      C      -1.1718268455    -1.8633488818    -0.0008600982
    2      C      -2.4886292198    -1.4282138675    -0.0006034144
    3      C      -2.7708759890    -0.0510432648     0.0001149724
    4      C      -0.1266366778    -0.9358427851    -0.0004922953
    5      C      -0.4070867130     0.4358109443    -0.0000192930
    6      C      -1.7278975836     0.8802980617     0.0003073719
    7      C       1.2879624719    -1.4144133790    -0.0001590281
    8      C       2.3823653769    -0.3991014726     0.0013666158
    9      C       2.1098632162     0.9305971700    -0.0009360342
   10      C       0.7040681387     1.4338641310    -0.0003651879
   11      O       1.5364863849    -2.6092862868    -0.0009726461
   12      O       0.4629624161     2.6297513368    -0.0003028438
   13      C      -4.1311717970     0.3965133428     0.0006048028
   14      N      -5.2307548894     0.7504201851     0.0010196203
   15      H      -0.9324006145    -2.9192212109    -0.0013478528
   16      H      -3.3041416959    -2.1407325466    -0.0008921262
   17      H      -1.9284156573     1.9439898397     0.0006991298
   18      C       3.7896154680    -0.9263685181     0.0027740544
   19      C       3.1957376743     1.9693844093    -0.0016365429
   20      H       3.7910846267    -2.0139072419     0.0378769115
   21      H       4.3491430694    -0.5435100572     0.8617394996
   22      H       4.3264411553    -0.6049096659    -0.8956685688
   23      H       3.8158493671     1.8845616772     0.8967026882
   24      H       2.7685771167     2.9695572559    -0.0357328233
   25      H       3.8606313290     1.8386949126    -0.8608858219
 ----------------------------------------------------------------

    9    -706.1807560412      4.09e-06  Convergence criterion met
 Total energy in the final basis set =     -706.1807560412
    5    -706.1984600607      6.74e-06  Convergence criterion met
 Total energy in the final basis set =     -706.1984600607

                    Orbital Energies (a.u.)
 --------------------------------------------------------------

 Alpha MOs
 -- Occupied --
-19.1415 -19.1410 -14.3378 -10.2895 -10.2895 -10.2441 -10.2386 -10.2214
-10.2196 -10.2187 -10.2179 -10.2172 -10.2165 -10.2088 -10.1723 -10.1722
 -1.0761  -1.0743  -0.9402  -0.9062  -0.8597  -0.8138  -0.7948  -0.7513
 -0.7170  -0.6957  -0.6551  -0.6330  -0.5987  -0.5748  -0.5484  -0.5174
 -0.5030  -0.4743  -0.4700  -0.4697  -0.4646  -0.4363  -0.4335  -0.4308
 -0.4218  -0.4123  -0.4122  -0.4007  -0.4004  -0.3953  -0.3827  -0.3781
 -0.3680  -0.3633  -0.2983  -0.2982  -0.2911  -0.2815  -0.2780

          Ground-State Mulliken Net Atomic Charges

     Atom                 Charge (a.u.)
  ----------------------------------------
      1 C                     0.051732
      2 C                    -0.648332
      3 C                     1.560360
      4 C                     0.172308
      5 C                    -0.065944
      6 C                     0.217639
      7 C                    -0.568936
      8 C                     0.361748
      9 C                     0.883320
     10 C                    -0.717422
     11 O                    -0.288819
     12 O                    -0.283544
     13 C                    -1.464343
     14 N                    -0.256481
     15 H                     0.207127
     16 H                     0.255097
     17 H                     0.228408
     18 C                    -0.428058
     19 C                    -0.373624
     20 H                     0.202877
     21 H                     0.184874
     22 H                     0.191738
     23 H                     0.192541
     24 H                     0.200050
     25 H                     0.185687
  ----------------------------------------
  Sum of atomic charges =     0.000000

                    Cartesian Multipole Moments
 -----------------------------------------------------------------
    Charge (ESU x 10^10)
                -0.0000
    Dipole Moment (Debye)
         X       5.8029      Y      -1.8582      Z       0.0002
       Tot       6.0931
    Quadrupole Moments (Debye-Ang)
        XX    -110.2900     XY      16.5973     YY    -104.9483
        XZ       0.0117     YZ       0.0141     ZZ     -91.7005

 Total job time:  41.87s(wall), 312.94s(cpu)
        *  Thank you very much for using Q-Chem.  Have a nice day.  *
