 Q-Chem 5.4, Q-Chem, Inc., Pleasanton, CA (2021)
 Q-Chem 5.4.0 for Intel X86 EM64T Linux

User input:
--------------------------------------------------------------
$molecule
-1 2
C                  4.0245770000      2.6059620000     -0.4359410000
C                  3.5542100000      1.2271720000     -0.4941440000
C                  3.0873660000      0.5828770000      0.6320820000
C                  3.0175480000      1.2443400000      1.9252280000
C                  3.5281090000      2.6061320000      1.9904730000
C                  4.0047690000      3.2501450000      0.8712210000
O                  4.4337820000      3.2229430000     -1.4627980000
O                  2.5382740000      0.6653150000      2.9452240000
C                  5.7333490000      4.8591740000      0.6215670000
C                  4.1596790000      2.7445940000      4.2759190000
H                  5.8617250000      5.9346690000      0.7654620000
H                  5.9278320000      4.5921320000     -0.4187930000
H                  6.4309480000      4.3259200000      1.2831040000
H                  3.9926340000      3.4184060000      5.1196690000
H                  5.2369150000      2.7050020000      4.0601080000
C                  2.5796730000     -0.8486830000      0.5973800000
C                  1.0924460000     -0.9224230000      0.3583550000
C                  0.4118210000     -1.6537990000     -0.5360240000
C                 -1.1001890000     -1.5673680000     -0.5970660000
C                 -1.8318340000     -2.8679040000     -0.1752530000
C                 -3.3251590000     -2.7012640000     -0.1536720000
C                 -4.2544850000     -3.2822220000     -0.9262770000
C                 -5.7194740000     -2.9359120000     -0.7478360000
C                 -6.3211230000     -2.1077810000     -1.9114560000
C                 -7.7874550000     -1.8355680000     -1.7224350000
C                 -8.4056750000     -0.6598910000     -1.5465810000
C                 -9.9026270000     -0.5930660000     -1.3593900000
C                  1.0473040000     -2.5936800000     -1.5338690000
C                 -3.9553640000     -4.2982030000     -2.0025150000
C                 -7.7160850000      0.6809910000     -1.5163530000
H                  2.7746370000     -1.2819490000      1.5851920000
H                  3.1313620000     -1.4340380000     -0.1409010000
H                  0.5206740000     -0.2801150000      1.0253010000
H                 -1.4179710000     -1.3155630000     -1.6188550000
H                 -1.4392610000     -0.7493030000      0.0459730000
H                 -1.4876170000     -3.1330910000      0.8323630000
H                 -1.5345920000     -3.6889990000     -0.8311720000
H                 -3.6820980000     -1.9862560000      0.5884390000
H                 -5.8522020000     -2.3735770000      0.1809850000
H                 -6.3046930000     -3.8602720000     -0.6409410000
H                 -6.1863670000     -2.6598620000     -2.8497800000
H                 -5.7491960000     -1.1831930000     -2.0143960000
H                 -8.4135110000     -2.7285620000     -1.7138150000
H                -10.3597910000     -1.5845870000     -1.3875580000
H                -10.3697130000      0.0207600000     -2.1395070000
H                  2.1324690000     -2.4984770000     -1.5615110000
H                  0.6676180000     -2.3991410000     -2.5450980000
H                  0.8154100000     -3.6421570000     -1.3077290000
H                 -2.8960760000     -4.5445870000     -2.0672090000
H                 -4.2703080000     -3.9397320000     -2.9889350000
H                 -4.5075150000     -5.2279350000     -1.8165130000
H                 -6.6352460000      0.6132250000     -1.6326660000
H                 -7.9201750000      1.1954630000     -0.5698730000
H                 -8.1010910000      1.3302140000     -2.3121180000
H                -10.1583760000     -0.1258820000     -0.4004890000
O                  3.4500980000      3.3057840000      3.1751520000
O                  4.3853650000      4.5700900000      0.9804850000
C                  3.5927270000      0.5592460000     -1.8479400000
H                  3.7901240000      1.7450060000      4.5119720000
H                  4.3044980000     -0.2765390000     -1.8699510000
H                  3.9050430000      1.2887840000     -2.5957310000
H                  2.6137360000      0.1579860000     -2.1300660000
$end
$rem
MAX_SCF_CYCLES=200
BASIS  =  6-311++G(d,p)
GUI  =  2
JOB_TYPE  =  SP
METHOD  =  B3LYP
THRESH = 14
SCF_ALGORITHM = DIIS_GDM
SOLVENT_METHOD = PCM
$end
$pcm
theory = CPCM
$end
$solvent
dielectric 37.219
opticaldielectric 1.43
$end

--------------------------------------------------------------

             Standard Nuclear Orientation (Angstroms)
    I     Atom           X                Y                Z
 ----------------------------------------------------------------
    1      C       4.0245770000     2.6059620000    -0.4359410000
    2      C       3.5542100000     1.2271720000    -0.4941440000
    3      C       3.0873660000     0.5828770000     0.6320820000
    4      C       3.0175480000     1.2443400000     1.9252280000
    5      C       3.5281090000     2.6061320000     1.9904730000
    6      C       4.0047690000     3.2501450000     0.8712210000
    7      O       4.4337820000     3.2229430000    -1.4627980000
    8      O       2.5382740000     0.6653150000     2.9452240000
    9      C       5.7333490000     4.8591740000     0.6215670000
   10      C       4.1596790000     2.7445940000     4.2759190000
   11      H       5.8617250000     5.9346690000     0.7654620000
   12      H       5.9278320000     4.5921320000    -0.4187930000
   13      H       6.4309480000     4.3259200000     1.2831040000
   14      H       3.9926340000     3.4184060000     5.1196690000
   15      H       5.2369150000     2.7050020000     4.0601080000
   16      C       2.5796730000    -0.8486830000     0.5973800000
   17      C       1.0924460000    -0.9224230000     0.3583550000
   18      C       0.4118210000    -1.6537990000    -0.5360240000
   19      C      -1.1001890000    -1.5673680000    -0.5970660000
   20      C      -1.8318340000    -2.8679040000    -0.1752530000
   21      C      -3.3251590000    -2.7012640000    -0.1536720000
   22      C      -4.2544850000    -3.2822220000    -0.9262770000
   23      C      -5.7194740000    -2.9359120000    -0.7478360000
   24      C      -6.3211230000    -2.1077810000    -1.9114560000
   25      C      -7.7874550000    -1.8355680000    -1.7224350000
   26      C      -8.4056750000    -0.6598910000    -1.5465810000
   27      C      -9.9026270000    -0.5930660000    -1.3593900000
   28      C       1.0473040000    -2.5936800000    -1.5338690000
   29      C      -3.9553640000    -4.2982030000    -2.0025150000
   30      C      -7.7160850000     0.6809910000    -1.5163530000
   31      H       2.7746370000    -1.2819490000     1.5851920000
   32      H       3.1313620000    -1.4340380000    -0.1409010000
   33      H       0.5206740000    -0.2801150000     1.0253010000
   34      H      -1.4179710000    -1.3155630000    -1.6188550000
   35      H      -1.4392610000    -0.7493030000     0.0459730000
   36      H      -1.4876170000    -3.1330910000     0.8323630000
   37      H      -1.5345920000    -3.6889990000    -0.8311720000
   38      H      -3.6820980000    -1.9862560000     0.5884390000
   39      H      -5.8522020000    -2.3735770000     0.1809850000
   40      H      -6.3046930000    -3.8602720000    -0.6409410000
   41      H      -6.1863670000    -2.6598620000    -2.8497800000
   42      H      -5.7491960000    -1.1831930000    -2.0143960000
   43      H      -8.4135110000    -2.7285620000    -1.7138150000
   44      H     -10.3597910000    -1.5845870000    -1.3875580000
   45      H     -10.3697130000     0.0207600000    -2.1395070000
   46      H       2.1324690000    -2.4984770000    -1.5615110000
   47      H       0.6676180000    -2.3991410000    -2.5450980000
   48      H       0.8154100000    -3.6421570000    -1.3077290000
   49      H      -2.8960760000    -4.5445870000    -2.0672090000
   50      H      -4.2703080000    -3.9397320000    -2.9889350000
   51      H      -4.5075150000    -5.2279350000    -1.8165130000
   52      H      -6.6352460000     0.6132250000    -1.6326660000
   53      H      -7.9201750000     1.1954630000    -0.5698730000
   54      H      -8.1010910000     1.3302140000    -2.3121180000
   55      H     -10.1583760000    -0.1258820000    -0.4004890000
   56      O       3.4500980000     3.3057840000     3.1751520000
   57      O       4.3853650000     4.5700900000     0.9804850000
   58      C       3.5927270000     0.5592460000    -1.8479400000
   59      H       3.7901240000     1.7450060000     4.5119720000
   60      H       4.3044980000    -0.2765390000    -1.8699510000
   61      H       3.9050430000     1.2887840000    -2.5957310000
   62      H       2.6137360000     0.1579860000    -2.1300660000
 ----------------------------------------------------------------

   16   -1236.3377279916      3.19e-06  Convergence criterion met
 Total energy in the final basis set =    -1236.3377279916

                    Orbital Energies (a.u.)
 --------------------------------------------------------------

 Alpha MOs
 -- Occupied --
-19.1358 -19.1354 -19.0761 -19.0757 -10.2193 -10.2188 -10.2137 -10.2131
-10.2024 -10.2024 -10.1731 -10.1711 -10.1684 -10.1666 -10.1643 -10.1629
-10.1626 -10.1621 -10.1616 -10.1599 -10.1566 -10.1564 -10.1562 -10.1562
-10.1562 -10.1560 -10.1551 -10.1500  -1.0604  -1.0416  -0.9963  -0.9938
 -0.8306  -0.8238  -0.8130  -0.8021  -0.7749  -0.7586  -0.7385  -0.7227
 -0.7031  -0.6967  -0.6876  -0.6822  -0.6755  -0.6642  -0.6427  -0.6361
 -0.6122  -0.5883  -0.5618  -0.5584  -0.5198  -0.5172  -0.5124  -0.5050
 -0.4948  -0.4854  -0.4743  -0.4660  -0.4649  -0.4554  -0.4450  -0.4437
 -0.4392  -0.4365  -0.4354  -0.4278  -0.4266  -0.4154  -0.4134  -0.4088
 -0.4086  -0.4063  -0.3993  -0.3929  -0.3872  -0.3808  -0.3801  -0.3785
 -0.3696  -0.3685  -0.3678  -0.3649  -0.3641  -0.3615  -0.3567  -0.3552
 -0.3519  -0.3503  -0.3408  -0.3346  -0.3297  -0.3247  -0.3231  -0.3100
 -0.2991  -0.2820  -0.2654  -0.2460  -0.2419  -0.2399  -0.2308  -0.2243
 -0.2196  -0.1582

 Beta MOs
 -- Occupied --
-19.1356 -19.1353 -19.0694 -19.0692 -10.2175 -10.2170 -10.2127 -10.2121
-10.2024 -10.2024 -10.1731 -10.1711 -10.1684 -10.1655 -10.1633 -10.1629
-10.1626 -10.1621 -10.1616 -10.1600 -10.1566 -10.1564 -10.1562 -10.1562
-10.1562 -10.1559 -10.1551 -10.1501  -1.0594  -1.0405  -0.9851  -0.9826
 -0.8275  -0.8227  -0.8122  -0.8017  -0.7736  -0.7581  -0.7375  -0.7214
 -0.7008  -0.6952  -0.6876  -0.6822  -0.6752  -0.6625  -0.6367  -0.6351
 -0.6117  -0.5880  -0.5590  -0.5551  -0.5192  -0.5168  -0.5122  -0.5047
 -0.4927  -0.4838  -0.4741  -0.4650  -0.4624  -0.4550  -0.4446  -0.4423
 -0.4366  -0.4356  -0.4344  -0.4278  -0.4255  -0.4140  -0.4105  -0.4074
 -0.4061  -0.4021  -0.3989  -0.3905  -0.3858  -0.3801  -0.3789  -0.3706
 -0.3690  -0.3680  -0.3653  -0.3640  -0.3613  -0.3555  -0.3524  -0.3513
 -0.3472  -0.3439  -0.3390  -0.3323  -0.3295  -0.3242  -0.3229  -0.3099
 -0.2942  -0.2798  -0.2466  -0.2409  -0.2366  -0.2343  -0.2287  -0.2230
 -0.2138

          Ground-State Mulliken Net Atomic Charges

     Atom                 Charge (a.u.)    Spin (a.u.)
  --------------------------------------------------------
      1 C                    -0.707891       0.100888
      2 C                     0.669509       0.083770
      3 C                     0.894115       0.070062
      4 C                    -0.429915       0.107795
      5 C                     0.015896       0.071115
      6 C                    -0.431389       0.063143
      7 O                    -0.508989       0.240208
      8 O                    -0.482027       0.234814
      9 C                    -0.306285       0.003208
     10 C                    -0.298182       0.002784
     11 H                     0.166754       0.000526
     12 H                     0.171901      -0.000602
     13 H                     0.136039       0.000007
     14 H                     0.163608       0.000216
     15 H                     0.138999       0.000044
     16 C                     0.113711       0.012738
     17 C                    -0.735817       0.002059
     18 C                     0.908839       0.001683
     19 C                    -0.819615      -0.001412
     20 C                    -0.250527       0.000708
     21 C                    -0.211933       0.000106
     22 C                     0.611042      -0.000529
     23 C                    -0.727168       0.000287
     24 C                    -0.195274       0.000000
     25 C                    -0.008876       0.000014
     26 C                     0.283215      -0.000001
     27 C                    -0.645942      -0.000000
     28 C                    -0.832597      -0.002825
     29 C                    -0.763123      -0.000092
     30 C                    -0.719110       0.000002
     31 H                     0.215595       0.002159
     32 H                     0.190097      -0.000256
     33 H                     0.236260      -0.002884
     34 H                     0.181757       0.000285
     35 H                     0.126620       0.000015
     36 H                     0.170014       0.000010
     37 H                     0.159567       0.000367
     38 H                     0.193862       0.000028
     39 H                     0.183086      -0.000000
     40 H                     0.139032      -0.000003
     41 H                     0.136190      -0.000001
     42 H                     0.164336      -0.000019
     43 H                     0.205730      -0.000000
     44 H                     0.156959       0.000000
     45 H                     0.153433       0.000000
     46 H                     0.115593       0.000066
     47 H                     0.170254       0.000094
     48 H                     0.177320      -0.000129
     49 H                     0.129187      -0.000037
     50 H                     0.176809      -0.000005
     51 H                     0.168872       0.000004
     52 H                     0.143661       0.000001
     53 H                     0.154431      -0.000000
     54 H                     0.152128      -0.000000
     55 H                     0.157016       0.000000
     56 O                    -0.229516       0.000574
     57 O                    -0.222415       0.000630
     58 C                    -0.606485       0.002434
     59 H                     0.169655      -0.000534
     60 H                     0.181312       0.004661
     61 H                     0.176904      -0.001973
     62 H                     0.173772       0.003796
  --------------------------------------------------------
  Sum of atomic charges =    -1.000000

                    Cartesian Multipole Moments
 -----------------------------------------------------------------
    Charge (ESU x 10^10)
                -4.8032
    Dipole Moment (Debye)
         X     -14.3007      Y     -12.0860      Z      -4.6646
       Tot      19.2961
    Quadrupole Moments (Debye-Ang)
        XX    -215.2043     XY     -41.8026     YY    -215.7453
        XZ       1.8940     YZ       5.5136     ZZ    -200.8728

 Total job time:  841.41s(wall), 5833.02s(cpu)
        *  Thank you very much for using Q-Chem.  Have a nice day.  *
