 Q-Chem 5.4, Q-Chem, Inc., Pleasanton, CA (2021)
 Q-Chem 5.4.0 for Intel X86 EM64T Linux

User input:
--------------------------------------------------------------
$molecule
-2 1
C                 -1.8205550000      3.1486690000      0.2394700000
C                 -2.9562640000      2.4430860000     -0.1046570000
C                 -2.8598810000      1.0713360000     -0.4645710000
C                 -0.5324940000      2.5441270000      0.2492250000
C                 -0.4323010000      1.1432220000     -0.1275940000
C                 -1.6143480000      0.4590710000     -0.4701020000
C                  0.6286540000      3.2854810000      0.6133630000
C                  1.8477930000      2.5650390000      0.5733350000
C                  1.9960390000      1.2170570000      0.2176430000
C                  0.8493590000      0.4360120000     -0.1552720000
O                  0.6723440000      4.5536730000      0.9695140000
O                  0.9341650000     -0.8048080000     -0.4834010000
H                 -1.8730600000      4.1972060000      0.5182180000
H                 -3.9274630000      2.9375020000     -0.0999540000
H                 -3.7527840000      0.5098800000     -0.7342140000
H                 -1.5031460000     -0.5866180000     -0.7431940000
C                  3.3480780000      0.5551780000      0.2449730000
O                  2.9360610000      3.3416610000      0.9337410000
C                  4.0990820000      0.6170060000     -1.1022050000
H                  3.2016540000     -0.5001120000      0.5043570000
H                  3.9755360000      1.0214690000      1.0151840000
H                  2.4562370000      4.1944110000      1.1072890000
H                  3.5089070000      0.1252570000     -1.8808780000
H                  5.0801710000      0.1169930000     -1.0430710000
H                  4.2690560000      1.6564540000     -1.4017580000
$end
$rem
MAX_SCF_CYCLES=200
BASIS  =  6-311++G(d,p)
GUI  =  2
JOB_TYPE  =  SP
METHOD  =  B3LYP
SOLVENT_METHOD = PCM
$end
$pcm
theory = CPCM
$end
$solvent
dielectric 37.219
opticaldielectric 1.43
$end

--------------------------------------------------------------

             Standard Nuclear Orientation (Angstroms)
    I     Atom           X                Y                Z
 ----------------------------------------------------------------
    1      C      -1.8205550000     3.1486690000     0.2394700000
    2      C      -2.9562640000     2.4430860000    -0.1046570000
    3      C      -2.8598810000     1.0713360000    -0.4645710000
    4      C      -0.5324940000     2.5441270000     0.2492250000
    5      C      -0.4323010000     1.1432220000    -0.1275940000
    6      C      -1.6143480000     0.4590710000    -0.4701020000
    7      C       0.6286540000     3.2854810000     0.6133630000
    8      C       1.8477930000     2.5650390000     0.5733350000
    9      C       1.9960390000     1.2170570000     0.2176430000
   10      C       0.8493590000     0.4360120000    -0.1552720000
   11      O       0.6723440000     4.5536730000     0.9695140000
   12      O       0.9341650000    -0.8048080000    -0.4834010000
   13      H      -1.8730600000     4.1972060000     0.5182180000
   14      H      -3.9274630000     2.9375020000    -0.0999540000
   15      H      -3.7527840000     0.5098800000    -0.7342140000
   16      H      -1.5031460000    -0.5866180000    -0.7431940000
   17      C       3.3480780000     0.5551780000     0.2449730000
   18      O       2.9360610000     3.3416610000     0.9337410000
   19      C       4.0990820000     0.6170060000    -1.1022050000
   20      H       3.2016540000    -0.5001120000     0.5043570000
   21      H       3.9755360000     1.0214690000     1.0151840000
   22      H       2.4562370000     4.1944110000     1.1072890000
   23      H       3.5089070000     0.1252570000    -1.8808780000
   24      H       5.0801710000     0.1169930000    -1.0430710000
   25      H       4.2690560000     1.6564540000    -1.4017580000
 ----------------------------------------------------------------

    9    -689.4258960741      4.17e-06  Convergence criterion met
 Total energy in the final basis set =     -689.4258960741

                    Orbital Energies (a.u.)
 --------------------------------------------------------------

 Alpha MOs
 -- Occupied --
-19.1111 -19.0290 -19.0218 -10.1779 -10.1757 -10.1624 -10.1491 -10.1454
-10.1450 -10.1446 -10.1436 -10.1427 -10.1392 -10.1347 -10.1259  -1.0233
 -0.9395  -0.9264  -0.8236  -0.7768  -0.7398  -0.7222  -0.6898  -0.6414
 -0.6080  -0.5805  -0.5551  -0.5339  -0.5021  -0.4707  -0.4493  -0.4321
 -0.4259  -0.4100  -0.4015  -0.3970  -0.3868  -0.3712  -0.3608  -0.3527
 -0.3512  -0.3482  -0.3375  -0.3217  -0.3134  -0.3080  -0.2983  -0.2964
 -0.2302  -0.2257  -0.2183  -0.2003  -0.1925  -0.1132

          Ground-State Mulliken Net Atomic Charges

     Atom                 Charge (a.u.)
  ----------------------------------------
      1 C                    -0.059851
      2 C                    -0.444829
      3 C                    -0.490706
      4 C                     0.165257
      5 C                     0.427730
      6 C                     0.026677
      7 C                    -0.820824
      8 C                    -0.550051
      9 C                     1.543009
     10 C                    -0.768317
     11 O                    -0.765168
     12 O                    -0.685717
     13 H                     0.152311
     14 H                     0.168306
     15 H                     0.166479
     16 H                     0.145722
     17 C                    -0.249569
     18 O                    -0.364186
     19 C                    -0.620893
     20 H                     0.147011
     21 H                     0.162072
     22 H                     0.287168
     23 H                     0.158483
     24 H                     0.124928
     25 H                     0.144959
  ----------------------------------------
  Sum of atomic charges =    -2.000000

                    Cartesian Multipole Moments
 -----------------------------------------------------------------
    Charge (ESU x 10^10)
                -9.6064
    Dipole Moment (Debye)
         X      -6.7052      Y     -17.9416      Z      -2.0419
       Tot      19.2621
    Quadrupole Moments (Debye-Ang)
        XX    -119.6585     XY     -11.6773     YY    -180.7150
        XZ      -2.4077     YZ     -17.0538     ZZ    -104.5439

 Total job time:  41.98s(wall), 266.09s(cpu)
        *  Thank you very much for using Q-Chem.  Have a nice day.  *
