 Q-Chem 5.4, Q-Chem, Inc., Pleasanton, CA (2021)
 Q-Chem 5.4.0 for Intel X86 EM64T Linux

User input:
--------------------------------------------------------------
$molecule
-1 2
C                  1.8360960000      2.7988550000      1.3929850000
C                  0.4011150000      2.7399800000      1.1929080000
C                 -0.1958440000      1.6428260000      0.6147780000
C                  0.5915160000      0.4976970000      0.1755080000
C                  2.0415800000      0.5602030000      0.3451790000
C                  2.6228840000      1.6701220000      0.9295830000
O                  2.3768040000      3.8058470000      1.9657250000
O                  0.0442780000     -0.5139890000     -0.3456470000
C                 -0.4166070000      3.9208360000      1.6571120000
C                 -1.6879930000      1.5754250000      0.4112410000
C                  2.8268810000     -0.6327070000     -0.1317250000
S                  4.3943210000      1.6488760000      1.2453220000
C                  4.9701230000      3.3250990000      0.7275070000
C                  5.3081890000      4.2724020000      1.8994130000
C                  4.9866500000      5.7266050000      1.5755110000
O                  5.8322000000      6.5844950000      1.4304570000
O                  3.6853850000      6.0051990000      1.4543280000
H                  0.2242160000      4.6436380000      2.1601050000
H                 -1.2088270000      3.6120910000      2.3487900000
H                 -0.9100460000      4.4226760000      0.8155380000
H                 -2.0498960000      2.4140030000     -0.1956860000
H                 -2.2275120000      1.6220230000      1.3654650000
H                 -1.9455520000      0.6416180000     -0.0878760000
H                  2.2234420000     -1.2004670000     -0.8400900000
H                  3.0759300000     -1.3071690000      0.6976430000
H                  3.7713250000     -0.3273530000     -0.5876690000
H                  4.1940160000      3.7353500000      0.0853620000
H                  5.8543870000      3.1595840000      0.1084080000
H                  6.3665800000      4.2112180000      2.1550270000
H                  4.7126310000      3.9750010000      2.7638320000
H                  3.1273750000      5.1912030000      1.6287880000
$end
$rem
MAX_SCF_CYCLES=200
BASIS  =  6-311++G(d,p)
GUI  =  2
JOB_TYPE  =  SP
METHOD  =  B3LYP
SOLVENT_METHOD = COSMO
$end
$solvent
dielectric 37.219
opticaldielectric 1.43
$end

--------------------------------------------------------------

             Standard Nuclear Orientation (Angstroms)
    I     Atom           X                Y                Z
 ----------------------------------------------------------------
    1      C       0.3061436849     0.5985854308    -0.3544459930
    2      C       1.4405534264     1.4860703403    -0.1866585803
    3      C       2.6986011697     0.9958468223     0.0804332061
    4      C       2.9401272080    -0.4355688097     0.2105438917
    5      C       1.7977266804    -1.3363612656     0.0731581637
    6      C       0.5418175832    -0.8252854327    -0.1967610740
    7      O      -0.8508358888     1.0613154548    -0.6402926787
    8      O       4.0956337562    -0.8875217922     0.4453281418
    9      C       1.1937398931     2.9681700279    -0.3317072319
   10      C       3.8814003982     1.9151246679     0.2489356426
   11      C       2.0786149692    -2.8076111588     0.2270895602
   12      S      -0.8100417785    -1.9749728515    -0.4947990896
   13      C      -2.2299313694    -1.2635905303     0.4471417821
   14      C      -3.3070084323    -0.5939069200    -0.4340302385
   15      C      -3.9550503665     0.6003389527     0.2564946679
   16      O      -5.1103649656     0.6157372565     0.6266051742
   17      O      -3.1528193948     1.6535890617     0.4372713601
   18      H       0.1599702103     3.1472953942    -0.6238256201
   19      H       1.8540853059     3.4121050795    -1.0855109628
   20      H       1.3848139666     3.5004877043     0.6083463940
   21      H       3.7141672267     2.6435267521     1.0514384132
   22      H       4.0768068565     2.4920204591    -0.6636448357
   23      H       4.7683783634     1.3276875813     0.4848120720
   24      H       3.0213035437    -2.9399337068     0.7582204409
   25      H       2.1823528714    -3.3007835025    -0.7479976976
   26      H       1.2653307766    -3.3121216049     0.7535290129
   27      H      -1.8067223168    -0.5685421018     1.1688064821
   28      H      -2.6634736415    -2.0945979442     1.0075607193
   29      H      -4.0953578283    -1.3028203218    -0.6894133355
   30      H      -2.8305824593    -0.2418566275    -1.3502375172
   31      H      -2.2437215440     1.4812658668     0.0522431094
 ----------------------------------------------------------------

   11   -1165.1400310860      4.81e-06  Convergence criterion met
 Total energy in the final basis set =    -1165.1400310860
    4   -1165.2163197800      7.12e-06  Convergence criterion met
 Total energy in the final basis set =    -1165.2163197800

                    Orbital Energies (a.u.)
 --------------------------------------------------------------

 Alpha MOs
 -- Occupied --
-88.8438 -19.1564 -19.1165 -19.0856 -19.0837 -10.3089 -10.2320 -10.2234
-10.2031 -10.1949 -10.1806 -10.1788 -10.1714 -10.1707 -10.1531 -10.1529
-10.1527  -7.9298  -5.8936  -5.8899  -5.8838  -1.1032  -1.0246  -1.0082
 -1.0055  -0.8416  -0.8121  -0.7882  -0.7346  -0.7242  -0.7059  -0.6631
 -0.6410  -0.6162  -0.6102  -0.5497  -0.5479  -0.5169  -0.5072  -0.4829
 -0.4676  -0.4530  -0.4464  -0.4401  -0.4295  -0.4137  -0.4131  -0.4104
 -0.4003  -0.3910  -0.3879  -0.3856  -0.3822  -0.3727  -0.3699  -0.3678
 -0.3553  -0.3505  -0.3476  -0.3278  -0.3177  -0.2916  -0.2806  -0.2591
 -0.2526  -0.2437  -0.2196  -0.1678

 Beta MOs
 -- Occupied --
-88.8438 -19.1562 -19.1165 -19.0804 -19.0766 -10.3089 -10.2293 -10.2220
-10.2030 -10.1945 -10.1806 -10.1770 -10.1707 -10.1697 -10.1532 -10.1530
-10.1528  -7.9297  -5.8936  -5.8899  -5.8836  -1.1030  -1.0237  -0.9978
 -0.9943  -0.8367  -0.8109  -0.7868  -0.7318  -0.7218  -0.7039  -0.6603
 -0.6365  -0.6140  -0.6093  -0.5461  -0.5444  -0.5162  -0.5053  -0.4825
 -0.4659  -0.4518  -0.4448  -0.4321  -0.4241  -0.4119  -0.4106  -0.4090
 -0.3924  -0.3897  -0.3871  -0.3849  -0.3733  -0.3699  -0.3681  -0.3553
 -0.3493  -0.3470  -0.3419  -0.3272  -0.3158  -0.2892  -0.2649  -0.2528
 -0.2415  -0.2375  -0.2141

          Ground-State Mulliken Net Atomic Charges

     Atom                 Charge (a.u.)    Spin (a.u.)
  --------------------------------------------------------
      1 C                    -1.100563       0.195676
      2 C                     0.873616       0.039848
      3 C                     0.555733       0.112744
      4 C                    -2.021153       0.058894
      5 C                     0.406349       0.123527
      6 C                     1.311769      -0.003388
      7 O                    -0.468933       0.176763
      8 O                    -0.480912       0.255856
      9 C                    -0.473328       0.007320
     10 C                    -0.513383       0.001381
     11 C                    -0.186408      -0.006332
     12 S                    -0.443595       0.009410
     13 C                    -0.308250      -0.001702
     14 C                    -0.216870      -0.003923
     15 C                    -0.091265       0.002035
     16 O                    -0.399060       0.000684
     17 O                    -0.326406       0.001771
     18 H                     0.177498      -0.000611
     19 H                     0.151130       0.001985
     20 H                     0.169511       0.001453
     21 H                     0.165371       0.004262
     22 H                     0.166164       0.004632
     23 H                     0.184133      -0.001657
     24 H                     0.178610      -0.000842
     25 H                     0.198392       0.008492
     26 H                     0.141642       0.003048
     27 H                     0.212651       0.000016
     28 H                     0.270108       0.000239
     29 H                     0.231699      -0.000542
     30 H                     0.198699       0.004109
     31 H                     0.437052       0.004854
  --------------------------------------------------------
  Sum of atomic charges =    -1.000000

                    Cartesian Multipole Moments
 -----------------------------------------------------------------
    Charge (ESU x 10^10)
                -4.8032
    Dipole Moment (Debye)
         X       0.5111      Y      -0.6021      Z      -0.7408
       Tot       1.0828
    Quadrupole Moments (Debye-Ang)
        XX    -195.1049     XY      25.5003     YY    -119.0302
        XZ       2.7490     YZ      -1.9627     ZZ    -114.6366

 Total job time:  110.05s(wall), 775.01s(cpu)
        *  Thank you very much for using Q-Chem.  Have a nice day.  *
