 Q-Chem 5.4, Q-Chem, Inc., Pleasanton, CA (2021)
 Q-Chem 5.4.0 for Intel X86 EM64T Linux

User input:
--------------------------------------------------------------
$molecule
-1 2
N                  3.1209650000     -1.2440510000      1.3154410000
C                  2.6606130000     -0.5359130000      0.2074570000
C                  3.5841870000     -0.1065770000     -0.7406820000
C                  3.1883840000      0.6605010000     -1.8392270000
C                  1.8689390000      1.0433740000     -2.0085440000
O                  1.5292920000      1.8061570000     -3.1045300000
C                  0.8785310000      0.6369210000     -1.0709280000
C                 -0.5085830000      1.0481910000     -1.2163840000
O                 -0.8750000000      1.8597080000     -2.1302710000
C                 -1.4938480000      0.5164810000     -0.2889540000
C                 -2.8543490000      0.9174910000     -0.4402250000
O                 -3.2363230000      1.7702680000     -1.4162460000
C                 -3.8170980000      0.4251820000      0.4331370000
C                 -3.4644750000     -0.4726050000      1.4391800000
C                 -2.1477030000     -0.8984450000      1.6234220000
N                 -1.8794390000     -1.8506700000      2.6117730000
C                 -1.1261510000     -0.3860060000      0.7615460000
C                  0.2749070000     -0.7284620000      0.9620020000
O                  0.6208980000     -1.4908370000      1.9335180000
C                  1.2737080000     -0.1972880000      0.0401370000
H                  3.9491440000     -1.7961050000      1.1502210000
H                  2.3626800000     -1.6877870000      1.8345440000
H                  4.6318110000     -0.3624110000     -0.6107630000
H                  3.9306290000      0.9745610000     -2.5706400000
H                  2.3431500000      1.9668140000     -3.5936760000
H                 -2.3700870000      1.9814820000     -1.9037850000
H                 -4.8448850000      0.7461020000      0.3039470000
H                 -4.2340930000     -0.8706100000      2.0957710000
H                 -0.8819530000     -1.9305500000      2.8043290000
H                 -2.4838500000     -1.7949170000      3.4184310000
$end

$rem
BASIS  =  6-311++G(d,p)
GUI  =  2
JOB_TYPE  =  SP
METHOD  =  B3LYP
SCF_CONVERGENCE  = 8
SOLVENT_METHOD = sm12
$end

$smx
solvent dimethylformamide
charges CM5
$end

--------------------------------------------------------------

             Standard Nuclear Orientation (Angstroms)
    I     Atom           X                Y                Z
 ----------------------------------------------------------------
    1      N       3.1209650000    -1.2440510000     1.3154410000
    2      C       2.6606130000    -0.5359130000     0.2074570000
    3      C       3.5841870000    -0.1065770000    -0.7406820000
    4      C       3.1883840000     0.6605010000    -1.8392270000
    5      C       1.8689390000     1.0433740000    -2.0085440000
    6      O       1.5292920000     1.8061570000    -3.1045300000
    7      C       0.8785310000     0.6369210000    -1.0709280000
    8      C      -0.5085830000     1.0481910000    -1.2163840000
    9      O      -0.8750000000     1.8597080000    -2.1302710000
   10      C      -1.4938480000     0.5164810000    -0.2889540000
   11      C      -2.8543490000     0.9174910000    -0.4402250000
   12      O      -3.2363230000     1.7702680000    -1.4162460000
   13      C      -3.8170980000     0.4251820000     0.4331370000
   14      C      -3.4644750000    -0.4726050000     1.4391800000
   15      C      -2.1477030000    -0.8984450000     1.6234220000
   16      N      -1.8794390000    -1.8506700000     2.6117730000
   17      C      -1.1261510000    -0.3860060000     0.7615460000
   18      C       0.2749070000    -0.7284620000     0.9620020000
   19      O       0.6208980000    -1.4908370000     1.9335180000
   20      C       1.2737080000    -0.1972880000     0.0401370000
   21      H       3.9491440000    -1.7961050000     1.1502210000
   22      H       2.3626800000    -1.6877870000     1.8345440000
   23      H       4.6318110000    -0.3624110000    -0.6107630000
   24      H       3.9306290000     0.9745610000    -2.5706400000
   25      H       2.3431500000     1.9668140000    -3.5936760000
   26      H      -2.3700870000     1.9814820000    -1.9037850000
   27      H      -4.8448850000     0.7461020000     0.3039470000
   28      H      -4.2340930000    -0.8706100000     2.0957710000
   29      H      -0.8819530000    -1.9305500000     2.8043290000
   30      H      -2.4838500000    -1.7949170000     3.4184310000
 ----------------------------------------------------------------

   17    -950.2668115051      7.53e-09  Convergence criterion met
 Total energy in the final basis set =     -950.3631088366

                    Orbital Energies (a.u.)
 --------------------------------------------------------------

 Alpha MOs
 -- Occupied --
-19.1469 -19.1206 -19.0815 -19.0812 -14.3052 -14.3044 -10.2353 -10.2347
-10.2333 -10.2283 -10.2172 -10.2150 -10.1828 -10.1825 -10.1796 -10.1776
-10.1771 -10.1739 -10.1735 -10.1712  -1.0585  -1.0467  -1.0089  -0.9993
 -0.9151  -0.9092  -0.8490  -0.8324  -0.7893  -0.7494  -0.7349  -0.7210
 -0.6723  -0.6470  -0.6415  -0.5957  -0.5765  -0.5632  -0.5424  -0.5261
 -0.5146  -0.5008  -0.4964  -0.4789  -0.4636  -0.4539  -0.4526  -0.4383
 -0.4370  -0.4227  -0.4106  -0.4102  -0.4017  -0.3981  -0.3934  -0.3816
 -0.3735  -0.3683  -0.3629  -0.3584  -0.3496  -0.3450  -0.2948  -0.2855
 -0.2689  -0.2563  -0.2507  -0.2401  -0.2135  -0.1961  -0.1371

 Beta MOs
 -- Occupied --
-19.1465 -19.1201 -19.0771 -19.0765 -14.3046 -14.3040 -10.2343 -10.2337
-10.2316 -10.2279 -10.2171 -10.2147 -10.1825 -10.1822 -10.1796 -10.1771
-10.1768 -10.1728 -10.1721 -10.1702  -1.0575  -1.0448  -1.0013  -0.9921
 -0.9141  -0.9076  -0.8467  -0.8308  -0.7855  -0.7476  -0.7317  -0.7190
 -0.6663  -0.6450  -0.6393  -0.5946  -0.5750  -0.5610  -0.5414  -0.5254
 -0.5136  -0.4994  -0.4953  -0.4765  -0.4624  -0.4529  -0.4512  -0.4361
 -0.4306  -0.4209  -0.4070  -0.4064  -0.4003  -0.3948  -0.3851  -0.3801
 -0.3710  -0.3610  -0.3571  -0.3543  -0.3475  -0.3334  -0.2869  -0.2807
 -0.2533  -0.2519  -0.2467  -0.2363  -0.2014  -0.1889

          Ground-State Mulliken Net Atomic Charges

     Atom                 Charge (a.u.)    Spin (a.u.)
  --------------------------------------------------------
      1 N                    -0.288994       0.019160
      2 C                    -0.224119       0.008464
      3 C                     1.483945       0.101306
      4 C                     1.822338       0.061150
      5 C                     0.163961       0.046691
      6 O                    -0.174392       0.010804
      7 C                    -0.162970       0.010823
      8 C                    -2.074208       0.083956
      9 O                    -0.353912       0.170335
     10 C                    -0.519225       0.001162
     11 C                    -0.723688       0.046304
     12 O                    -0.365398       0.017004
     13 C                     0.440530       0.072716
     14 C                     1.152099       0.084143
     15 C                    -0.711663       0.026943
     16 N                    -0.235201       0.023344
     17 C                    -1.047226      -0.006134
     18 C                    -1.708765       0.089133
     19 O                    -0.303398       0.157531
     20 C                    -0.449931       0.012303
     21 H                     0.366471      -0.001376
     22 H                     0.291822      -0.002252
     23 H                     0.309545      -0.007775
     24 H                     0.351731      -0.005313
     25 H                     0.363510      -0.000397
     26 H                     0.364211      -0.003750
     27 H                     0.249086      -0.005832
     28 H                     0.325461      -0.006613
     29 H                     0.299066      -0.002497
     30 H                     0.359315      -0.001333
  --------------------------------------------------------
  Sum of atomic charges =    -1.000000

                    Cartesian Multipole Moments
 -----------------------------------------------------------------
    Charge (ESU x 10^10)
                -4.8032
    Dipole Moment (Debye)
         X       5.6277      Y      -2.5239      Z       1.5385
       Tot       6.3567
    Quadrupole Moments (Debye-Ang)
        XX    -128.1079     XY       7.0014     YY    -134.4103
        XZ     -17.8858     YZ       8.4326     ZZ    -128.3550

 Total job time:  959.69s(wall), 7465.91s(cpu)
        *  Thank you very much for using Q-Chem.  Have a nice day.  *
