 Q-Chem 5.4, Q-Chem, Inc., Pleasanton, CA (2021)
 Q-Chem 5.4.0 for Intel X86 EM64T Linux

User input:
--------------------------------------------------------------
$molecule
0 1
C                  4.9907540000     -2.6335900000      0.0698850000
C                  5.7052320000     -1.6995910000     -0.6653780000
C                  5.0685610000     -0.6749410000     -1.3677000000
C                  3.5981980000     -2.5332190000      0.1244280000
C                  2.9424430000     -1.5009570000     -0.5683670000
C                  3.6844640000     -0.5793110000     -1.3133100000
C                  2.8382390000     -3.5396560000      0.9245320000
C                  1.3502850000     -3.4132090000      0.9480940000
C                  0.6912460000     -2.3822230000      0.2565070000
C                  1.4548680000     -1.3670120000     -0.5299910000
C                  0.6095530000     -4.3486750000      1.6750610000
C                 -0.7038380000     -2.2971490000      0.2945150000
C                 -1.4427020000     -3.2238430000      1.0178020000
O                  3.4086930000     -4.4229950000      1.5375910000
O                  0.8861270000     -0.4650270000     -1.1184520000
H                  5.4859540000     -3.4437250000      0.5901150000
H                 -2.5243240000     -3.1808640000      1.0406750000
H                  3.1579320000      0.2016440000     -1.8473330000
H                  1.1241470000     -5.1512380000      2.1881560000
H                 -1.1912450000     -1.5008720000     -0.2538310000
C                 -0.7723060000     -4.2353320000      1.7077230000
S                  7.5057010000     -1.8213810000     -0.7324010000
S                 -1.7328770000     -5.4381670000      2.6518890000
O                 -0.9518770000     -6.6679870000      2.7131530000
O                 -3.0995460000     -5.3925000000      2.1414820000
N                 -1.7559150000     -4.7691720000      4.2016570000
H                 -1.2694670000     -5.3689150000      4.8603150000
H                 -2.7081370000     -4.5730760000      4.4927370000
O                  7.8563980000     -3.2195810000     -0.5128090000
O                  7.9440390000     -1.0695860000     -1.9041690000
N                  7.9930790000     -0.9515720000      0.6299200000
H                  5.6541270000      0.0206830000     -1.9554890000
H                  8.5673280000     -0.1589480000      0.3617580000
H                  8.4625960000     -1.5574430000      1.2952350000
$end

$rem
BASIS  =  6-311++G(d,p)
GUI  =  2
JOB_TYPE  =  SP
METHOD  =  B3LYP
SCF_CONVERGENCE  = 8
SOLVENT_METHOD = sm12
$end

$smx
solvent dimethylformamide
charges CM5
$end

--------------------------------------------------------------

             Standard Nuclear Orientation (Angstroms)
    I     Atom           X                Y                Z
 ----------------------------------------------------------------
    1      C       4.9907540000    -2.6335900000     0.0698850000
    2      C       5.7052320000    -1.6995910000    -0.6653780000
    3      C       5.0685610000    -0.6749410000    -1.3677000000
    4      C       3.5981980000    -2.5332190000     0.1244280000
    5      C       2.9424430000    -1.5009570000    -0.5683670000
    6      C       3.6844640000    -0.5793110000    -1.3133100000
    7      C       2.8382390000    -3.5396560000     0.9245320000
    8      C       1.3502850000    -3.4132090000     0.9480940000
    9      C       0.6912460000    -2.3822230000     0.2565070000
   10      C       1.4548680000    -1.3670120000    -0.5299910000
   11      C       0.6095530000    -4.3486750000     1.6750610000
   12      C      -0.7038380000    -2.2971490000     0.2945150000
   13      C      -1.4427020000    -3.2238430000     1.0178020000
   14      O       3.4086930000    -4.4229950000     1.5375910000
   15      O       0.8861270000    -0.4650270000    -1.1184520000
   16      H       5.4859540000    -3.4437250000     0.5901150000
   17      H      -2.5243240000    -3.1808640000     1.0406750000
   18      H       3.1579320000     0.2016440000    -1.8473330000
   19      H       1.1241470000    -5.1512380000     2.1881560000
   20      H      -1.1912450000    -1.5008720000    -0.2538310000
   21      C      -0.7723060000    -4.2353320000     1.7077230000
   22      S       7.5057010000    -1.8213810000    -0.7324010000
   23      S      -1.7328770000    -5.4381670000     2.6518890000
   24      O      -0.9518770000    -6.6679870000     2.7131530000
   25      O      -3.0995460000    -5.3925000000     2.1414820000
   26      N      -1.7559150000    -4.7691720000     4.2016570000
   27      H      -1.2694670000    -5.3689150000     4.8603150000
   28      H      -2.7081370000    -4.5730760000     4.4927370000
   29      O       7.8563980000    -3.2195810000    -0.5128090000
   30      O       7.9440390000    -1.0695860000    -1.9041690000
   31      N       7.9930790000    -0.9515720000     0.6299200000
   32      H       5.6541270000     0.0206830000    -1.9554890000
   33      H       8.5673280000    -0.1589480000     0.3617580000
   34      H       8.4625960000    -1.5574430000     1.2952350000
 ----------------------------------------------------------------

   15   -1896.9757476965      8.53e-09  Convergence criterion met
 Total energy in the final basis set =    -1897.0197503148

                    Orbital Energies (a.u.)
 --------------------------------------------------------------

 Alpha MOs
 -- Occupied --
-89.0824 -89.0823 -19.1422 -19.1415 -19.1343 -19.1342 -19.1342 -19.1341
-14.3474 -14.3473 -10.2945 -10.2943 -10.2394 -10.2394 -10.2260 -10.2259
-10.2254 -10.2254 -10.2197 -10.2197 -10.2189 -10.2189 -10.2127 -10.2127
 -8.1439  -8.1439  -6.1068  -6.1067  -6.1063  -6.1062  -6.1048  -6.1048
 -1.1400  -1.1399  -1.0780  -1.0761  -1.0324  -1.0323  -0.9180  -0.9168
 -0.9122  -0.9040  -0.8381  -0.8041  -0.7997  -0.7944  -0.7242  -0.7001
 -0.6972  -0.6510  -0.6482  -0.6271  -0.6030  -0.5777  -0.5738  -0.5380
 -0.5372  -0.5353  -0.5343  -0.5216  -0.5166  -0.5164  -0.5032  -0.4757
 -0.4737  -0.4694  -0.4692  -0.4661  -0.4654  -0.4587  -0.4585  -0.4362
 -0.4308  -0.4212  -0.4135  -0.3953  -0.3899  -0.3875  -0.3735  -0.3732
 -0.3460  -0.3459  -0.3365  -0.3353  -0.3313  -0.3312  -0.3200  -0.3193
 -0.2984  -0.2971  -0.2956  -0.2884  -0.2866  -0.2854

          Ground-State Mulliken Net Atomic Charges

     Atom                 Charge (a.u.)
  ----------------------------------------
      1 C                    -0.280712
      2 C                    -0.566900
      3 C                     0.006748
      4 C                    -0.176004
      5 C                     0.587451
      6 C                     0.416804
      7 C                    -1.129562
      8 C                    -0.170496
      9 C                     0.585226
     10 C                    -0.708949
     11 C                    -0.279001
     12 C                     0.415973
     13 C                     0.007658
     14 O                    -0.269614
     15 O                    -0.230735
     16 H                     0.219543
     17 H                     0.326621
     18 H                     0.251497
     19 H                     0.219716
     20 H                     0.251391
     21 C                    -0.575738
     22 S                     0.322359
     23 S                     0.316578
     24 O                    -0.292081
     25 O                    -0.266900
     26 N                    -0.143710
     27 H                     0.382102
     28 H                     0.389464
     29 O                    -0.292547
     30 O                    -0.268643
     31 N                    -0.145417
     32 H                     0.326454
     33 H                     0.389405
     34 H                     0.382022
  ----------------------------------------
  Sum of atomic charges =     0.000000

                    Cartesian Multipole Moments
 -----------------------------------------------------------------
    Charge (ESU x 10^10)
                 0.0000
    Dipole Moment (Debye)
         X      -0.5344      Y       5.5198      Z       4.4420
       Tot       7.1052
    Quadrupole Moments (Debye-Ang)
        XX    -156.3038     XY      21.5583     YY    -199.7848
        XZ      14.0084     YZ      -8.6242     ZZ    -136.8587

 Total job time:  1073.70s(wall), 8341.85s(cpu)
        *  Thank you very much for using Q-Chem.  Have a nice day.  *
