 Gaussian 16, Revision A.03,
 Gaussian 16:  ES64L-G16RevA.03 25-Dec-2016

 ----------------------------------------------------------------
 #P UB3LYP/6-311++G(d,p) SCRF=(PCM,Solvent=n,n-DiMethylFormamide)
 ----------------------------------------------------------------

 -------
 Reduced
 -------
 Symbolic Z-matrix:
 Charge = -2 Multiplicity = 1

                         Standard orientation:
 ---------------------------------------------------------------------
 Center     Atomic      Atomic             Coordinates (Angstroms)
 Number     Number       Type             X           Y           Z
 ---------------------------------------------------------------------
      1          6           0        0.877703    1.214782   -0.117842
      2          6           0       -0.285663    2.026414    0.065162
      3          6           0       -1.579970    1.517678    0.149543
      4          6           0       -1.879270    0.120855    0.067704
      5          6           0       -0.721941   -0.727212   -0.087496
      6          6           0        0.573475   -0.195756   -0.173218
      7          8           0        2.076311    1.699831   -0.237587
      8          8           0       -3.088146   -0.350893    0.137477
      9          6           0       -0.958301   -2.215069   -0.152133
     10          8           0        1.617606   -1.103127   -0.418354
     11          6           0        2.649005   -1.095876    0.559672
     12          1           0       -0.115123    3.102704    0.112277
     13          1           0       -2.426149    2.193063    0.282047
     14          1           0       -1.831482   -2.464416    0.461149
     15          1           0       -0.081017   -2.780726    0.178095
     16          1           0       -1.195383   -2.554549   -1.173656
     17          1           0        3.410246   -1.815291    0.231911
     18          1           0        2.262564   -1.427542    1.539419
     19          1           0        3.079940   -0.094632    0.648120
 ---------------------------------------------------------------------

 SCF Done:  E(UB3LYP) =  -535.703896984     A.U. after   17 cycles

 The electronic state is 1-A.
 Alpha  occ. eigenvalues --  -19.10686 -19.00723 -19.00716 -10.18747 -10.16752
 Alpha  occ. eigenvalues --  -10.16041 -10.15897 -10.13338 -10.12249 -10.11426
 Alpha  occ. eigenvalues --  -10.11199  -1.01519  -0.91897  -0.91622  -0.77374
 Alpha  occ. eigenvalues --   -0.71994  -0.68171  -0.63060  -0.62182  -0.53872
 Alpha  occ. eigenvalues --   -0.51911  -0.46015  -0.44309  -0.43079  -0.41031
 Alpha  occ. eigenvalues --   -0.40240  -0.38436  -0.37024  -0.36155  -0.34652
 Alpha  occ. eigenvalues --   -0.33775  -0.32649  -0.31513  -0.30693  -0.29930
 Alpha  occ. eigenvalues --   -0.25740  -0.21633  -0.19360  -0.18687  -0.18413
 Alpha  occ. eigenvalues --   -0.10921
 Alpha virt. eigenvalues --    0.00168   0.01435   0.01570   0.02847   0.03492
 Alpha virt. eigenvalues --    0.03687   0.04338   0.05088   0.05500   0.06556
 Alpha virt. eigenvalues --    0.06612   0.07652   0.08607   0.09121   0.09693

  Beta  occ. eigenvalues --  -19.10686 -19.00723 -19.00716 -10.18747 -10.16752
  Beta  occ. eigenvalues --  -10.16041 -10.15897 -10.13338 -10.12249 -10.11426
  Beta  occ. eigenvalues --  -10.11199  -1.01519  -0.91897  -0.91622  -0.77374
  Beta  occ. eigenvalues --   -0.71994  -0.68171  -0.63060  -0.62182  -0.53872
  Beta  occ. eigenvalues --   -0.51911  -0.46015  -0.44309  -0.43079  -0.41031
  Beta  occ. eigenvalues --   -0.40240  -0.38436  -0.37024  -0.36155  -0.34652
  Beta  occ. eigenvalues --   -0.33775  -0.32649  -0.31513  -0.30693  -0.29930
  Beta  occ. eigenvalues --   -0.25740  -0.21633  -0.19360  -0.18687  -0.18413
  Beta  occ. eigenvalues --   -0.10921
  Beta virt. eigenvalues --    0.00168   0.01435   0.01570   0.02847   0.03492
  Beta virt. eigenvalues --    0.03687   0.04338   0.05088   0.05500   0.06556
  Beta virt. eigenvalues --    0.06612   0.07652   0.08607   0.09121   0.09693

 Mulliken charges and spin densities:
               1          2
     1  C   -0.014385  -0.000000
     2  C   -0.144702   0.000000
     3  C    0.127913  -0.000000
     4  C   -1.200661   0.000000
     5  C    1.770290  -0.000000
     6  C   -1.339911  -0.000000
     7  O   -0.737264   0.000000
     8  O   -0.732326  -0.000000
     9  C   -0.300535   0.000000
    10  O   -0.237967   0.000000
    11  C   -0.267865   0.000000
    12  H    0.125764   0.000000
    13  H    0.117605  -0.000000
    14  H    0.137371   0.000000
    15  H    0.141917   0.000000
    16  H    0.142859  -0.000000
    17  H    0.132678   0.000000
    18  H    0.105669  -0.000000
    19  H    0.173550  -0.000000
 Sum of Mulliken charges =  -2.00000  -0.00000

 Dipole moment (field-independent basis, Debye):
    X=              4.9928    Y=             -5.5852    Z=              1.6267  Tot=              7.6660
 Quadrupole moment (field-independent basis, Debye-Ang):
   XX=           -129.2880   YY=            -90.8142   ZZ=            -75.7226
   XY=            -16.5434   XZ=              6.5090   YZ=              0.1297

 Normal termination of Gaussian 16 at Wed Jan 24 22:49:41 2024.
