 Gaussian 16, Revision A.03,
 Gaussian 16:  ES64L-G16RevA.03 25-Dec-2016

 --------------------------------------
 #P UB3LYP/6-311++G(d,p) nosym opt freq
 --------------------------------------

 -------
 Reduced
 -------
 Symbolic Z-matrix:
 Charge = -2 Multiplicity = 1

 SCF Done:  E(UB3LYP) =  -1379.46443624     A.U. after   19 cycles
 Optimization completed.
    -- Stationary point found.
 Normal termination of Gaussian 16 at Sat Jan  6 05:46:35 2024.

 ----------------------------------------------------------------------
 #P Geom=AllCheck Guess=TCheck SCRF=Check GenChk UB3LYP/6-311++G(d,p) F
 req
 ----------------------------------------------------------------------

 Structure from the checkpoint file:  "017-an.chk"
 -------
 Reduced
 -------
 Charge = -2 Multiplicity = 1

                          Input orientation:
 ---------------------------------------------------------------------
 Center     Atomic      Atomic             Coordinates (Angstroms)
 Number     Number       Type             X           Y           Z
 ---------------------------------------------------------------------
      1          6           0        2.525333   -0.892736   -0.134074
      2          6           0        1.217292   -0.156290   -0.000095
      3          6           0        1.149273    1.204167    0.319388
      4         17           0        2.717135    2.089607    0.576212
      5          6           0       -0.024250    2.014994    0.475192
      6          8           0       -0.039252    3.261246    0.769054
      7          6           0       -1.178104    1.193470    0.246085
      8          6           0       -1.213361   -0.167476   -0.076658
      9          6           0       -2.503578   -0.915855   -0.292516
     10          6           0        0.010959   -0.910974   -0.214975
     11          8           0        0.026237   -2.181569   -0.514252
     12         17           0       -2.767094    2.064451    0.403367
     13          1           0        3.114452   -0.869421    0.794493
     14          1           0        2.291896   -1.929787   -0.387380
     15          1           0        3.167950   -0.463128   -0.916489
     16          1           0       -3.150801   -0.896928    0.596603
     17          1           0       -3.098873   -0.492802   -1.114941
     18          1           0       -2.245214   -1.950969   -0.529014
 ---------------------------------------------------------------------

 SCF Done:  E(UB3LYP) =  -1379.46443624     A.U. after    2 cycles

 Alpha  occ. eigenvalues -- -101.27294-101.27294 -18.75188 -18.75107  -9.92762
 Alpha  occ. eigenvalues --   -9.92758  -9.92566  -9.91538  -9.90239  -9.90238
 Alpha  occ. eigenvalues --   -9.88595  -9.88594  -9.18713  -9.18713  -6.95078
 Alpha  occ. eigenvalues --   -6.95078  -6.94280  -6.94280  -6.94205  -6.94204
 Alpha  occ. eigenvalues --   -0.67484  -0.66357  -0.57999  -0.57534  -0.51464
 Alpha  occ. eigenvalues --   -0.48835  -0.44890  -0.38186  -0.37413  -0.27758
 Alpha  occ. eigenvalues --   -0.26937  -0.21546  -0.17417  -0.16234  -0.15281
 Alpha  occ. eigenvalues --   -0.14812  -0.13449  -0.12467  -0.11408  -0.10526
 Alpha  occ. eigenvalues --   -0.09411  -0.07355  -0.07164  -0.06886  -0.05506
 Alpha  occ. eigenvalues --   -0.03940  -0.03346  -0.03263   0.03977   0.05186
 Alpha  occ. eigenvalues --    0.06398   0.06843   0.14161
 Alpha virt. eigenvalues --    0.18549   0.18888   0.21732   0.21887   0.22444
 Alpha virt. eigenvalues --    0.22461   0.23555   0.24755   0.26001   0.27357
 Alpha virt. eigenvalues --    0.27373   0.28069   0.28526   0.29794   0.29990

  Beta  occ. eigenvalues -- -101.27294-101.27294 -18.75188 -18.75107  -9.92762
  Beta  occ. eigenvalues --   -9.92758  -9.92566  -9.91538  -9.90239  -9.90238
  Beta  occ. eigenvalues --   -9.88595  -9.88594  -9.18713  -9.18713  -6.95078
  Beta  occ. eigenvalues --   -6.95078  -6.94280  -6.94280  -6.94205  -6.94204
  Beta  occ. eigenvalues --   -0.67484  -0.66357  -0.57999  -0.57534  -0.51464
  Beta  occ. eigenvalues --   -0.48835  -0.44890  -0.38186  -0.37413  -0.27758
  Beta  occ. eigenvalues --   -0.26937  -0.21546  -0.17417  -0.16234  -0.15281
  Beta  occ. eigenvalues --   -0.14812  -0.13449  -0.12467  -0.11408  -0.10526
  Beta  occ. eigenvalues --   -0.09411  -0.07355  -0.07164  -0.06886  -0.05506
  Beta  occ. eigenvalues --   -0.03940  -0.03346  -0.03263   0.03977   0.05186
  Beta  occ. eigenvalues --    0.06398   0.06843   0.14161
  Beta virt. eigenvalues --    0.18549   0.18888   0.21732   0.21887   0.22444
  Beta virt. eigenvalues --    0.22461   0.23555   0.24755   0.26001   0.27357
  Beta virt. eigenvalues --    0.27373   0.28069   0.28526   0.29794   0.29990

 Mulliken charges and spin densities:
               1          2
     1  C   -0.818437  -0.000000
     2  C    0.953047  -0.000000
     3  C    0.314364  -0.000000
     4  Cl   0.249229   0.000000
     5  C   -1.533906   0.000000
     6  O   -0.452583   0.000000
     7  C    0.314466   0.000000
     8  C    0.953003  -0.000000
     9  C   -0.818478  -0.000000
    10  C   -1.537656   0.000000
    11  O   -0.555186  -0.000000
    12  Cl   0.249204   0.000000
    13  H    0.084191   0.000000
    14  H    0.172994  -0.000000
    15  H    0.084279   0.000000
    16  H    0.084202   0.000000
    17  H    0.084273   0.000000
    18  H    0.172995  -0.000000
 Sum of Mulliken charges =  -2.00000   0.00000

 Dipole moment (field-independent basis, Debye):
    X=              0.0935    Y=             -7.7538    Z=             -1.8293  Tot=              7.9672
 Quadrupole moment (field-independent basis, Debye-Ang):
   XX=           -124.7895   YY=           -157.0508   ZZ=            -97.2957
   XY=              0.6195   XZ=             -0.8000   YZ=            -14.9303

  Exact polarizability: 225.647  -0.385 183.454   3.567  18.109 110.962
 Approx polarizability: 314.614  -0.918 288.681   4.815  32.656 158.050

                      1                      2                      3
                      A                      A                      A
 Frequencies --     85.5668                86.5258                87.9205
 Red. masses --      1.6764                 2.5668                 5.4677
 Frc consts  --      0.0072                 0.0113                 0.0249
 IR Inten    --      9.0425                 1.5120                 3.4841

                      4                      5                      6
                      A                      A                      A
 Frequencies --    119.9866               135.2482               178.4344
 Red. masses --      1.1711                 2.1386                 6.2251
 Frc consts  --      0.0099                 0.0230                 0.1168
 IR Inten    --      0.0010                 0.1665                 1.4117

                      7                      8                      9
                      A                      A                      A
 Frequencies --    199.7256               245.9402               292.9312
 Red. masses --     23.0953                 8.1156                10.9221
 Frc consts  --      0.5428                 0.2892                 0.5522
 IR Inten    --      3.0826                 3.1847                 6.1358

                     10                     11                     12
                      A                      A                      A
 Frequencies --    294.7789               308.3972               316.2731
 Red. masses --      3.2295                 5.4208                 9.0222
 Frc consts  --      0.1653                 0.3038                 0.5317
 IR Inten    --      4.3134                 0.0000                 1.7094

                     13                     14                     15
                      A                      A                      A
 Frequencies --    348.2895               359.7328               398.8801
 Red. masses --      7.8271                 4.5742                 7.2274
 Frc consts  --      0.5594                 0.3488                 0.6775
 IR Inten    --      0.0000                 0.6482                 9.2891

                     16                     17                     18
                      A                      A                      A
 Frequencies --    485.8193               517.6711               585.6789
 Red. masses --     11.5448                 6.4158                 5.0868
 Frc consts  --      1.6054                 1.0130                 1.0281
 IR Inten    --      0.3141                 0.0001                15.5632

                     19                     20                     21
                      A                      A                      A
 Frequencies --    661.7910               692.5526               705.5410
 Red. masses --      8.9937                 4.8918                 8.9124
 Frc consts  --      2.3208                 1.3824                 2.6139
 IR Inten    --     73.2618                12.2893                 2.7968

                     22                     23                     24
                      A                      A                      A
 Frequencies --    736.7895               838.2835               969.1880
 Red. masses --      7.3644                 5.5526                 2.1439
 Frc consts  --      2.3555                 2.2990                 1.1865
 IR Inten    --      0.0012               152.9716                49.8848

                     25                     26                     27
                      A                      A                      A
 Frequencies --    976.4976              1023.7887              1038.5103
 Red. masses --      5.8826                 1.8155                 1.4338
 Frc consts  --      3.3049                 1.1212                 0.9111
 IR Inten    --     51.6122                 0.3661                 0.4991

                     28                     29                     30
                      A                      A                      A
 Frequencies --   1047.5522              1090.2354              1132.4370
 Red. masses --      1.4093                 4.3117                 6.3411
 Frc consts  --      0.9112                 3.0195                 4.7912
 IR Inten    --      0.0009                30.3840               277.4261

                     31                     32                     33
                      A                      A                      A
 Frequencies --   1240.1685              1339.6105              1340.6366
 Red. masses --      4.1620                 2.8523                 2.3012
 Frc consts  --      3.7715                 3.0158                 2.4368
 IR Inten    --      7.6018                 2.9817               158.7771

                     34                     35                     36
                      A                      A                      A
 Frequencies --   1370.2026              1400.2238              1446.3593
 Red. masses --      1.6418                 2.5921                 6.4952
 Frc consts  --      1.8161                 2.9944                 8.0056
 IR Inten    --      1.5105                48.4611               806.2510

                     37                     38                     39
                      A                      A                      A
 Frequencies --   1455.3219              1474.2905              1481.4967
 Red. masses --      3.4847                 1.1232                 1.3725
 Frc consts  --      4.3485                 1.4383                 1.7749
 IR Inten    --     96.9654               132.9543                 0.2780

                     40                     41                     42
                      A                      A                      A
 Frequencies --   1489.8776              1490.9713              1589.1436
 Red. masses --      1.0519                 1.0513                10.1814
 Frc consts  --      1.3757                 1.3769                15.1490
 IR Inten    --      1.0531                 0.0038                10.5775

                     43                     44                     45
                      A                      A                      A
 Frequencies --   2953.2135              2955.9485              2970.2347
 Red. masses --      1.0397                 1.0399                 1.0986
 Frc consts  --      5.3428                 5.3533                 5.7107
 IR Inten    --    483.6656                26.9957               302.2567

                     46                     47                     48
                      A                      A                      A
 Frequencies --   2971.0404              3074.9659              3076.0187
 Red. masses --      1.0983                 1.0938                 1.0936
 Frc consts  --      5.7121                 6.0934                 6.0968
 IR Inten    --      0.3078                 0.1777                21.6600

 - Thermochemistry -
 -------------------
 Temperature   298.150 Kelvin.  Pressure   1.00000 Atm.
 Atom     1 has atomic number  6 and mass  12.00000

 Molecular mass:   203.97448 amu.
 Principal axes and moments of inertia in atomic units:
                           1         2         3
     Eigenvalues --  1991.539012854.828494824.08678
           X            0.99949  -0.01168  -0.02960
           Y            0.00457   0.97324  -0.22976
           Z            0.03149   0.22951   0.97280
 This molecule is an asymmetric top.
 Rotational symmetry number  1.
 Warning -- assumption of classical behavior for rotation
           may cause significant error
 Rotational temperatures (Kelvin)      0.04349     0.03034     0.01795
 Rotational constants (GHZ):           0.90620     0.63217     0.37411
 Zero-point vibrational energy     305530.4 (Joules/Mol)
                                   73.02351 (Kcal/Mol)
 Warning -- explicit consideration of  18 degrees of freedom as
           vibrations may cause significant error
 Vibrational temperatures:    123.11   124.49   126.50   172.63   194.59
          (Kelvin)            256.73   287.36   353.85   421.46   424.12
                              443.71   455.05   501.11   517.58   573.90
                              698.99   744.81   842.66   952.17   996.43
                             1015.12  1060.08  1206.10  1394.45  1404.96
                             1473.00  1494.18  1507.19  1568.61  1629.32
                             1784.33  1927.40  1928.88  1971.42  2014.61
                             2080.99  2093.88  2121.18  2131.54  2143.60
                             2145.18  2286.42  4249.02  4252.95  4273.51
                             4274.66  4424.19  4425.70

 Zero-point correction=                           0.116370 (Hartree/Particle)
 Thermal correction to Energy=                    0.128637
 Thermal correction to Enthalpy=                  0.129581
 Thermal correction to Gibbs Free Energy=         0.077420
 Sum of electronic and zero-point Energies=          -1379.348066
 Sum of electronic and thermal Energies=             -1379.335800
 Sum of electronic and thermal Enthalpies=           -1379.334855
 Sum of electronic and thermal Free Energies=        -1379.387016

                     E (Thermal)             CV                S
                      KCal/Mol        Cal/Mol-Kelvin    Cal/Mol-Kelvin
 Total                   80.721             43.502            109.782
 Electronic               0.000              0.000              0.000
 Translational            0.889              2.981             41.843
 Rotational               0.889              2.981             31.684
 Vibrational             78.943             37.540             36.255
 Vibration     1          0.601              1.959              3.759
 Vibration     2          0.601              1.959              3.737
 Vibration     3          0.601              1.958              3.706
 Vibration     4          0.609              1.933              3.101
 Vibration     5          0.613              1.918              2.870
 Vibration     6          0.629              1.869              2.345
 Vibration     7          0.638              1.840              2.136
 Vibration     8          0.660              1.769              1.759
 Vibration     9          0.688              1.687              1.457
 Vibration    10          0.689              1.683              1.446
 Vibration    11          0.698              1.658              1.371
 Vibration    12          0.703              1.643              1.329
 Vibration    13          0.726              1.579              1.174
 Vibration    14          0.734              1.555              1.123
 Vibration    15          0.765              1.473              0.967
 Vibration    16          0.842              1.281              0.695
 Vibration    17          0.873              1.211              0.615
 Vibration    18          0.943              1.062              0.475

 Optimization completed.
    -- Stationary point found.
 Normal termination of Gaussian 16 at Sat Jan  6 05:54:33 2024.
