 Q-Chem 5.4, Q-Chem, Inc., Pleasanton, CA (2021)
 Q-Chem 5.4.0 for Intel X86 EM64T Linux

User input:
--------------------------------------------------------------
$molecule
-2 1
C                  2.5253330000     -0.8927360000     -0.1340740000
C                  1.2172920000     -0.1562900000     -0.0000950000
C                  1.1492730000      1.2041670000      0.3193880000
Cl                 2.7171350000      2.0896070000      0.5762120000
C                 -0.0242500000      2.0149940000      0.4751920000
O                 -0.0392520000      3.2612460000      0.7690540000
C                 -1.1781040000      1.1934700000      0.2460850000
C                 -1.2133610000     -0.1674760000     -0.0766580000
C                 -2.5035780000     -0.9158550000     -0.2925160000
C                  0.0109590000     -0.9109740000     -0.2149750000
O                  0.0262370000     -2.1815690000     -0.5142520000
Cl                -2.7670940000      2.0644510000      0.4033670000
H                  3.1144520000     -0.8694210000      0.7944930000
H                  2.2918960000     -1.9297870000     -0.3873800000
H                  3.1679500000     -0.4631280000     -0.9164890000
H                 -3.1508010000     -0.8969280000      0.5966030000
H                 -3.0988730000     -0.4928020000     -1.1149410000
H                 -2.2452140000     -1.9509690000     -0.5290140000
$end
$rem
MAX_SCF_CYCLES=200
BASIS  =  6-311++G(d,p)
GUI  =  2
JOB_TYPE  =  SP
METHOD  =  B3LYP
SOLVENT_METHOD = COSMO
$end
$solvent
dielectric 37.219
opticaldielectric 1.43
$end

--------------------------------------------------------------

             Standard Nuclear Orientation (Angstroms)
    I     Atom           X                Y                Z
 ----------------------------------------------------------------
    1      C       2.5157719546     1.7280806071     0.0000562773
    2      C       1.2159781443     0.9653156565     0.0002040575
    3      C       1.1642718853    -0.4328494370    -0.0000294953
    4      Cl      2.7434741141    -1.3352208307    -0.0000214539
    5      C      -0.0000448249    -1.2714423896    -0.0000416411
    6      O      -0.0000896948    -2.5519594649    -0.0000209617
    7      C      -1.1642837725    -0.4328015695    -0.0000723613
    8      C      -1.2159061087     0.9653812490     0.0001630233
    9      C      -2.5156874942     1.7282010431     0.0000125924
   10      C       0.0000402623     1.7350271112     0.0001367266
   11      O       0.0000792189     3.0404816981    -0.0002010174
   12      Cl     -2.7435356302    -1.3351309521    -0.0000001021
   13      H       3.1339426819     1.4991614390    -0.8804563150
   14      H       2.2697368576     2.7927856081     0.0012936595
   15      H       3.1353858507     1.4970435631     0.8789154120
   16      H      -3.1344949800     1.4981641532    -0.8797309862
   17      H      -3.1346486175     1.4982659252     0.8796430988
   18      H      -2.2696324894     2.7929081276    -0.0000976603
 ----------------------------------------------------------------

   11   -1379.4644924148      3.94e-06  Convergence criterion met
 Total energy in the final basis set =    -1379.4644924148
    5   -1379.7488867947      9.24e-06  Convergence criterion met
 Total energy in the final basis set =    -1379.7488867947

                    Orbital Energies (a.u.)
 --------------------------------------------------------------

 Alpha MOs
 -- Occupied --
********-101.5262 -19.0322 -19.0227 -10.1950 -10.1895 -10.1895 -10.1797
-10.1458 -10.1458 -10.1404 -10.1403  -9.4406  -9.4406  -7.2044  -7.2043
 -7.1962  -7.1961  -7.1954  -7.1953  -0.9544  -0.9352  -0.8401  -0.8313
 -0.7729  -0.7382  -0.7004  -0.6342  -0.6327  -0.5336  -0.5301  -0.4750
 -0.4327  -0.4104  -0.3993  -0.3918  -0.3869  -0.3786  -0.3727  -0.3651
 -0.3622  -0.3325  -0.3260  -0.3258  -0.3209  -0.3001  -0.2959  -0.2875
 -0.2337  -0.2165  -0.2067  -0.2045  -0.1312

          Ground-State Mulliken Net Atomic Charges

     Atom                 Charge (a.u.)
  ----------------------------------------
      1 C                    -0.694443
      2 C                     0.582503
      3 C                     0.100282
      4 Cl                    0.283327
      5 C                    -1.045810
      6 O                    -0.638254
      7 C                     0.099606
      8 C                     0.582721
      9 C                    -0.694394
     10 C                    -1.064068
     11 O                    -0.726370
     12 Cl                    0.283522
     13 H                     0.150271
     14 H                     0.165479
     15 H                     0.150043
     16 H                     0.150123
     17 H                     0.150136
     18 H                     0.165328
  ----------------------------------------
  Sum of atomic charges =    -2.000000

                    Cartesian Multipole Moments
 -----------------------------------------------------------------
    Charge (ESU x 10^10)
                -9.6064
    Dipole Moment (Debye)
         X      -0.0000      Y       1.1901      Z       0.0004
       Tot       1.1901
    Quadrupole Moments (Debye-Ang)
        XX    -109.3622     XY      -0.0014     YY    -156.5235
        XZ      -0.0024     YZ       0.0056     ZZ     -92.2471

 Total job time:  25.55s(wall), 190.62s(cpu)
        *  Thank you very much for using Q-Chem.  Have a nice day.  *
