 Q-Chem 5.4, Q-Chem, Inc., Pleasanton, CA (2021)
 Q-Chem 5.4.0 for Intel X86 EM64T Linux

User input:
--------------------------------------------------------------
$molecule
-3 1
C                 -5.0345220000     -0.0749040000     -3.9597650000
C                 -4.4804180000     -0.0554460000     -5.2313560000
C                 -3.0753550000     -0.0122730000     -5.3788690000
C                 -4.2406670000     -0.0501120000     -2.7938950000
C                 -2.8184940000      0.0274410000     -2.9444750000
C                 -2.2741180000      0.0280930000     -4.2500400000
C                 -4.9088440000     -0.0936820000     -1.4686350000
C                 -3.9964250000     -0.0333610000     -0.3410720000
C                 -2.6201000000      0.0443790000     -0.5095160000
C                 -1.9439490000      0.0833940000     -1.7736810000
O                 -6.1631680000     -0.1670680000     -1.3868770000
O                 -0.6684710000      0.1525560000     -1.8742440000
S                 -4.6213820000     -0.0651990000      1.3949260000
O                 -5.4956440000      1.1342050000      1.5738170000
O                 -5.3416110000     -1.3614990000      1.5851270000
O                 -3.3902260000      0.0148370000      2.2538200000
H                 -6.1097350000     -0.1131420000     -3.8168150000
H                 -5.1168180000     -0.0761500000     -6.1157540000
H                 -2.6343090000     -0.0073450000     -6.3758280000
H                 -1.1922220000      0.0651090000     -4.3307480000
H                 -2.0014300000      0.0821360000      0.3798270000
$end

$rem
BASIS  =  6-311++G(d,p)
GUI  =  2
JOB_TYPE  =  SP
METHOD  =  B3LYP
SCF_CONVERGENCE  = 8
SOLVENT_METHOD = sm12
$end

$smx
solvent dimethylformamide
charges CM5
$end

--------------------------------------------------------------

             Standard Nuclear Orientation (Angstroms)
    I     Atom           X                Y                Z
 ----------------------------------------------------------------
    1      C      -5.0345220000    -0.0749040000    -3.9597650000
    2      C      -4.4804180000    -0.0554460000    -5.2313560000
    3      C      -3.0753550000    -0.0122730000    -5.3788690000
    4      C      -4.2406670000    -0.0501120000    -2.7938950000
    5      C      -2.8184940000     0.0274410000    -2.9444750000
    6      C      -2.2741180000     0.0280930000    -4.2500400000
    7      C      -4.9088440000    -0.0936820000    -1.4686350000
    8      C      -3.9964250000    -0.0333610000    -0.3410720000
    9      C      -2.6201000000     0.0443790000    -0.5095160000
   10      C      -1.9439490000     0.0833940000    -1.7736810000
   11      O      -6.1631680000    -0.1670680000    -1.3868770000
   12      O      -0.6684710000     0.1525560000    -1.8742440000
   13      S      -4.6213820000    -0.0651990000     1.3949260000
   14      O      -5.4956440000     1.1342050000     1.5738170000
   15      O      -5.3416110000    -1.3614990000     1.5851270000
   16      O      -3.3902260000     0.0148370000     2.2538200000
   17      H      -6.1097350000    -0.1131420000    -3.8168150000
   18      H      -5.1168180000    -0.0761500000    -6.1157540000
   19      H      -2.6343090000    -0.0073450000    -6.3758280000
   20      H      -1.1922220000     0.0651090000    -4.3307480000
   21      H      -2.0014300000     0.0821360000     0.3798270000
 ----------------------------------------------------------------

   27   -1158.3968306607      8.76e-09  Convergence criterion met
 Total energy in the final basis set =    -1158.9723833455

                    Orbital Energies (a.u.)
 --------------------------------------------------------------

 Alpha MOs
 -- Occupied --
-89.0079 -19.0530 -19.0527 -19.0526 -19.0238 -19.0230 -10.1907 -10.1814
-10.1799 -10.1776 -10.1742 -10.1736 -10.1558 -10.1551 -10.1507 -10.1336
 -8.0662  -6.0292  -6.0290  -6.0277  -1.0643  -0.9522  -0.9416  -0.9289
 -0.9265  -0.8494  -0.7799  -0.7457  -0.7290  -0.6503  -0.6188  -0.6025
 -0.5612  -0.5366  -0.4932  -0.4823  -0.4517  -0.4440  -0.4269  -0.4217
 -0.4132  -0.4056  -0.3963  -0.3887  -0.3707  -0.3620  -0.3431  -0.3373
 -0.3277  -0.3237  -0.2947  -0.2922  -0.2655  -0.2609  -0.2515  -0.2508
 -0.2388  -0.2248  -0.2140  -0.2007  -0.1939  -0.1156

          Ground-State Mulliken Net Atomic Charges

     Atom                 Charge (a.u.)
  ----------------------------------------
      1 C                     0.306400
      2 C                     2.394275
      3 C                     2.654774
      4 C                    -0.950578
      5 C                    -2.158915
      6 C                     0.968154
      7 C                    -2.286400
      8 C                    -2.561141
      9 C                    -1.170737
     10 C                    -1.002938
     11 O                    -0.227702
     12 O                    -0.278294
     13 S                     1.067772
     14 O                    -0.242207
     15 O                    -0.240001
     16 O                    -0.352085
     17 H                     0.086352
     18 H                     0.485220
     19 H                     0.506408
     20 H                     0.109224
     21 H                    -0.107581
  ----------------------------------------
  Sum of atomic charges =    -3.000000

                    Cartesian Multipole Moments
 -----------------------------------------------------------------
    Charge (ESU x 10^10)
               -14.4096
    Dipole Moment (Debye)
         X      55.3942      Y       0.4391      Z       8.9706
       Tot      56.1176
    Quadrupole Moments (Debye-Ang)
        XX    -393.5099     XY      -4.4586     YY    -123.8076
        XZ     -13.0735     YZ       0.4223     ZZ    -200.1703

 Total job time:  566.63s(wall), 4291.30s(cpu)
        *  Thank you very much for using Q-Chem.  Have a nice day.  *
