 Gaussian 16, Revision A.03,
 Gaussian 16:  ES64L-G16RevA.03 25-Dec-2016

 ----------------------------------------------------------------
 #P UB3LYP/6-311++G(d,p) SCRF=(PCM,Solvent=n,n-DiMethylFormamide)
 ----------------------------------------------------------------

 ------------------
 Radical PCM in DMF
 ------------------
 Symbolic Z-matrix:
 Charge = -2 Multiplicity = 2

                         Standard orientation:
 ---------------------------------------------------------------------
 Center     Atomic      Atomic             Coordinates (Angstroms)
 Number     Number       Type             X           Y           Z
 ---------------------------------------------------------------------
      1          6           0       -3.756429   -1.675341   -0.003816
      2          6           0       -5.074989   -1.260307    0.011298
      3          6           0       -5.374975    0.123279    0.026945
      4          6           0       -2.690598   -0.749313   -0.002444
      5          6           0       -2.993434    0.643653    0.012541
      6          6           0       -4.349186    1.047075    0.027041
      7          6           0       -1.311761   -1.246594   -0.016896
      8          6           0       -1.937995    1.646433    0.006577
      9          6           0       -0.244202   -0.252274   -0.003277
     10          6           0       -0.556951    1.146830   -0.009982
     11          6           0        1.147467   -0.657426   -0.009088
     12          6           0        2.153797    0.337469   -0.049940
     13          6           0        1.804755    1.688793   -0.071123
     14          6           0        0.481915    2.093853   -0.045158
     15          8           0       -1.110376   -2.501024   -0.045617
     16          8           0       -2.204741    2.880277    0.011039
     17          7           0        1.476594   -1.978033    0.034251
     18          1           0       -3.495043   -2.727520   -0.016126
     19          1           0       -5.878656   -1.992416    0.011528
     20          1           0       -6.410352    0.455497    0.038562
     21          1           0       -4.545612    2.113684    0.037510
     22         16           0        3.935208   -0.069035    0.023655
     23          1           0        2.608263    2.414939   -0.117551
     24          1           0        0.696718   -2.620405   -0.068454
     25          1           0        2.428803   -2.211862   -0.229741
     26          1           0        0.210756    3.141934   -0.057897
     27          8           0        4.087753   -1.334953   -0.768809
     28          8           0        4.629217    1.094939   -0.592128
     29          8           0        4.260792   -0.256717    1.463999
 ---------------------------------------------------------------------

 SCF Done:  E(UB3LYP) =  -1367.94420379     A.U. after   20 cycles

 The electronic state is 2-A.
 Alpha  occ. eigenvalues --  -89.04146 -19.08685 -19.08661 -19.08561 -19.07739
 Alpha  occ. eigenvalues --  -19.07156 -14.30026 -10.22819 -10.22478 -10.21951
 Alpha  occ. eigenvalues --  -10.18085 -10.17378 -10.17220 -10.17155 -10.17150
 Alpha  occ. eigenvalues --  -10.17128 -10.17117 -10.16997 -10.16822 -10.16809
 Alpha  occ. eigenvalues --  -10.15519  -8.10016  -6.06304  -6.06282  -6.06171
 Alpha  occ. eigenvalues --   -1.10320  -1.00319  -0.99548  -0.96863  -0.96621
 Alpha  occ. eigenvalues --   -0.91546  -0.85570  -0.83645  -0.78468  -0.74857
 Alpha  occ. eigenvalues --   -0.74280  -0.72743  -0.66852  -0.64428  -0.62491
 Alpha  occ. eigenvalues --   -0.59607  -0.57585  -0.55706  -0.54514  -0.51925
 Alpha  occ. eigenvalues --   -0.49832  -0.48298  -0.47663  -0.46689  -0.45272
 Alpha  occ. eigenvalues --   -0.44696  -0.44137  -0.43593  -0.42263  -0.42166
 Alpha  occ. eigenvalues --   -0.41870  -0.41088  -0.39916  -0.38396  -0.38249
 Alpha  occ. eigenvalues --   -0.37493  -0.35986  -0.35064  -0.34476  -0.33385
 Alpha  occ. eigenvalues --   -0.33150  -0.32943  -0.30866  -0.29779  -0.29261
 Alpha  occ. eigenvalues --   -0.28490  -0.26432  -0.25490  -0.25289  -0.24578
 Alpha  occ. eigenvalues --   -0.24475  -0.23519  -0.20775  -0.13861
 Alpha virt. eigenvalues --   -0.04686  -0.02265  -0.00034   0.00577   0.00835
 Alpha virt. eigenvalues --    0.01411   0.02306   0.02609   0.04292   0.04333
 Alpha virt. eigenvalues --    0.04464   0.04713   0.04876   0.05384   0.06237

  Beta  occ. eigenvalues --  -89.04148 -19.08680 -19.08661 -19.08549 -19.07267
  Beta  occ. eigenvalues --  -19.06596 -14.30018 -10.22649 -10.22492 -10.21755
  Beta  occ. eigenvalues --  -10.17966 -10.17367 -10.17189 -10.17088 -10.17073
  Beta  occ. eigenvalues --  -10.17062 -10.17039 -10.16938 -10.16835 -10.16790
  Beta  occ. eigenvalues --  -10.15474  -8.10017  -6.06305  -6.06283  -6.06176
  Beta  occ. eigenvalues --   -1.10311  -0.99500  -0.98550  -0.96858  -0.96601
  Beta  occ. eigenvalues --   -0.91485  -0.85337  -0.83483  -0.78087  -0.74638
  Beta  occ. eigenvalues --   -0.74082  -0.72542  -0.66209  -0.64222  -0.62265
  Beta  occ. eigenvalues --   -0.59517  -0.57496  -0.55500  -0.54320  -0.51823
  Beta  occ. eigenvalues --   -0.49714  -0.48194  -0.47470  -0.46472  -0.45234
  Beta  occ. eigenvalues --   -0.44660  -0.44055  -0.43489  -0.42176  -0.41767
  Beta  occ. eigenvalues --   -0.41127  -0.40624  -0.39676  -0.38113  -0.37641
  Beta  occ. eigenvalues --   -0.35893  -0.35604  -0.34928  -0.33575  -0.33253
  Beta  occ. eigenvalues --   -0.33085  -0.32912  -0.30345  -0.29457  -0.29200
  Beta  occ. eigenvalues --   -0.28408  -0.25264  -0.24842  -0.24560  -0.24121
  Beta  occ. eigenvalues --   -0.23994  -0.23040  -0.20006
  Beta virt. eigenvalues --   -0.08232  -0.03723  -0.01227  -0.00020   0.00833
  Beta virt. eigenvalues --    0.00866   0.01421   0.02319   0.02607   0.04315
  Beta virt. eigenvalues --    0.04371   0.04507   0.04722   0.05524   0.05564

 Mulliken charges and spin densities:
               1          2
     1  C    0.128853   0.013628
     2  C   -0.534243   0.050883
     3  C   -0.444637   0.022455
     4  C    0.166704   0.038363
     5  C    0.075524   0.018660
     6  C    0.057541   0.042956
     7  C   -0.450033   0.094965
     8  C   -0.499287   0.114599
     9  C    0.217079   0.002347
    10  C    0.520511   0.055116
    11  C    0.422366   0.003487
    12  C   -1.175674   0.071305
    13  C   -0.209341   0.038250
    14  C   -0.122258   0.058676
    15  O   -0.449481   0.172930
    16  O   -0.463892   0.209788
    17  N   -0.451185   0.005773
    18  H    0.166183  -0.000207
    19  H    0.181222  -0.003980
    20  H    0.181694  -0.001982
    21  H    0.160926  -0.002561
    22  S    0.691729  -0.001579
    23  H    0.211894  -0.002923
    24  H    0.345648  -0.002195
    25  H    0.280355  -0.000827
    26  H    0.155689  -0.003978
    27  O   -0.444693   0.002769
    28  O   -0.368590   0.000039
    29  O   -0.350605   0.003241
 Sum of Mulliken charges =  -2.00000   1.00000

 Dipole moment (field-independent basis, Debye):
    X=            -15.0352    Y=             -1.7623    Z=             -0.7939  Tot=             15.1589
 Quadrupole moment (field-independent basis, Debye-Ang):
   XX=           -248.8245   YY=           -168.9179   ZZ=           -146.5623
   XY=             11.2525   XZ=             -2.1105   YZ=              1.1468

 Normal termination of Gaussian 16 at Sun Jan 14 01:40:43 2024.
