 Gaussian 16, Revision A.03,
 Gaussian 16:  ES64L-G16RevA.03 25-Dec-2016

 ----------------------------------------------------------------------
 #P UB3LYP/6-311++G(d,p) nosym opt freq SCRF=(PCM,Solvent=n,n-DiMethylF
 ormamide)
 ----------------------------------------------------------------------

 -------
 Radical
 -------
 Symbolic Z-matrix:
 Charge = -1 Multiplicity = 2

 SCF Done:  E(UB3LYP) =  -799.848889400     A.U. after   19 cycles
 SCF Done:  E(UB3LYP) =  -799.849573225     A.U. after   16 cycles
 SCF Done:  E(UB3LYP) =  -799.850117844     A.U. after   16 cycles
 SCF Done:  E(UB3LYP) =  -799.850409665     A.U. after   15 cycles
 SCF Done:  E(UB3LYP) =  -799.850603602     A.U. after   16 cycles
 SCF Done:  E(UB3LYP) =  -799.850764937     A.U. after   14 cycles
 SCF Done:  E(UB3LYP) =  -799.850872725     A.U. after   14 cycles
 SCF Done:  E(UB3LYP) =  -799.850901414     A.U. after   13 cycles
 SCF Done:  E(UB3LYP) =  -799.850923250     A.U. after   13 cycles
 SCF Done:  E(UB3LYP) =  -799.850951060     A.U. after   14 cycles
 SCF Done:  E(UB3LYP) =  -799.851000736     A.U. after   13 cycles
 SCF Done:  E(UB3LYP) =  -799.851038953     A.U. after   16 cycles
 SCF Done:  E(UB3LYP) =  -799.851055988     A.U. after   15 cycles
 SCF Done:  E(UB3LYP) =  -799.851066723     A.U. after   15 cycles
 SCF Done:  E(UB3LYP) =  -799.851101805     A.U. after   15 cycles
 SCF Done:  E(UB3LYP) =  -799.851102412     A.U. after   11 cycles
 SCF Done:  E(UB3LYP) =  -799.851102913     A.U. after    9 cycles
 SCF Done:  E(UB3LYP) =  -799.851085840     A.U. after   14 cycles
 SCF Done:  E(UB3LYP) =  -799.851105238     A.U. after   14 cycles
 Optimization completed.
    -- Stationary point found.
 Normal termination of Gaussian 16 at Sat Feb 10 18:10:19 2024.

 ----------------------------------------------------------------------
 #P Geom=AllCheck Guess=TCheck SCRF=Check GenChk UB3LYP/6-311++G(d,p) F
 req
 ----------------------------------------------------------------------

 Structure from the checkpoint file:  "165-rad.chk"
 -------
 Radical
 -------
 Charge = -1 Multiplicity = 2

                          Input orientation:
 ---------------------------------------------------------------------
 Center     Atomic      Atomic             Coordinates (Angstroms)
 Number     Number       Type             X           Y           Z
 ---------------------------------------------------------------------
      1          7           0       -4.489226    0.003306    0.071418
      2          6           0       -3.125662   -0.355081    0.178010
      3          6           0       -2.758452   -1.588635    0.736630
      4          6           0       -1.431453   -1.922316    0.922906
      5          6           0       -0.403555   -1.046050    0.530052
      6          6           0        0.980159   -1.467237    0.732207
      7          8           0        1.266087   -2.581131    1.261573
      8          6           0        2.020551   -0.545743    0.294984
      9          6           0        3.382535   -0.887415    0.463035
     10          6           0        4.390993   -0.037708    0.055302
     11          6           0        4.066144    1.199854   -0.543293
     12          6           0        2.743607    1.554656   -0.718587
     13          6           0        1.691305    0.701851   -0.308162
     14          6           0        0.308272    1.120805   -0.513038
     15          8           0        0.066030    2.238307   -1.083030
     16          6           0       -0.742572    0.219710   -0.057616
     17          6           0       -2.128636    0.567895   -0.195236
     18          7           0       -2.498754    1.826184   -0.637477
     19          1           0       -5.107362   -0.779337    0.246800
     20          1           0       -4.748054    0.421997   -0.815410
     21          1           0       -3.541280   -2.283688    1.026363
     22          1           0       -1.157434   -2.873195    1.360676
     23          1           0        3.613036   -1.840790    0.923112
     24          1           0        5.430017   -0.317397    0.192891
     25          1           0        4.856499    1.870188   -0.863976
     26          1           0        2.481106    2.500726   -1.175571
     27          1           0       -1.738573    2.343202   -1.075674
     28          1           0       -3.425331    1.957044   -1.008886
 ---------------------------------------------------------------------

 SCF Done:  E(UB3LYP) =  -799.851105238     A.U. after    1 cycles

 Alpha  occ. eigenvalues --  -19.07396 -19.06842 -14.31821 -14.30609 -10.22329
 Alpha  occ. eigenvalues --  -10.21872 -10.21221 -10.20406 -10.17214 -10.17012
 Alpha  occ. eigenvalues --  -10.16977 -10.16963 -10.16831 -10.16759 -10.16737
 Alpha  occ. eigenvalues --  -10.16700 -10.16467 -10.15836  -0.99755  -0.99117
 Alpha  occ. eigenvalues --   -0.93325  -0.88920  -0.85478  -0.83114  -0.77605
 Alpha  occ. eigenvalues --   -0.74766  -0.73163  -0.72301  -0.66267  -0.63398
 Alpha  occ. eigenvalues --   -0.61980  -0.58558  -0.55861  -0.54942  -0.53126
 Alpha  occ. eigenvalues --   -0.50699  -0.48952  -0.47669  -0.46995  -0.45771
 Alpha  occ. eigenvalues --   -0.44694  -0.43572  -0.42182  -0.42123  -0.41017
 Alpha  occ. eigenvalues --   -0.40750  -0.39748  -0.38605  -0.37886  -0.37423
 Alpha  occ. eigenvalues --   -0.35809  -0.34797  -0.34640  -0.33290  -0.31108
 Alpha  occ. eigenvalues --   -0.30198  -0.26090  -0.25427  -0.24368  -0.23429
 Alpha  occ. eigenvalues --   -0.23182  -0.20027  -0.13447
 Alpha virt. eigenvalues --   -0.04616  -0.01525  -0.00694   0.00134   0.00762
 Alpha virt. eigenvalues --    0.00957   0.01848   0.02100   0.03854   0.04097
 Alpha virt. eigenvalues --    0.04311   0.04530   0.05218   0.06274   0.06343

  Beta  occ. eigenvalues --  -19.06876 -19.06353 -14.31793 -14.30574 -10.22116
  Beta  occ. eigenvalues --  -10.21694 -10.21182 -10.20296 -10.17213 -10.16961
  Beta  occ. eigenvalues --  -10.16911 -10.16892 -10.16780 -10.16733 -10.16718
  Beta  occ. eigenvalues --  -10.16700 -10.16433 -10.15788  -0.98854  -0.98236
  Beta  occ. eigenvalues --   -0.93182  -0.88837  -0.85236  -0.82982  -0.77244
  Beta  occ. eigenvalues --   -0.74539  -0.73019  -0.72057  -0.65581  -0.63227
  Beta  occ. eigenvalues --   -0.61753  -0.58462  -0.55648  -0.54778  -0.52981
  Beta  occ. eigenvalues --   -0.50588  -0.48873  -0.47422  -0.46839  -0.45646
  Beta  occ. eigenvalues --   -0.44610  -0.43448  -0.42090  -0.41211  -0.40844
  Beta  occ. eigenvalues --   -0.40280  -0.39413  -0.38049  -0.37674  -0.35767
  Beta  occ. eigenvalues --   -0.35373  -0.34641  -0.33841  -0.33139  -0.30690
  Beta  occ. eigenvalues --   -0.29376  -0.24734  -0.24377  -0.23909  -0.22976
  Beta  occ. eigenvalues --   -0.22760  -0.19090
  Beta virt. eigenvalues --   -0.07910  -0.03622  -0.00687  -0.00599   0.00142
  Beta virt. eigenvalues --    0.00949   0.01208   0.01862   0.02097   0.03858
  Beta virt. eigenvalues --    0.04112   0.04331   0.04596   0.05633   0.06363

 Mulliken charges and spin densities:
               1          2
     1  N   -0.410450   0.012758
     2  C   -0.430027   0.066998
     3  C   -0.061147   0.000690
     4  C    0.002687   0.060675
     5  C    0.398947   0.008778
     6  C   -0.444483   0.104053
     7  O   -0.483969   0.182928
     8  C    0.000711   0.039787
     9  C    0.036574   0.023870
    10  C   -0.443105   0.044771
    11  C   -0.505993   0.038121
    12  C    0.129660   0.031332
    13  C    0.138645   0.033235
    14  C   -0.439317   0.125090
    15  O   -0.477123   0.189856
    16  C    0.400776   0.001138
    17  C   -0.078061   0.034489
    18  N   -0.441491   0.018408
    19  H    0.279604  -0.000267
    20  H    0.249092   0.000991
    21  H    0.178399  -0.000968
    22  H    0.158821  -0.004237
    23  H    0.160638  -0.001112
    24  H    0.177912  -0.003520
    25  H    0.177564  -0.003299
    26  H    0.165927  -0.001131
    27  H    0.316125  -0.002659
    28  H    0.243087  -0.000776
 Sum of Mulliken charges =  -1.00000   1.00000

 Dipole moment (field-independent basis, Debye):
    X=             -5.6710    Y=              1.1536    Z=             -3.0713  Tot=              6.5516
 Quadrupole moment (field-independent basis, Debye-Ang):
   XX=            -96.3708   YY=           -134.2930   ZZ=           -116.7219
   XY=             11.3474   XZ=              5.0605   YZ=              7.2679

  Exact polarizability: 530.387   2.250 338.887  -3.121 -89.195 185.876
 Approx polarizability: 538.788  -6.345 402.062   1.647-109.769 215.330

                      1                      2                      3
                      A                      A                      A
 Frequencies --     50.6564                86.6716               114.5281
 Red. masses --      6.4408                 4.9564                 3.2699
 Frc consts  --      0.0097                 0.0219                 0.0253
 IR Inten    --     13.6819                 0.2815                21.7321

                      4                      5                      6
                      A                      A                      A
 Frequencies --    135.5765               158.0818               186.9814
 Red. masses --      5.0748                 1.8304                 4.0830
 Frc consts  --      0.0550                 0.0270                 0.0841
 IR Inten    --      0.0633                55.5528                18.9910

                      7                      8                      9
                      A                      A                      A
 Frequencies --    209.9915               270.0983               307.0912
 Red. masses --      3.3463                 4.1534                 3.7843
 Frc consts  --      0.0869                 0.1785                 0.2103
 IR Inten    --     12.9948                 3.8842                 3.6714

                     10                     11                     12
                      A                      A                      A
 Frequencies --    314.6042               330.5815               339.3245
 Red. masses --      3.9444                 2.7483                 2.2975
 Frc consts  --      0.2300                 0.1770                 0.1559
 IR Inten    --     10.4495               124.0168               147.1413

                     13                     14                     15
                      A                      A                      A
 Frequencies --    372.0632               388.1760               424.0956
 Red. masses --      3.6528                 5.8778                 6.3840
 Frc consts  --      0.2979                 0.5218                 0.6765
 IR Inten    --      4.3710                14.1062                32.0418

                     16                     17                     18
                      A                      A                      A
 Frequencies --    430.3644               444.6885               476.9722
 Red. masses --      4.4397                 4.0292                 4.5745
 Frc consts  --      0.4845                 0.4694                 0.6132
 IR Inten    --      7.4004                10.0142                18.4092

                     19                     20                     21
                      A                      A                      A
 Frequencies --    486.9494               518.5067               567.3143
 Red. masses --     10.3596                 4.0117                 5.9255
 Frc consts  --      1.4473                 0.6355                 1.1236
 IR Inten    --      2.8291                45.4538                21.0757

                     22                     23                     24
                      A                      A                      A
 Frequencies --    573.6697               609.3080               661.4900
 Red. masses --      4.8010                 4.7215                 3.9704
 Frc consts  --      0.9309                 1.0328                 1.0236
 IR Inten    --      5.7032                20.1130                81.0509

                     25                     26                     27
                      A                      A                      A
 Frequencies --    664.5288               672.7848               686.4304
 Red. masses --      4.4877                 1.4594                 3.8725
 Frc consts  --      1.1676                 0.3892                 1.0751
 IR Inten    --     23.3105                83.8745                38.5929

                     28                     29                     30
                      A                      A                      A
 Frequencies --    707.3804               724.9876               746.2585
 Red. masses --      2.2864                 2.1977                 4.8619
 Frc consts  --      0.6741                 0.6806                 1.5953
 IR Inten    --    113.3791               520.5692                65.9522

                     31                     32                     33
                      A                      A                      A
 Frequencies --    772.2338               786.3419               793.2507
 Red. masses --      2.6836                 1.7945                 5.2288
 Frc consts  --      0.9429                 0.6538                 1.9385
 IR Inten    --     49.2199                20.9802                26.6314

                     34                     35                     36
                      A                      A                      A
 Frequencies --    823.3281               826.7642               881.5530
 Red. masses --      3.2414                 2.2424                 1.4551
 Frc consts  --      1.2946                 0.9031                 0.6663
 IR Inten    --     54.2631                74.4739                 0.0015

                     37                     38                     39
                      A                      A                      A
 Frequencies --    906.9940               950.6011               985.6991
 Red. masses --      6.2347                 1.2919                 3.0739
 Frc consts  --      3.0219                 0.6878                 1.7597
 IR Inten    --     25.6742                 0.3114                28.4412

                     40                     41                     42
                      A                      A                      A
 Frequencies --    988.1452               998.7439              1029.4609
 Red. masses --      1.3718                 1.2799                 3.0491
 Frc consts  --      0.7892                 0.7522                 1.9039
 IR Inten    --      2.5744                 0.0820               108.6766

                     43                     44                     45
                      A                      A                      A
 Frequencies --   1042.7135              1110.4372              1123.4503
 Red. masses --      2.1636                 2.1896                 1.4567
 Frc consts  --      1.3860                 1.5907                 1.0833
 IR Inten    --     27.0504                79.2957                77.2680

                     46                     47                     48
                      A                      A                      A
 Frequencies --   1150.4075              1171.0201              1172.8640
 Red. masses --      1.3129                 2.4606                 1.2043
 Frc consts  --      1.0238                 1.9880                 0.9761
 IR Inten    --      2.7681                24.9618                23.8248

                     49                     50                     51
                      A                      A                      A
 Frequencies --   1206.0536              1232.1034              1246.4560
 Red. masses --      1.9227                 2.7220                 2.8988
 Frc consts  --      1.6478                 2.4347                 2.6536
 IR Inten    --      5.6378               271.3023               332.2381

                     52                     53                     54
                      A                      A                      A
 Frequencies --   1277.8606              1312.3989              1359.7685
 Red. masses --      3.3689                 2.9100                 5.0123
 Frc consts  --      3.2412                 2.9531                 5.4603
 IR Inten    --    101.4503               135.1125                12.2554

                     55                     56                     57
                      A                      A                      A
 Frequencies --   1363.2424              1371.3739              1402.5200
 Red. masses --      3.7047                 5.6462                 3.1368
 Frc consts  --      4.0564                 6.2563                 3.6354
 IR Inten    --     26.3117                36.2339              1277.4040

                     58                     59                     60
                      A                      A                      A
 Frequencies --   1435.7060              1467.6884              1476.0747
 Red. masses --      3.8903                 3.5878                 3.6557
 Frc consts  --      4.7245                 4.5534                 4.6928
 IR Inten    --    152.8254               100.4449               423.3009

                     61                     62                     63
                      A                      A                      A
 Frequencies --   1499.7841              1518.2065              1560.2332
 Red. masses --      4.2841                 3.8603                 3.4220
 Frc consts  --      5.6776                 5.2424                 4.9080
 IR Inten    --   1325.4685                86.3232                20.3303

                     64                     65                     66
                      A                      A                      A
 Frequencies --   1597.0984              1605.0556              1615.1015
 Red. masses --      2.0750                 3.0909                 4.7696
 Frc consts  --      3.1184                 4.6916                 7.3304
 IR Inten    --    198.3816                70.7111                45.9136

                     67                     68                     69
                      A                      A                      A
 Frequencies --   1625.4672              1666.9815              3148.8165
 Red. masses --      6.1264                 1.1268                 1.0891
 Frc consts  --      9.5370                 1.8449                 6.3625
 IR Inten    --     15.4504                98.9240                46.7037

                     70                     71                     72
                      A                      A                      A
 Frequencies --   3157.0141              3171.4246              3188.7628
 Red. masses --      1.0859                 1.0905                 1.0923
 Frc consts  --      6.3767                 6.4621                 6.5440
 IR Inten    --     15.4400                25.5995                25.9664

                     73                     74                     75
                      A                      A                      A
 Frequencies --   3193.7223              3198.7099              3410.8512
 Red. masses --      1.0933                 1.0912                 1.0620
 Frc consts  --      6.5702                 6.5783                 7.2794
 IR Inten    --     41.9927                11.1535               219.7103

                     76                     77                     78
                      A                      A                      A
 Frequencies --   3515.5673              3602.9621              3663.9760
 Red. masses --      1.0511                 1.0938                 1.0875
 Frc consts  --      7.6541                 8.3655                 8.6018
 IR Inten    --     10.4847                27.2012                70.8260

 - Thermochemistry -
 -------------------
 Temperature   298.150 Kelvin.  Pressure   1.00000 Atm.
 Atom     1 has atomic number  7 and mass  14.00307

 Molecular mass:   238.07423 amu.
 Principal axes and moments of inertia in atomic units:
                           1         2         3
     Eigenvalues --  2038.769445697.922327730.18572
           X            0.99881  -0.04870   0.00209
           Y            0.04325   0.90505   0.42310
           Z           -0.02249  -0.42250   0.90608
 This molecule is an asymmetric top.
 Rotational symmetry number  1.
 Warning -- assumption of classical behavior for rotation
           may cause significant error
 Rotational temperatures (Kelvin)      0.04248     0.01520     0.01120
 Rotational constants (GHZ):           0.88521     0.31674     0.23347
 Zero-point vibrational energy     551868.1 (Joules/Mol)
                                  131.89965 (Kcal/Mol)
 Warning -- explicit consideration of  23 degrees of freedom as
           vibrations may cause significant error
 Vibrational temperatures:     72.88   124.70   164.78   195.06   227.44
          (Kelvin)            269.02   302.13   388.61   441.84   452.65
                              475.63   488.21   535.32   558.50   610.18
                              619.20   639.81   686.26   700.61   746.02
                              816.24   825.38   876.66   951.74   956.11
                              967.99   987.62  1017.76  1043.10  1073.70
                             1111.07  1131.37  1141.31  1184.59  1189.53
                             1268.36  1304.96  1367.70  1418.20  1421.72
                             1436.97  1481.16  1500.23  1597.67  1616.39
                             1655.18  1684.84  1687.49  1735.24  1772.72
                             1793.37  1838.56  1888.25  1956.40  1961.40
                             1973.10  2017.91  2065.66  2111.68  2123.74
                             2157.85  2184.36  2244.83  2297.87  2309.32
                             2323.77  2338.68  2398.41  4530.44  4542.24
                             4562.97  4587.92  4595.05  4602.23  4907.45
                             5058.12  5183.86  5271.64

 Zero-point correction=                           0.210195 (Hartree/Particle)
 Thermal correction to Energy=                    0.224257
 Thermal correction to Enthalpy=                  0.225202
 Thermal correction to Gibbs Free Energy=         0.169336
 Sum of electronic and zero-point Energies=           -799.640910
 Sum of electronic and thermal Energies=              -799.626848
 Sum of electronic and thermal Enthalpies=            -799.625904
 Sum of electronic and thermal Free Energies=         -799.681770

                     E (Thermal)             CV                S
                      KCal/Mol        Cal/Mol-Kelvin    Cal/Mol-Kelvin
 Total                  140.724             57.468            117.580
 Electronic               0.000              0.000              1.377
 Translational            0.889              2.981             42.304
 Rotational               0.889              2.981             32.862
 Vibrational            138.946             51.506             41.036
 Vibration     1          0.595              1.977              4.792
 Vibration     2          0.601              1.958              3.734
 Vibration     3          0.607              1.937              3.191
 Vibration     4          0.613              1.918              2.865
 Vibration     5          0.621              1.894              2.573
 Vibration     6          0.632              1.858              2.258
 Vibration     7          0.642              1.826              2.044
 Vibration     8          0.674              1.728              1.596
 Vibration     9          0.697              1.660              1.378
 Vibration    10          0.702              1.646              1.338
 Vibration    11          0.713              1.614              1.257
 Vibration    12          0.719              1.597              1.215
 Vibration    13          0.744              1.530              1.071
 Vibration    14          0.756              1.495              1.007
 Vibration    15          0.786              1.418              0.878
 Vibration    16          0.792              1.404              0.857
 Vibration    17          0.804              1.373              0.812
 Vibration    18          0.834              1.301              0.718
 Vibration    19          0.843              1.279              0.692
 Vibration    20          0.874              1.209              0.613
 Vibration    21          0.923              1.102              0.509
 Vibration    22          0.930              1.088              0.497
 Vibration    23          0.968              1.012              0.434

                           ! Non-Optimized Parameters !
 Normal termination of Gaussian 16 at Sat Feb 10 18:46:46 2024.
