 Q-Chem 5.4, Q-Chem, Inc., Pleasanton, CA (2021)
 Q-Chem 5.4.0 for Intel X86 EM64T Linux

User input:
--------------------------------------------------------------
$molecule
0 1
C                 -4.9941040000     -1.0461820000     -0.1228880000
O                 -3.5798890000     -1.0649110000      0.0317690000
C                 -2.8945910000      0.0958280000      0.0218250000
C                 -3.5207450000      1.3394900000     -0.1295670000
C                 -2.7700640000      2.5109350000     -0.1421760000
C                 -1.3897900000      2.4681120000     -0.0127900000
C                 -0.7478370000      1.2370820000      0.1257720000
C                  0.7545390000      1.2709230000      0.2480470000
O                  1.3136650000      2.3435880000      0.3969690000
C                  1.4790120000     -0.0226920000      0.1690930000
C                  2.8944940000     -0.0946000000      0.0508080000
O                  3.5800890000      1.0630500000     -0.0322690000
C                  4.9953430000      1.0318600000     -0.1752560000
C                  3.5213280000     -1.3464170000      0.0094900000
C                  2.7704290000     -2.5149710000      0.0907520000
C                  1.3892910000     -2.4617820000      0.2062420000
C                  0.7466890000     -1.2236510000      0.2355000000
C                 -0.7565780000     -1.2475400000      0.3490410000
O                 -1.3171740000     -2.3040160000      0.5836070000
C                 -1.4800370000      0.0345790000      0.1559500000
H                 -5.3007160000     -2.0896980000     -0.0861060000
H                 -5.4784860000     -0.4967940000      0.6909590000
H                 -5.2867640000     -0.6139080000     -1.0855370000
H                 -4.5947250000      1.3979990000     -0.2359680000
H                 -3.2759500000      3.4632350000     -0.2566130000
H                 -0.7895270000      3.3677400000     -0.0171320000
H                  5.3018550000      2.0748670000     -0.2250310000
H                  5.2944280000      0.5196990000     -1.0958280000
H                  5.4741630000      0.5536170000      0.6854320000
H                  4.5960120000     -1.4133430000     -0.0840750000
H                  3.2768480000     -3.4733760000      0.0608840000
H                  0.7887910000     -3.3587240000      0.2737730000
$end
$rem
MAX_SCF_CYCLES=200
BASIS  =  6-311++G(d,p)
GUI  =  2
JOB_TYPE  =  SP
METHOD  =  B3LYP
SOLVENT_METHOD = PCM
$end
$pcm
theory = CPCM
$end
$solvent
dielectric 37.219
opticaldielectric 1.43
$end

--------------------------------------------------------------

             Standard Nuclear Orientation (Angstroms)
    I     Atom           X                Y                Z
 ----------------------------------------------------------------
    1      C      -4.9941040000    -1.0461820000    -0.1228880000
    2      O      -3.5798890000    -1.0649110000     0.0317690000
    3      C      -2.8945910000     0.0958280000     0.0218250000
    4      C      -3.5207450000     1.3394900000    -0.1295670000
    5      C      -2.7700640000     2.5109350000    -0.1421760000
    6      C      -1.3897900000     2.4681120000    -0.0127900000
    7      C      -0.7478370000     1.2370820000     0.1257720000
    8      C       0.7545390000     1.2709230000     0.2480470000
    9      O       1.3136650000     2.3435880000     0.3969690000
   10      C       1.4790120000    -0.0226920000     0.1690930000
   11      C       2.8944940000    -0.0946000000     0.0508080000
   12      O       3.5800890000     1.0630500000    -0.0322690000
   13      C       4.9953430000     1.0318600000    -0.1752560000
   14      C       3.5213280000    -1.3464170000     0.0094900000
   15      C       2.7704290000    -2.5149710000     0.0907520000
   16      C       1.3892910000    -2.4617820000     0.2062420000
   17      C       0.7466890000    -1.2236510000     0.2355000000
   18      C      -0.7565780000    -1.2475400000     0.3490410000
   19      O      -1.3171740000    -2.3040160000     0.5836070000
   20      C      -1.4800370000     0.0345790000     0.1559500000
   21      H      -5.3007160000    -2.0896980000    -0.0861060000
   22      H      -5.4784860000    -0.4967940000     0.6909590000
   23      H      -5.2867640000    -0.6139080000    -1.0855370000
   24      H      -4.5947250000     1.3979990000    -0.2359680000
   25      H      -3.2759500000     3.4632350000    -0.2566130000
   26      H      -0.7895270000     3.3677400000    -0.0171320000
   27      H       5.3018550000     2.0748670000    -0.2250310000
   28      H       5.2944280000     0.5196990000    -1.0958280000
   29      H       5.4741630000     0.5536170000     0.6854320000
   30      H       4.5960120000    -1.4133430000    -0.0840750000
   31      H       3.2768480000    -3.4733760000     0.0608840000
   32      H       0.7887910000    -3.3587240000     0.2737730000
 ----------------------------------------------------------------

    8    -918.0707718827      9.74e-06  Convergence criterion met
 Total energy in the final basis set =     -918.0707718827

                    Orbital Energies (a.u.)
 --------------------------------------------------------------

 Alpha MOs
 -- Occupied --
-19.1697 -19.1696 -19.1229 -19.1228 -10.2796 -10.2796 -10.2637 -10.2637
-10.2229 -10.2229 -10.2068 -10.2068 -10.2056 -10.2056 -10.1963 -10.1963
-10.1911 -10.1911 -10.1856 -10.1856  -1.0905  -1.0902  -1.0601  -1.0586
 -0.8885  -0.8761  -0.8096  -0.7820  -0.7788  -0.7694  -0.7161  -0.7130
 -0.6855  -0.6541  -0.6457  -0.6012  -0.5795  -0.5648  -0.5596  -0.5206
 -0.5138  -0.5120  -0.4905  -0.4885  -0.4830  -0.4804  -0.4762  -0.4563
 -0.4548  -0.4507  -0.4458  -0.4269  -0.4205  -0.4153  -0.4018  -0.3967
 -0.3890  -0.3874  -0.3773  -0.3756  -0.3517  -0.3489  -0.3410  -0.3378
 -0.2877  -0.2780  -0.2736  -0.2624  -0.2468  -0.2447

          Ground-State Mulliken Net Atomic Charges

     Atom                 Charge (a.u.)
  ----------------------------------------
      1 C                    -0.326971
      2 O                    -0.145417
      3 C                    -0.020852
      4 C                    -0.052931
      5 C                    -0.392179
      6 C                     0.023787
      7 C                     0.651341
      8 C                    -0.475937
      9 O                    -0.303892
     10 C                    -0.168339
     11 C                    -0.020664
     12 O                    -0.145699
     13 C                    -0.326898
     14 C                    -0.053284
     15 C                    -0.392724
     16 C                     0.023557
     17 C                     0.655465
     18 C                    -0.477314
     19 O                    -0.303593
     20 C                    -0.165342
     21 H                     0.207716
     22 H                     0.181815
     23 H                     0.176174
     24 H                     0.224725
     25 H                     0.235452
     26 H                     0.182910
     27 H                     0.207677
     28 H                     0.176324
     29 H                     0.181729
     30 H                     0.224814
     31 H                     0.235357
     32 H                     0.183191
  ----------------------------------------
  Sum of atomic charges =     0.000000

                    Cartesian Multipole Moments
 -----------------------------------------------------------------
    Charge (ESU x 10^10)
                -0.0000
    Dipole Moment (Debye)
         X       0.0060      Y      -0.0868      Z      -1.9698
       Tot       1.9717
    Quadrupole Moments (Debye-Ang)
        XX     -58.5936     XY     -18.1971     YY    -120.5466
        XZ       0.9750     YZ       0.0251     ZZ    -118.3805

 Total job time:  65.44s(wall), 434.76s(cpu)
        *  Thank you very much for using Q-Chem.  Have a nice day.  *
