 Q-Chem 5.4, Q-Chem, Inc., Pleasanton, CA (2021)
 Q-Chem 5.4.0 for Intel X86 EM64T Linux

User input:
--------------------------------------------------------------
$molecule
0 1
C                 -1.5293270000      1.9071560000     -4.7759520000
C                 -1.4930020000      0.5391210000     -5.0131610000
C                 -1.2542480000     -0.3483120000     -3.9595670000
C                 -1.3282920000      2.3978200000     -3.4809590000
C                 -1.0883730000      1.5087030000     -2.4226430000
C                 -1.0514590000      0.1334050000     -2.6719890000
C                 -1.3731800000      3.8568350000     -3.2402090000
C                 -0.8559030000      1.9950130000     -1.0299360000
C                 -1.1777770000      4.3568190000     -1.8740110000
C                 -0.9227480000      3.4681050000     -0.7880400000
C                 -1.2594820000      5.7516370000     -1.6460830000
C                 -1.0993420000      6.2520030000     -0.3435620000
C                 -0.8552270000      5.3885600000      0.7003710000
C                 -0.7611500000      4.0078960000      0.4888390000
O                 -1.5820510000      4.6336820000     -4.1848730000
O                 -0.6244370000      1.1933500000     -0.1386210000
H                 -1.7111350000      2.6132610000     -5.5761560000
H                 -1.6491160000      0.1601500000     -6.0166260000
H                 -1.2252640000     -1.4156470000     -4.1469650000
H                 -0.8605000000     -0.5367250000     -1.8435010000
H                 -0.7292760000      5.7598820000      1.7101800000
O                 -1.4906160000      6.6361200000     -2.6205280000
O                 -0.5828470000      3.2279980000      1.6172580000
C                  0.6525150000      2.6454860000      1.8318760000
C                  0.5687540000      1.6717420000      2.9686740000
O                  1.6211470000      2.9202120000      1.1833900000
H                 -1.1693590000      7.3216650000     -0.1902980000
H                 -1.5790240000      6.1233420000     -3.4631470000
H                  0.0378720000      0.7852200000      2.6129930000
H                  0.0017860000      2.0924890000      3.8004630000
H                  1.5719170000      1.3959120000      3.2871220000
$end

$rem
BASIS  =  6-311++G(d,p)
GUI  =  2
JOB_TYPE  =  SP
METHOD  =  B3LYP
SCF_CONVERGENCE  = 8
SOLVENT_METHOD = sm12
$end

$smx
solvent dimethylformamide
charges CM5
$end

--------------------------------------------------------------

             Standard Nuclear Orientation (Angstroms)
    I     Atom           X                Y                Z
 ----------------------------------------------------------------
    1      C      -1.5293270000     1.9071560000    -4.7759520000
    2      C      -1.4930020000     0.5391210000    -5.0131610000
    3      C      -1.2542480000    -0.3483120000    -3.9595670000
    4      C      -1.3282920000     2.3978200000    -3.4809590000
    5      C      -1.0883730000     1.5087030000    -2.4226430000
    6      C      -1.0514590000     0.1334050000    -2.6719890000
    7      C      -1.3731800000     3.8568350000    -3.2402090000
    8      C      -0.8559030000     1.9950130000    -1.0299360000
    9      C      -1.1777770000     4.3568190000    -1.8740110000
   10      C      -0.9227480000     3.4681050000    -0.7880400000
   11      C      -1.2594820000     5.7516370000    -1.6460830000
   12      C      -1.0993420000     6.2520030000    -0.3435620000
   13      C      -0.8552270000     5.3885600000     0.7003710000
   14      C      -0.7611500000     4.0078960000     0.4888390000
   15      O      -1.5820510000     4.6336820000    -4.1848730000
   16      O      -0.6244370000     1.1933500000    -0.1386210000
   17      H      -1.7111350000     2.6132610000    -5.5761560000
   18      H      -1.6491160000     0.1601500000    -6.0166260000
   19      H      -1.2252640000    -1.4156470000    -4.1469650000
   20      H      -0.8605000000    -0.5367250000    -1.8435010000
   21      H      -0.7292760000     5.7598820000     1.7101800000
   22      O      -1.4906160000     6.6361200000    -2.6205280000
   23      O      -0.5828470000     3.2279980000     1.6172580000
   24      C       0.6525150000     2.6454860000     1.8318760000
   25      C       0.5687540000     1.6717420000     2.9686740000
   26      O       1.6211470000     2.9202120000     1.1833900000
   27      H      -1.1693590000     7.3216650000    -0.1902980000
   28      H      -1.5790240000     6.1233420000    -3.4631470000
   29      H       0.0378720000     0.7852200000     2.6129930000
   30      H       0.0017860000     2.0924890000     3.8004630000
   31      H       1.5719170000     1.3959120000     3.2871220000
 ----------------------------------------------------------------

   15    -992.1493595271      8.21e-09  Convergence criterion met
 Total energy in the final basis set =     -992.1765004870

                    Orbital Energies (a.u.)
 --------------------------------------------------------------

 Alpha MOs
 -- Occupied --
-19.1831 -19.1642 -19.1419 -19.1309 -19.1249 -10.3168 -10.2919 -10.2873
-10.2721 -10.2647 -10.2223 -10.2166 -10.2112 -10.2105 -10.2083 -10.2028
-10.1991 -10.1989 -10.1981 -10.1978 -10.1763  -1.1260  -1.0958  -1.0667
 -1.0639  -1.0443  -0.8982  -0.8841  -0.8214  -0.7909  -0.7797  -0.7782
 -0.7479  -0.7025  -0.6760  -0.6618  -0.6477  -0.6066  -0.5900  -0.5718
 -0.5606  -0.5416  -0.5071  -0.5059  -0.5003  -0.4952  -0.4890  -0.4759
 -0.4666  -0.4618  -0.4566  -0.4530  -0.4466  -0.4444  -0.4323  -0.4227
 -0.4198  -0.4116  -0.4005  -0.3894  -0.3861  -0.3830  -0.3796  -0.3696
 -0.3554  -0.3350  -0.2987  -0.2961  -0.2946  -0.2813  -0.2793  -0.2761
 -0.2504

          Ground-State Mulliken Net Atomic Charges

     Atom                 Charge (a.u.)
  ----------------------------------------
      1 C                     0.238993
      2 C                     0.460414
      3 C                     0.439191
      4 C                    -0.066350
      5 C                    -0.653681
      6 C                     0.262805
      7 C                    -0.959419
      8 C                    -1.031832
      9 C                     0.137647
     10 C                    -0.135438
     11 C                    -0.747877
     12 C                     0.594960
     13 C                     1.052239
     14 C                    -0.646859
     15 O                    -0.291865
     16 O                    -0.222143
     17 H                     0.216123
     18 H                     0.331316
     19 H                     0.326410
     20 H                     0.193932
     21 H                     0.320912
     22 O                    -0.322583
     23 O                     0.025976
     24 C                    -0.337361
     25 C                    -0.145704
     26 O                    -0.296823
     27 H                     0.316678
     28 H                     0.308817
     29 H                     0.212017
     30 H                     0.226770
     31 H                     0.192737
  ----------------------------------------
  Sum of atomic charges =     0.000000

                    Cartesian Multipole Moments
 -----------------------------------------------------------------
    Charge (ESU x 10^10)
                 0.0000
    Dipole Moment (Debye)
         X      -1.6720      Y      -2.3955      Z       0.1007
       Tot       2.9231
    Quadrupole Moments (Debye-Ang)
        XX    -126.8365     XY      -1.5495     YY    -123.4446
        XZ       2.3275     YZ      19.9056     ZZ    -100.4267

 Total job time:  880.07s(wall), 6886.98s(cpu)
        *  Thank you very much for using Q-Chem.  Have a nice day.  *
