 Gaussian 16, Revision A.03,
 Gaussian 16:  ES64L-G16RevA.03 25-Dec-2016

 --------------------------------------
 #P UB3LYP/6-311++G(d,p) nosym opt freq
 --------------------------------------

 -------
 Reduced
 -------
 Symbolic Z-matrix:
 Charge = -2 Multiplicity = 1

 SCF Done:  E(UB3LYP) =  -613.884634409     A.U. after   41 cycles
 Optimization completed.
    -- Stationary point found.
 Normal termination of Gaussian 16 at Sun Jan  7 20:20:08 2024.

 ----------------------------------------------------------------------
 #P Geom=AllCheck Guess=TCheck SCRF=Check GenChk UB3LYP/6-311++G(d,p) F
 req
 ----------------------------------------------------------------------

 Structure from the checkpoint file:  "246-an.chk"
 -------
 Reduced
 -------
 Charge = -2 Multiplicity = 1

                          Input orientation:
 ---------------------------------------------------------------------
 Center     Atomic      Atomic             Coordinates (Angstroms)
 Number     Number       Type             X           Y           Z
 ---------------------------------------------------------------------
      1          6           0       -2.788840   -0.870350   -0.981030
      2          6           0       -1.441221   -0.417274   -0.462809
      3          6           0       -0.289443   -1.123697   -0.769715
      4          6           0        0.998118   -0.733097   -0.340044
      5          6           0        2.166607   -1.541015   -0.702972
      6          8           0        2.073766   -2.613582   -1.405496
      7          6           0        3.397932   -1.030111   -0.199717
      8          6           0        3.506852    0.130706    0.576056
      9          6           0        2.400371    0.946177    0.951788
     10          8           0        2.510008    2.016566    1.655188
     11          6           0        1.110013    0.458532    0.454795
     12          6           0       -0.073359    1.170978    0.749804
     13          6           0       -1.327744    0.777948    0.311814
     14          6           0       -2.562284    1.567331    0.689481
     15          1           0       -2.700758   -1.815634   -1.524658
     16          1           0       -3.518687   -1.016770   -0.177880
     17          1           0       -3.245024   -0.136506   -1.668925
     18          1           0       -0.342504   -2.024640   -1.374869
     19          1           0        4.293590   -1.602210   -0.442221
     20          1           0        4.487681    0.458349    0.920924
     21          1           0        0.041085    2.063935    1.358300
     22          1           0       -3.261073    0.984257    1.315209
     23          1           0       -2.294180    2.466637    1.251807
     24          1           0       -3.140910    1.883469   -0.184832
 ---------------------------------------------------------------------

 SCF Done:  E(UB3LYP) =  -613.884634409     A.U. after   10 cycles

 Alpha  occ. eigenvalues --  -18.78569 -18.78568  -9.95193  -9.95193  -9.94244
 Alpha  occ. eigenvalues --   -9.94243  -9.93596  -9.93553  -9.91738  -9.91737
 Alpha  occ. eigenvalues --   -9.90761  -9.90720  -9.89540  -9.89489  -0.70045
 Alpha  occ. eigenvalues --   -0.69697  -0.61073  -0.54927  -0.52618  -0.50614
 Alpha  occ. eigenvalues --   -0.46491  -0.43806  -0.40148  -0.35425  -0.33569
 Alpha  occ. eigenvalues --   -0.29782  -0.24196  -0.23556  -0.21696  -0.21275
 Alpha  occ. eigenvalues --   -0.18554  -0.18537  -0.18338  -0.17166  -0.16006
 Alpha  occ. eigenvalues --   -0.14430  -0.13879  -0.13364  -0.11945  -0.11398
 Alpha  occ. eigenvalues --   -0.08550  -0.08068  -0.07642  -0.07396   0.00407
 Alpha  occ. eigenvalues --    0.01351   0.01789   0.03956   0.04282   0.13059
 Alpha virt. eigenvalues --    0.14531   0.16056   0.18127   0.18409   0.18825
 Alpha virt. eigenvalues --    0.20214   0.20558   0.21016   0.21195   0.22461
 Alpha virt. eigenvalues --    0.23630   0.23956   0.24434   0.26745   0.27354

  Beta  occ. eigenvalues --  -18.78569 -18.78568  -9.95193  -9.95193  -9.94244
  Beta  occ. eigenvalues --   -9.94243  -9.93596  -9.93553  -9.91738  -9.91737
  Beta  occ. eigenvalues --   -9.90761  -9.90720  -9.89540  -9.89489  -0.70045
  Beta  occ. eigenvalues --   -0.69697  -0.61073  -0.54927  -0.52618  -0.50614
  Beta  occ. eigenvalues --   -0.46491  -0.43806  -0.40148  -0.35425  -0.33569
  Beta  occ. eigenvalues --   -0.29782  -0.24196  -0.23556  -0.21696  -0.21275
  Beta  occ. eigenvalues --   -0.18554  -0.18537  -0.18338  -0.17166  -0.16006
  Beta  occ. eigenvalues --   -0.14430  -0.13879  -0.13364  -0.11945  -0.11398
  Beta  occ. eigenvalues --   -0.08550  -0.08068  -0.07642  -0.07396   0.00407
  Beta  occ. eigenvalues --    0.01351   0.01789   0.03956   0.04282   0.13059
  Beta virt. eigenvalues --    0.14531   0.16056   0.18127   0.18409   0.18825
  Beta virt. eigenvalues --    0.20214   0.20558   0.21016   0.21195   0.22461
  Beta virt. eigenvalues --    0.23630   0.23956   0.24434   0.26745   0.27354

 Mulliken charges and spin densities:
               1          2
     1  C    1.870104   0.000001
     2  C   -1.978017  -0.000001
     3  C    0.756763   0.000001
     4  C    0.198400   0.000000
     5  C   -1.005542  -0.000000
     6  O   -0.513921  -0.000000
     7  C    0.162708   0.000000
     8  C    0.163190  -0.000000
     9  C   -1.005645  -0.000000
    10  O   -0.513908  -0.000000
    11  C    0.198545  -0.000000
    12  C    0.756466   0.000001
    13  C   -1.977007  -0.000001
    14  C    1.867184  -0.000001
    15  H   -0.425917  -0.000000
    16  H   -0.154947   0.000000
    17  H   -0.185125   0.000000
    18  H    0.201025   0.000000
    19  H    0.075004   0.000000
    20  H    0.075008   0.000000
    21  H    0.201064   0.000000
    22  H   -0.184665   0.000000
    23  H   -0.425778  -0.000000
    24  H   -0.154990   0.000000
 Sum of Mulliken charges =  -2.00000   0.00000

 Dipole moment (field-independent basis, Debye):
    X=             -5.9989    Y=              0.7820    Z=             -0.3253  Tot=              6.0584
 Quadrupole moment (field-independent basis, Debye-Ang):
   XX=           -181.5167   YY=           -141.4264   ZZ=           -118.8639
   XY=              6.7417   XZ=             -6.7385   YZ=            -24.9669

  Exact polarizability:1454.790 -47.8341370.117 106.457 556.460 800.972
 Approx polarizability:7611.642-886.0911075.355 428.439 312.517 648.246

                      1                      2                      3
                      A                      A                      A
 Frequencies --     80.5662               100.0464               139.1708
 Red. masses --      3.8137                 4.2241                 5.8551
 Frc consts  --      0.0146                 0.0249                 0.0668
 IR Inten    --      0.0434                 1.9398                 3.6605

                      4                      5                      6
                      A                      A                      A
 Frequencies --    151.5927               199.5698               231.9455
 Red. masses --      1.0820                 5.2114                 1.1295
 Frc consts  --      0.0147                 0.1223                 0.0358
 IR Inten    --      0.0478                10.5229                32.0505

                      7                      8                      9
                      A                      A                      A
 Frequencies --    242.8497               289.7247               315.4005
 Red. masses --      3.1783                 2.8042                 3.2056
 Frc consts  --      0.1104                 0.1387                 0.1879
 IR Inten    --      0.0844                51.7627                 1.8273

                     10                     11                     12
                      A                      A                      A
 Frequencies --    331.7668               356.0842               360.3427
 Red. masses --      6.6344                 5.6667                 4.4784
 Frc consts  --      0.4302                 0.4233                 0.3426
 IR Inten    --     14.8063                 0.9128                29.2367

                     13                     14                     15
                      A                      A                      A
 Frequencies --    444.2690               450.4901               494.7932
 Red. masses --     11.0654                 2.9944                 3.8928
 Frc consts  --      1.2868                 0.3580                 0.5615
 IR Inten    --    617.9430                44.6406                19.9659

                     16                     17                     18
                      A                      A                      A
 Frequencies --    510.9157               522.7782               601.0883
 Red. masses --      6.9640                 4.7832                 5.2968
 Frc consts  --      1.0710                 0.7702                 1.1276
 IR Inten    --    154.8960                16.1926                20.5226

                     19                     20                     21
                      A                      A                      A
 Frequencies --    634.9922               640.2762               657.9964
 Red. masses --      2.3414                 3.1619                 4.1217
 Frc consts  --      0.5562                 0.7637                 1.0514
 IR Inten    --     10.1213                17.9420                 3.7704

                     22                     23                     24
                      A                      A                      A
 Frequencies --    726.9496               765.4990               783.6304
 Red. masses --      6.8899                 3.6982                 7.0125
 Frc consts  --      2.1452                 1.2768                 2.5372
 IR Inten    --     10.4669                 6.0795                64.7070

                     25                     26                     27
                      A                      A                      A
 Frequencies --    790.1164               807.9208               871.3132
 Red. masses --      4.4871                 2.1039                 1.3786
 Frc consts  --      1.6504                 0.8091                 0.6166
 IR Inten    --      0.3173                48.0134                 0.6921

                     28                     29                     30
                      A                      A                      A
 Frequencies --    925.7149               937.1502               993.0818
 Red. masses --      1.3394                 1.4149                 1.4613
 Frc consts  --      0.6763                 0.7321                 0.8491
 IR Inten    --      6.0760                20.7858               100.3303

                     31                     32                     33
                      A                      A                      A
 Frequencies --    997.6735              1016.8006              1049.2409
 Red. masses --      3.2467                 1.7308                 1.5127
 Frc consts  --      1.9040                 1.0543                 0.9812
 IR Inten    --      9.0068               136.8919                 1.4638

                     34                     35                     36
                      A                      A                      A
 Frequencies --   1051.1853              1054.6579              1132.1404
 Red. masses --      1.4368                 1.7222                 1.5621
 Frc consts  --      0.9354                 1.1287                 1.1797
 IR Inten    --      0.9334                81.3633               239.1183

                     37                     38                     39
                      A                      A                      A
 Frequencies --   1169.6379              1198.9074              1232.4190
 Red. masses --      4.3448                 2.7861                 4.5169
 Frc consts  --      3.5021                 2.3595                 4.0421
 IR Inten    --     62.3792               721.5003               186.1257

                     40                     41                     42
                      A                      A                      A
 Frequencies --   1236.7794              1265.6326              1333.8027
 Red. masses --      1.6806                 1.7842                 6.8823
 Frc consts  --      1.5146                 1.6839                 7.2138
 IR Inten    --     98.1424                 1.6554              1033.0161

                     43                     44                     45
                      A                      A                      A
 Frequencies --   1371.9280              1378.9871              1392.4970
 Red. masses --      1.3716                 3.4308                 7.0222
 Frc consts  --      1.5210                 3.8439                 8.0226
 IR Inten    --   1315.9322                24.4377               812.8561

                     46                     47                     48
                      A                      A                      A
 Frequencies --   1402.5345              1418.5775              1466.6439
 Red. masses --      1.2596                 4.7739                 1.3802
 Frc consts  --      1.4598                 5.6602                 1.7492
 IR Inten    --     18.5111               687.6084               161.1766

                     49                     50                     51
                      A                      A                      A
 Frequencies --   1472.9128              1477.9108              1482.9761
 Red. masses --      1.8533                 1.1338                 2.0635
 Frc consts  --      2.3690                 1.4590                 2.6738
 IR Inten    --    234.9382               445.9438                 4.6064

                     52                     53                     54
                      A                      A                      A
 Frequencies --   1501.2552              1504.9216              1517.3992
 Red. masses --      1.0503                 1.7230                 4.4531
 Frc consts  --      1.3947                 2.2991                 6.0410
 IR Inten    --    232.6023              1138.2863               105.9572

                     55                     56                     57
                      A                      A                      A
 Frequencies --   1561.0403              1617.8420              2917.0477
 Red. masses --      6.6011                 6.1845                 1.0639
 Frc consts  --      9.4775                 9.5373                 5.3338
 IR Inten    --   3973.2786                91.7732                18.3125

                     58                     59                     60
                      A                      A                      A
 Frequencies --   2919.4286              3020.7575              3023.6123
 Red. masses --      1.0632                 1.0707                 1.0693
 Frc consts  --      5.3392                 5.7561                 5.7597
 IR Inten    --    324.7097               443.9450               179.8903

                     61                     62                     63
                      A                      A                      A
 Frequencies --   3067.6944              3068.7317              3081.2937
 Red. masses --      1.0988                 1.0986                 1.0833
 Frc consts  --      6.0926                 6.0956                 6.0597
 IR Inten    --     22.5961                37.5334                54.7007

                     64                     65                     66
                      A                      A                      A
 Frequencies --   3107.9618              3144.2681              3146.8340
 Red. masses --      1.0913                 1.0881                 1.0884
 Frc consts  --      6.2109                 6.3380                 6.3499
 IR Inten    --    675.2588                59.2598                65.7929

 - Thermochemistry -
 -------------------
 Temperature   298.150 Kelvin.  Pressure   1.00000 Atm.
 Atom     1 has atomic number  6 and mass  12.00000

 Molecular mass:   186.06808 amu.
 Principal axes and moments of inertia in atomic units:
                           1         2         3
     Eigenvalues --  1694.814893056.237154728.78169
           X            0.99018   0.07800  -0.11602
           Y           -0.12898   0.82993  -0.54275
           Z            0.05396   0.55239   0.83184
 This molecule is an asymmetric top.
 Rotational symmetry number  1.
 Warning -- assumption of classical behavior for rotation
           may cause significant error
 Rotational temperatures (Kelvin)      0.05111     0.02834     0.01832
 Rotational constants (GHZ):           1.06486     0.59051     0.38165
 Zero-point vibrational energy     479475.1 (Joules/Mol)
                                  114.59729 (Kcal/Mol)
 Warning -- explicit consideration of  18 degrees of freedom as
           vibrations may cause significant error
 Vibrational temperatures:    115.92   143.94   200.24   218.11   287.14
          (Kelvin)            333.72   349.41   416.85   453.79   477.34
                              512.33   518.45   639.20   648.15   711.90
                              735.09   752.16   864.83   913.61   921.21
                              946.71  1045.92  1101.38  1127.47  1136.80
                             1162.42  1253.63  1331.90  1348.35  1428.82
                             1435.43  1462.95  1509.62  1512.42  1517.42
                             1628.90  1682.85  1724.96  1773.18  1779.45
                             1820.96  1919.04  1973.90  1984.05  2003.49
                             2017.93  2041.02  2110.17  2119.19  2126.38
                             2133.67  2159.97  2165.25  2183.20  2245.99
                             2327.71  4196.98  4200.41  4346.20  4350.30
                             4413.73  4415.22  4433.29  4471.66  4523.90
                             4527.59

 Zero-point correction=                           0.182622 (Hartree/Particle)
 Thermal correction to Energy=                    0.194490
 Thermal correction to Enthalpy=                  0.195434
 Thermal correction to Gibbs Free Energy=         0.145229
 Sum of electronic and zero-point Energies=           -613.702012
 Sum of electronic and thermal Energies=              -613.690145
 Sum of electronic and thermal Enthalpies=            -613.689200
 Sum of electronic and thermal Free Energies=         -613.739406

                     E (Thermal)             CV                S
                      KCal/Mol        Cal/Mol-Kelvin    Cal/Mol-Kelvin
 Total                  122.044             47.002            105.666
 Electronic               0.000              0.000              0.000
 Translational            0.889              2.981             41.569
 Rotational               0.889              2.981             31.572
 Vibrational            120.267             41.041             32.526
 Vibration     1          0.600              1.962              3.877
 Vibration     2          0.604              1.949              3.453
 Vibration     3          0.615              1.914              2.815
 Vibration     4          0.619              1.901              2.652
 Vibration     5          0.638              1.840              2.137
 Vibration     6          0.653              1.792              1.864
 Vibration     7          0.659              1.775              1.782
 Vibration     8          0.686              1.693              1.476
 Vibration     9          0.703              1.644              1.334
 Vibration    10          0.714              1.612              1.251
 Vibration    11          0.732              1.563              1.139
 Vibration    12          0.735              1.554              1.121
 Vibration    13          0.804              1.374              0.813
 Vibration    14          0.809              1.360              0.794
 Vibration    15          0.850              1.262              0.671
 Vibration    16          0.866              1.226              0.631
 Vibration    17          0.878              1.200              0.604
 Vibration    18          0.959              1.029              0.448

 Optimization completed.
    -- Stationary point found.
 Normal termination of Gaussian 16 at Sun Jan  7 21:16:08 2024.
