 Gaussian 16, Revision A.03,
 Gaussian 16:  ES64L-G16RevA.03 25-Dec-2016

 ----------------------------------------------------------------
 #P UB3LYP/6-311++G(d,p) SCRF=(PCM,Solvent=n,n-DiMethylFormamide)
 ----------------------------------------------------------------

 -------
 Reduced
 -------
 Symbolic Z-matrix:
 Charge = -2 Multiplicity = 1

                         Standard orientation:
 ---------------------------------------------------------------------
 Center     Atomic      Atomic             Coordinates (Angstroms)
 Number     Number       Type             X           Y           Z
 ---------------------------------------------------------------------
      1          6           0       -3.295417   -1.481779   -0.019202
      2          6           0       -1.991508   -0.714365    0.009154
      3          6           0       -0.776490   -1.380339    0.004032
      4          6           0        0.471231   -0.718393   -0.000331
      5          6           0        1.712864   -1.498239    0.001161
      6          8           0        1.721365   -2.783696    0.010448
      7          6           0        2.893355   -0.700187   -0.000843
      8          6           0        2.893345    0.700234    0.000970
      9          6           0        1.712828    1.498258   -0.001176
     10          8           0        1.721286    2.783702   -0.010500
     11          6           0        0.471222    0.718364    0.000252
     12          6           0       -0.776499    1.380295   -0.004123
     13          6           0       -1.991505    0.714319   -0.009208
     14          6           0       -3.295354    1.481790    0.019291
     15          1           0       -3.115613   -2.559691    0.032063
     16          1           0       -3.955876   -1.216084    0.812882
     17          1           0       -3.878885   -1.288853   -0.936903
     18          1           0       -0.745481   -2.466481   -0.003568
     19          1           0        3.840919   -1.239079    0.004342
     20          1           0        3.840891    1.239160   -0.004104
     21          1           0       -0.745517    2.466444    0.003470
     22          1           0       -3.878316    1.289560    0.937453
     23          1           0       -3.115532    2.559654   -0.032791
     24          1           0       -3.956246    1.215575   -0.812289
 ---------------------------------------------------------------------

 SCF Done:  E(UB3LYP) =  -614.161570731     A.U. after   17 cycles

 The electronic state is 1-A.
 Alpha  occ. eigenvalues --  -19.01072 -19.01071 -10.16335 -10.16334 -10.15360
 Alpha  occ. eigenvalues --  -10.15322 -10.15297 -10.15293 -10.13802 -10.13801
 Alpha  occ. eigenvalues --  -10.13065 -10.13024 -10.11279 -10.11228  -0.92923
 Alpha  occ. eigenvalues --   -0.92611  -0.82976  -0.76817  -0.73915  -0.72311
 Alpha  occ. eigenvalues --   -0.67966  -0.65137  -0.62222  -0.57242  -0.55443
 Alpha  occ. eigenvalues --   -0.51908  -0.45878  -0.45354  -0.43494  -0.41678
 Alpha  occ. eigenvalues --   -0.40328  -0.39932  -0.38896  -0.38430  -0.37034
 Alpha  occ. eigenvalues --   -0.36269  -0.36063  -0.35413  -0.34709  -0.33594
 Alpha  occ. eigenvalues --   -0.31252  -0.30590  -0.29908  -0.29778  -0.22064
 Alpha  occ. eigenvalues --   -0.21793  -0.20436  -0.19241  -0.18810  -0.10388
 Alpha virt. eigenvalues --   -0.00140  -0.00089   0.01010   0.01460   0.01675
 Alpha virt. eigenvalues --    0.02794   0.03034   0.03778   0.04488   0.05109
 Alpha virt. eigenvalues --    0.05788   0.06094   0.06369   0.07229   0.07711

  Beta  occ. eigenvalues --  -19.01072 -19.01071 -10.16335 -10.16334 -10.15360
  Beta  occ. eigenvalues --  -10.15322 -10.15297 -10.15293 -10.13802 -10.13801
  Beta  occ. eigenvalues --  -10.13065 -10.13024 -10.11279 -10.11228  -0.92923
  Beta  occ. eigenvalues --   -0.92611  -0.82976  -0.76817  -0.73915  -0.72311
  Beta  occ. eigenvalues --   -0.67966  -0.65137  -0.62222  -0.57242  -0.55443
  Beta  occ. eigenvalues --   -0.51908  -0.45878  -0.45354  -0.43494  -0.41678
  Beta  occ. eigenvalues --   -0.40328  -0.39932  -0.38896  -0.38430  -0.37034
  Beta  occ. eigenvalues --   -0.36269  -0.36063  -0.35413  -0.34709  -0.33594
  Beta  occ. eigenvalues --   -0.31252  -0.30590  -0.29908  -0.29778  -0.22064
  Beta  occ. eigenvalues --   -0.21793  -0.20436  -0.19241  -0.18810  -0.10388
  Beta virt. eigenvalues --   -0.00140  -0.00089   0.01010   0.01460   0.01675
  Beta virt. eigenvalues --    0.02794   0.03034   0.03778   0.04488   0.05109
  Beta virt. eigenvalues --    0.05788   0.06094   0.06369   0.07229   0.07711

 Mulliken charges and spin densities:
               1          2
     1  C   -0.548058  -0.000000
     2  C    0.567289   0.000000
     3  C   -0.419995  -0.000000
     4  C    0.066542  -0.000000
     5  C   -0.598311   0.000000
     6  O   -0.711929   0.000000
     7  C   -0.033236   0.000000
     8  C   -0.032887  -0.000000
     9  C   -0.598367   0.000000
    10  O   -0.711905   0.000000
    11  C    0.065965   0.000000
    12  C   -0.420163  -0.000000
    13  C    0.567497   0.000000
    14  C   -0.547754   0.000000
    15  H    0.156890   0.000000
    16  H    0.142849  -0.000000
    17  H    0.151944  -0.000000
    18  H    0.108826  -0.000000
    19  H    0.117141  -0.000000
    20  H    0.117144   0.000000
    21  H    0.108834  -0.000000
    22  H    0.151998   0.000000
    23  H    0.156899   0.000000
    24  H    0.142787   0.000000
 Sum of Mulliken charges =  -2.00000   0.00000

 Dipole moment (field-independent basis, Debye):
    X=            -15.5095    Y=              0.0003    Z=              0.0004  Tot=             15.5095
 Quadrupole moment (field-independent basis, Debye-Ang):
   XX=           -121.3615   YY=           -151.6472   ZZ=            -93.8871
   XY=              0.0010   XZ=             -0.0001   YZ=              0.3089

 Normal termination of Gaussian 16 at Sun Jan 21 08:47:53 2024.
