 Gaussian 16, Revision A.03,
 Gaussian 16:  ES64L-G16RevA.03 25-Dec-2016

 --------------------------------------
 #P UB3LYP/6-311++G(d,p) nosym opt freq
 --------------------------------------

 -------
 Radical
 -------
 Symbolic Z-matrix:
 Charge = -1 Multiplicity = 2

 SCF Done:  E(UB3LYP) =  -914.700684970     A.U. after   24 cycles
 SCF Done:  E(UB3LYP) =  -914.745018533     A.U. after   18 cycles
 SCF Done:  E(UB3LYP) =  -914.757507218     A.U. after   20 cycles
 SCF Done:  E(UB3LYP) =  -914.779297182     A.U. after   18 cycles
 SCF Done:  E(UB3LYP) =  -914.781274723     A.U. after   17 cycles
 SCF Done:  E(UB3LYP) =  -914.781817551     A.U. after   16 cycles
 SCF Done:  E(UB3LYP) =  -914.782052769     A.U. after   15 cycles
 SCF Done:  E(UB3LYP) =  -914.782118891     A.U. after   15 cycles
 SCF Done:  E(UB3LYP) =  -914.782125691     A.U. after   12 cycles
 SCF Done:  E(UB3LYP) =  -914.782126968     A.U. after   11 cycles
 SCF Done:  E(UB3LYP) =  -914.782127335     A.U. after   10 cycles
 SCF Done:  E(UB3LYP) =  -914.782127878     A.U. after    9 cycles
 Optimization completed.
    -- Stationary point found.
 Normal termination of Gaussian 16 at Thu Dec 21 20:33:09 2023.

 ----------------------------------------------------------------------
 #P Geom=AllCheck Guess=TCheck SCRF=Check GenChk UB3LYP/6-311++G(d,p) F
 req
 ----------------------------------------------------------------------

 Structure from the checkpoint file:  "201-rad.chk"
 -------
 Radical
 -------
 Charge = -1 Multiplicity = 2

                          Input orientation:
 ---------------------------------------------------------------------
 Center     Atomic      Atomic             Coordinates (Angstroms)
 Number     Number       Type             X           Y           Z
 ---------------------------------------------------------------------
      1          8           0       -2.737907    2.509397   -0.454064
      2          6           0       -2.660400    1.180200   -0.220651
      3          6           0       -3.834991    0.450325   -0.098875
      4          6           0       -3.783314   -0.931306    0.143536
      5          6           0       -2.569594   -1.584817    0.264471
      6          6           0       -1.363196   -0.871788    0.145862
      7          6           0       -0.090402   -1.609909    0.281949
      8          8           0       -0.105576   -2.836124    0.496677
      9          6           0        1.149627   -0.828762    0.151373
     10          6           0        2.429054   -1.432779    0.263897
     11          8           0        2.539793   -2.783216    0.501300
     12          6           0        3.583080   -0.670885    0.136217
     13          6           0        3.528307    0.706577   -0.105646
     14          6           0        2.304639    1.342397   -0.223461
     15          8           0        2.291279    2.676279   -0.457560
     16          6           0        1.093332    0.589807   -0.097663
     17          6           0       -0.168731    1.273968   -0.224083
     18          8           0       -0.211058    2.559761   -0.449738
     19          6           0       -1.391997    0.526838   -0.099462
     20          1           0       -1.789770    2.823965   -0.504248
     21          1           0       -4.779850    0.973502   -0.195528
     22          1           0       -4.710858   -1.488604    0.236320
     23          1           0       -2.509355   -2.649285    0.451303
     24          1           0        3.480609   -2.985171    0.541497
     25          1           0        4.550901   -1.160081    0.226969
     26          1           0        4.433628    1.294246   -0.204083
     27          1           0        1.322750    2.925463   -0.506310
 ---------------------------------------------------------------------

 SCF Done:  E(UB3LYP) =  -914.782127878     A.U. after    2 cycles

 Alpha  occ. eigenvalues --  -19.03987 -19.01495 -19.01099 -18.98081 -18.95284
 Alpha  occ. eigenvalues --  -10.12295 -10.12094 -10.11895 -10.11753 -10.11097
 Alpha  occ. eigenvalues --  -10.06734 -10.06656 -10.06577 -10.06401 -10.06141
 Alpha  occ. eigenvalues --  -10.05917 -10.05875 -10.05379 -10.04788  -0.95180
 Alpha  occ. eigenvalues --   -0.94142  -0.93149  -0.88583  -0.88343  -0.74618
 Alpha  occ. eigenvalues --   -0.73219  -0.67676  -0.63482  -0.63016  -0.62075
 Alpha  occ. eigenvalues --   -0.56011  -0.53344  -0.52527  -0.47989  -0.47196
 Alpha  occ. eigenvalues --   -0.44598  -0.42382  -0.41364  -0.39203  -0.37271
 Alpha  occ. eigenvalues --   -0.36436  -0.35536  -0.33753  -0.32797  -0.32471
 Alpha  occ. eigenvalues --   -0.30997  -0.30807  -0.29953  -0.28782  -0.28350
 Alpha  occ. eigenvalues --   -0.28348  -0.27029  -0.26295  -0.25653  -0.25178
 Alpha  occ. eigenvalues --   -0.24881  -0.24305  -0.22726  -0.21279  -0.19579
 Alpha  occ. eigenvalues --   -0.15848  -0.14642  -0.13912  -0.11429  -0.11184
 Alpha  occ. eigenvalues --   -0.09986  -0.02603
 Alpha virt. eigenvalues --    0.07196   0.07224   0.08557   0.08609   0.09523
 Alpha virt. eigenvalues --    0.10696   0.11370   0.12588   0.12628   0.13121
 Alpha virt. eigenvalues --    0.14769   0.15094   0.15426   0.15573   0.16530

  Beta  occ. eigenvalues --  -19.03977 -19.01462 -19.01050 -18.97613 -18.94753
  Beta  occ. eigenvalues --  -10.12322 -10.12053 -10.11699 -10.11572 -10.11051
  Beta  occ. eigenvalues --  -10.06670 -10.06595 -10.06467 -10.06311 -10.06178
  Beta  occ. eigenvalues --  -10.05841 -10.05742 -10.05345 -10.04810  -0.95156
  Beta  occ. eigenvalues --   -0.93940  -0.93055  -0.87820  -0.87456  -0.74353
  Beta  occ. eigenvalues --   -0.73068  -0.67274  -0.63289  -0.62717  -0.61925
  Beta  occ. eigenvalues --   -0.55352  -0.53148  -0.52321  -0.47859  -0.47023
  Beta  occ. eigenvalues --   -0.44482  -0.42189  -0.41243  -0.39099  -0.37049
  Beta  occ. eigenvalues --   -0.36258  -0.35406  -0.33673  -0.32681  -0.31694
  Beta  occ. eigenvalues --   -0.30803  -0.30622  -0.29580  -0.28398  -0.28186
  Beta  occ. eigenvalues --   -0.27830  -0.26918  -0.25554  -0.25230  -0.24794
  Beta  occ. eigenvalues --   -0.24179  -0.23396  -0.22578  -0.20573  -0.18902
  Beta  occ. eigenvalues --   -0.14303  -0.14003  -0.13400  -0.10690  -0.10576
  Beta  occ. eigenvalues --   -0.09218
  Beta virt. eigenvalues --    0.02907   0.07196   0.08380   0.08553   0.09518
  Beta virt. eigenvalues --    0.09664   0.10697   0.11387   0.12631   0.12880
  Beta virt. eigenvalues --    0.13125   0.14798   0.15233   0.15430   0.16167

 Mulliken charges and spin densities:
               1          2
     1  O   -0.368459   0.010390
     2  C   -0.063024   0.051902
     3  C   -0.189110   0.019966
     4  C   -0.324644   0.072356
     5  C   -0.179332   0.005385
     6  C    0.367074   0.093143
     7  C   -0.416279   0.009068
     8  O   -0.331572   0.201537
     9  C    0.237848   0.071910
    10  C   -0.303438  -0.003328
    11  O   -0.186600   0.002802
    12  C   -0.181523   0.104935
    13  C   -0.062231   0.049506
    14  C   -0.344674   0.056603
    15  O   -0.381015   0.015348
    16  C    0.594510  -0.037771
    17  C   -0.406184   0.188253
    18  O   -0.538107   0.162229
    19  C    0.408082  -0.045882
    20  H    0.384162  -0.002527
    21  H    0.139989  -0.002493
    22  H    0.134566  -0.005285
    23  H    0.149241  -0.000576
    24  H    0.235325  -0.000725
    25  H    0.088787  -0.009245
    26  H    0.149032  -0.004799
    27  H    0.387578  -0.002702
 Sum of Mulliken charges =  -1.00000   1.00000

 Dipole moment (field-independent basis, Debye):
    X=              1.9099    Y=             -1.0407    Z=              0.1919  Tot=              2.1835
 Quadrupole moment (field-independent basis, Debye-Ang):
   XX=           -124.3849   YY=           -147.3357   ZZ=           -116.5713
   XY=             -3.1020   XZ=              0.4985   YZ=              5.5478

  Exact polarizability: 338.987  -0.831 229.244   1.410 -23.454  99.610
 Approx polarizability: 521.922   2.882 437.466   1.410 -49.914 161.436

                      1                      2                      3
                      A                      A                      A
 Frequencies --     41.7712                62.1354               102.1746
 Red. masses --      7.4535                 7.4040                 9.2324
 Frc consts  --      0.0077                 0.0168                 0.0568
 IR Inten    --      5.9708                 0.2315                 1.2932

                      4                      5                      6
                      A                      A                      A
 Frequencies --    131.2994               169.9286               208.2882
 Red. masses --      7.4919                 6.9385                 1.8284
 Frc consts  --      0.0761                 0.1180                 0.0467
 IR Inten    --      0.0645                 0.0032                36.1021

                      7                      8                      9
                      A                      A                      A
 Frequencies --    213.8591               241.5967               275.8541
 Red. masses --      6.5291                 1.9615                 5.2664
 Frc consts  --      0.1759                 0.0675                 0.2361
 IR Inten    --      2.4632                35.6499                 5.7717

                     10                     11                     12
                      A                      A                      A
 Frequencies --    297.2220               340.4095               365.1835
 Red. masses --      7.9042                 6.7247                12.5371
 Frc consts  --      0.4114                 0.4591                 0.9851
 IR Inten    --      4.7791                 1.4766                 2.3696

                     13                     14                     15
                      A                      A                      A
 Frequencies --    371.5004               408.3396               417.9064
 Red. masses --      6.1381                 6.5880                 6.5666
 Frc consts  --      0.4991                 0.6472                 0.6757
 IR Inten    --      3.8610                 0.2014                 9.1466

                     16                     17                     18
                      A                      A                      A
 Frequencies --    452.2654               469.6932               478.2279
 Red. masses --      9.1430                 8.5648                 9.8159
 Frc consts  --      1.1019                 1.1133                 1.3227
 IR Inten    --      5.3397                34.3381                11.3506

                     19                     20                     21
                      A                      A                      A
 Frequencies --    488.9529               499.6838               519.7811
 Red. masses --      4.6752                 7.7441                 6.7744
 Frc consts  --      0.6585                 1.1392                 1.0784
 IR Inten    --      0.1285                 0.1199                 4.9975

                     22                     23                     24
                      A                      A                      A
 Frequencies --    535.6025               584.8324               598.1329
 Red. masses --      4.3711                 7.4911                 3.7866
 Frc consts  --      0.7388                 1.5096                 0.7982
 IR Inten    --      9.6186                17.5665                 6.9039

                     25                     26                     27
                      A                      A                      A
 Frequencies --    611.3697               635.7062               710.9057
 Red. masses --      4.9499                 4.7735                 4.2542
 Frc consts  --      1.0901                 1.1366                 1.2668
 IR Inten    --      6.7191                 0.2031                 4.0534

                     28                     29                     30
                      A                      A                      A
 Frequencies --    718.5604               741.0451               760.2062
 Red. masses --      6.6701                 3.9621                 7.3162
 Frc consts  --      2.0291                 1.2819                 2.4911
 IR Inten    --     14.4619                11.7261                42.0439

                     31                     32                     33
                      A                      A                      A
 Frequencies --    761.0391               781.6534               803.8417
 Red. masses --      2.3120                 1.8865                 2.9670
 Frc consts  --      0.7889                 0.6791                 1.1296
 IR Inten    --     17.8792                75.1137                13.6105

                     34                     35                     36
                      A                      A                      A
 Frequencies --    836.1246               854.3190               875.5034
 Red. masses --      9.0487                 1.3196                 1.1165
 Frc consts  --      3.7272                 0.5675                 0.5042
 IR Inten    --     57.9940                14.1293               116.6267

                     37                     38                     39
                      A                      A                      A
 Frequencies --    879.9226               891.6798               895.4077
 Red. masses --      1.3394                 8.1597                 1.0563
 Frc consts  --      0.6110                 3.8224                 0.4990
 IR Inten    --     10.6151                46.6421                 2.3401

                     40                     41                     42
                      A                      A                      A
 Frequencies --    960.2787               964.8983               994.9945
 Red. masses --      5.8451                 1.2764                 5.7165
 Frc consts  --      3.1757                 0.7002                 3.3344
 IR Inten    --     50.1506                 1.1710                18.4487

                     43                     44                     45
                      A                      A                      A
 Frequencies --   1066.5172              1086.5980              1162.6205
 Red. masses --      2.5864                 1.8162                 1.8229
 Frc consts  --      1.7333                 1.2634                 1.4518
 IR Inten    --     53.3741                54.7137                38.0826

                     46                     47                     48
                      A                      A                      A
 Frequencies --   1169.5731              1188.4028              1226.6418
 Red. masses --      1.2582                 1.7759                 2.3238
 Frc consts  --      1.0141                 1.4777                 2.0601
 IR Inten    --     11.5121                26.7237                 7.2386

                     49                     50                     51
                      A                      A                      A
 Frequencies --   1237.0335              1252.4370              1281.8589
 Red. masses --      4.0318                 3.1899                 2.5466
 Frc consts  --      3.6351                 2.9481                 2.4654
 IR Inten    --     13.6216                 0.6136                26.7212

                     52                     53                     54
                      A                      A                      A
 Frequencies --   1291.0844              1309.7777              1336.2426
 Red. masses --      4.5447                 3.5695                 5.4345
 Frc consts  --      4.4634                 3.6078                 5.7172
 IR Inten    --    107.3314               110.3848               136.1193

                     55                     56                     57
                      A                      A                      A
 Frequencies --   1356.6276              1387.9042              1408.5715
 Red. masses --      5.2803                 4.5611                 3.9012
 Frc consts  --      5.7257                 5.1766                 4.5604
 IR Inten    --     54.3466               260.1331               122.0356

                     58                     59                     60
                      A                      A                      A
 Frequencies --   1425.1389              1484.7377              1494.0497
 Red. masses --      3.2624                 3.2897                 2.9567
 Frc consts  --      3.9039                 4.2727                 3.8885
 IR Inten    --     49.2041                26.9398               153.3192

                     61                     62                     63
                      A                      A                      A
 Frequencies --   1522.4214              1547.8725              1578.8945
 Red. masses --      1.9321                 3.2171                 4.4326
 Frc consts  --      2.6385                 4.5413                 6.5105
 IR Inten    --      5.9079               688.5769               195.8128

                     64                     65                     66
                      A                      A                      A
 Frequencies --   1587.9480              1618.0753              1631.5960
 Red. masses --      5.5450                 4.1747                 3.5210
 Frc consts  --      8.2381                 6.4398                 5.5225
 IR Inten    --    244.0239                20.9635                37.1614

                     67                     68                     69
                      A                      A                      A
 Frequencies --   1671.3826              3038.3934              3112.1670
 Red. masses --      2.9044                 1.0695                 1.0722
 Frc consts  --      4.7804                 5.8173                 6.1187
 IR Inten    --      8.1534               736.9964                49.5581

                     70                     71                     72
                      A                      A                      A
 Frequencies --   3119.4865              3142.8746              3174.2799
 Red. masses --      1.0877                 1.0867                 1.0920
 Frc consts  --      6.2365                 6.3244                 6.4825
 IR Inten    --     43.6947                23.5148                34.2137

                     73                     74                     75
                      A                      A                      A
 Frequencies --   3179.2535              3198.2054              3811.7019
 Red. masses --      1.0915                 1.0917                 1.0654
 Frc consts  --      6.5004                 6.5789                 9.1203
 IR Inten    --     23.2579                14.6104                20.1722

 - Thermochemistry -
 -------------------
 Temperature   298.150 Kelvin.  Pressure   1.00000 Atm.
 Atom     1 has atomic number  8 and mass  15.99491

 Molecular mass:   256.03717 amu.
 Principal axes and moments of inertia in atomic units:
                           1         2         3
     Eigenvalues --  2898.655375217.579248116.23459
           X            0.98676   0.16214  -0.00511
           Y           -0.15883   0.97208   0.17270
           Z            0.03296  -0.16960   0.98496
 This molecule is an asymmetric top.
 Rotational symmetry number  1.
 Warning -- assumption of classical behavior for rotation
           may cause significant error
 Rotational temperatures (Kelvin)      0.02988     0.01660     0.01067
 Rotational constants (GHZ):           0.62261     0.34590     0.22236
 Zero-point vibrational energy     496764.1 (Joules/Mol)
                                  118.72946 (Kcal/Mol)
 Warning -- explicit consideration of  25 degrees of freedom as
           vibrations may cause significant error
 Vibrational temperatures:     60.10    89.40   147.01   188.91   244.49
          (Kelvin)            299.68   307.70   347.60   396.89   427.64
                              489.77   525.42   534.51   587.51   601.27
                              650.71   675.78   688.06   703.49   718.93
                              747.85   770.61   841.44   860.58   879.62
                              914.64  1022.83  1033.85  1066.20  1093.77
                             1094.97  1124.62  1156.55  1203.00  1229.17
                             1259.65  1266.01  1282.93  1288.29  1381.63
                             1388.27  1431.58  1534.48  1563.37  1672.75
                             1682.75  1709.85  1764.86  1779.82  1801.98
                             1844.31  1857.58  1884.48  1922.56  1951.88
                             1996.88  2026.62  2050.46  2136.21  2149.60
                             2190.42  2227.04  2271.68  2284.70  2328.05
                             2347.50  2404.75  4371.57  4477.71  4488.25
                             4521.90  4567.08  4574.24  4601.50  5484.19

 Zero-point correction=                           0.189207 (Hartree/Particle)
 Thermal correction to Energy=                    0.203467
 Thermal correction to Enthalpy=                  0.204411
 Thermal correction to Gibbs Free Energy=         0.147563
 Sum of electronic and zero-point Energies=           -914.592920
 Sum of electronic and thermal Energies=              -914.578661
 Sum of electronic and thermal Enthalpies=            -914.577717
 Sum of electronic and thermal Free Energies=         -914.634564

                     E (Thermal)             CV                S
                      KCal/Mol        Cal/Mol-Kelvin    Cal/Mol-Kelvin
 Total                  127.677             57.922            119.646
 Electronic               0.000              0.000              1.377
 Translational            0.889              2.981             42.520
 Rotational               0.889              2.981             33.173
 Vibrational            125.900             51.961             42.575
 Vibration     1          0.594              1.980              5.173
 Vibration     2          0.597              1.972              4.388
 Vibration     3          0.604              1.947              3.412
 Vibration     4          0.612              1.922              2.927
 Vibration     5          0.625              1.879              2.436
 Vibration     6          0.642              1.828              2.059
 Vibration     7          0.644              1.820              2.010
 Vibration     8          0.658              1.777              1.791
 Vibration     9          0.677              1.718              1.559
 Vibration    10          0.691              1.679              1.432
 Vibration    11          0.720              1.595              1.210
 Vibration    12          0.738              1.544              1.100
 Vibration    13          0.743              1.531              1.074
 Vibration    14          0.773              1.452              0.932
 Vibration    15          0.781              1.431              0.899
 Vibration    16          0.811              1.356              0.789
 Vibration    17          0.827              1.317              0.738
 Vibration    18          0.835              1.298              0.715
 Vibration    19          0.845              1.275              0.686
 Vibration    20          0.855              1.251              0.659
 Vibration    21          0.875              1.206              0.610
 Vibration    22          0.891              1.171              0.575
 Vibration    23          0.942              1.064              0.476
 Vibration    24          0.956              1.036              0.453
 Vibration    25          0.971              1.008              0.431

 Optimization completed.
    -- Stationary point found.
 Normal termination of Gaussian 16 at Thu Dec 21 21:49:26 2023.
