 Q-Chem 5.4, Q-Chem, Inc., Pleasanton, CA (2021)
 Q-Chem 5.4.0 for Intel X86 EM64T Linux

User input:
--------------------------------------------------------------
$molecule
-2 1
C                  4.9835460000     -2.5049780000      0.2006080000
C                  5.6807970000     -1.6654050000     -0.6486890000
C                  4.9619140000     -0.7990650000     -1.5116530000
C                  3.5719880000     -2.5289260000      0.2383430000
C                  2.8397560000     -1.6503950000     -0.6355910000
C                  3.5817190000     -0.8012100000     -1.4958280000
C                  2.9014290000     -3.4430900000      1.1627750000
C                  1.4417800000     -3.3878330000      1.1226390000
C                  0.7238390000     -2.4890570000      0.2268880000
C                  1.3810850000     -1.5949030000     -0.6754630000
C                  0.7118630000     -4.2236340000      1.9722870000
C                 -0.7029910000     -2.5278930000      0.2752120000
C                 -1.3981950000     -3.3558850000      1.1145350000
O                  3.5517800000     -4.2135330000      1.9303120000
O                  0.7638610000     -0.7964380000     -1.4706990000
H                  5.4988040000     -3.1818340000      0.8750460000
H                 -2.4817260000     -3.3522140000      1.1215060000
H                  3.0024890000     -0.1505780000     -2.1432220000
H                  1.2708940000     -4.8810080000      2.6284200000
H                 -1.2232910000     -1.8551070000     -0.3992720000
C                 -0.6900940000     -4.2430040000      2.0075890000
H                  5.4996510000     -0.1337200000     -2.1851840000
C                 -1.3587560000     -5.1443860000      2.9160920000
O                 -0.8671160000     -5.9241640000      3.7306060000
O                 -2.7569010000     -5.0847370000      2.7977330000
C                 -3.4766310000     -5.8790230000      3.7241440000
H                 -4.5317770000     -5.7764210000      3.4577420000
H                 -3.3264140000     -5.5374340000      4.7568160000
H                 -3.1801480000     -6.9305000000      3.6723810000
H                  6.7688060000     -1.6685680000     -0.6563120000
$end
$rem
MAX_SCF_CYCLES=200
BASIS  =  6-311++G(d,p)
GUI  =  2
JOB_TYPE  =  SP
METHOD  =  B3LYP
SOLVENT_METHOD = PCM
$end
$pcm
theory = CPCM
$end
$solvent
dielectric 37.219
opticaldielectric 1.43
$end

--------------------------------------------------------------

             Standard Nuclear Orientation (Angstroms)
    I     Atom           X                Y                Z
 ----------------------------------------------------------------
    1      C       4.9835460000    -2.5049780000     0.2006080000
    2      C       5.6807970000    -1.6654050000    -0.6486890000
    3      C       4.9619140000    -0.7990650000    -1.5116530000
    4      C       3.5719880000    -2.5289260000     0.2383430000
    5      C       2.8397560000    -1.6503950000    -0.6355910000
    6      C       3.5817190000    -0.8012100000    -1.4958280000
    7      C       2.9014290000    -3.4430900000     1.1627750000
    8      C       1.4417800000    -3.3878330000     1.1226390000
    9      C       0.7238390000    -2.4890570000     0.2268880000
   10      C       1.3810850000    -1.5949030000    -0.6754630000
   11      C       0.7118630000    -4.2236340000     1.9722870000
   12      C      -0.7029910000    -2.5278930000     0.2752120000
   13      C      -1.3981950000    -3.3558850000     1.1145350000
   14      O       3.5517800000    -4.2135330000     1.9303120000
   15      O       0.7638610000    -0.7964380000    -1.4706990000
   16      H       5.4988040000    -3.1818340000     0.8750460000
   17      H      -2.4817260000    -3.3522140000     1.1215060000
   18      H       3.0024890000    -0.1505780000    -2.1432220000
   19      H       1.2708940000    -4.8810080000     2.6284200000
   20      H      -1.2232910000    -1.8551070000    -0.3992720000
   21      C      -0.6900940000    -4.2430040000     2.0075890000
   22      H       5.4996510000    -0.1337200000    -2.1851840000
   23      C      -1.3587560000    -5.1443860000     2.9160920000
   24      O      -0.8671160000    -5.9241640000     3.7306060000
   25      O      -2.7569010000    -5.0847370000     2.7977330000
   26      C      -3.4766310000    -5.8790230000     3.7241440000
   27      H      -4.5317770000    -5.7764210000     3.4577420000
   28      H      -3.3264140000    -5.5374340000     4.7568160000
   29      H      -3.1801480000    -6.9305000000     3.6723810000
   30      H       6.7688060000    -1.6685680000    -0.6563120000
 ----------------------------------------------------------------

    9    -917.1563697070      7.63e-06  Convergence criterion met
 Total energy in the final basis set =     -917.1563697070

                    Orbital Energies (a.u.)
 --------------------------------------------------------------

 Alpha MOs
 -- Occupied --
-19.1482 -19.0961 -19.0444 -19.0254 -10.2841 -10.2075 -10.1988 -10.1800
-10.1645 -10.1624 -10.1588 -10.1562 -10.1552 -10.1524 -10.1519 -10.1501
-10.1491 -10.1488 -10.1477 -10.1385  -1.0815  -0.9982  -0.9681  -0.9447
 -0.8381  -0.8314  -0.7684  -0.7389  -0.7312  -0.7281  -0.6979  -0.6486
 -0.6247  -0.6021  -0.5720  -0.5550  -0.5366  -0.5209  -0.5083  -0.4729
 -0.4669  -0.4658  -0.4451  -0.4382  -0.4307  -0.4197  -0.4084  -0.4057
 -0.3961  -0.3854  -0.3850  -0.3835  -0.3778  -0.3636  -0.3478  -0.3433
 -0.3401  -0.3310  -0.3220  -0.3090  -0.3076  -0.2939  -0.2736  -0.2435
 -0.2383  -0.2324  -0.2257  -0.2192  -0.2049  -0.1165

          Ground-State Mulliken Net Atomic Charges

     Atom                 Charge (a.u.)
  ----------------------------------------
      1 C                    -0.001171
      2 C                    -0.509610
      3 C                    -0.493896
      4 C                     0.441353
      5 C                     0.368625
      6 C                    -0.049026
      7 C                    -0.549283
      8 C                     0.260230
      9 C                     0.285578
     10 C                    -0.620441
     11 C                    -0.053023
     12 C                    -0.217992
     13 C                    -0.642564
     14 O                    -0.587452
     15 O                    -0.675668
     16 H                     0.153231
     17 H                     0.185825
     18 H                     0.154811
     19 H                     0.147285
     20 H                     0.151129
     21 C                     0.078861
     22 H                     0.183213
     23 C                     0.151265
     24 O                    -0.419911
     25 O                    -0.181006
     26 C                    -0.258286
     27 H                     0.160763
     28 H                     0.179598
     29 H                     0.175029
     30 H                     0.182531
  ----------------------------------------
  Sum of atomic charges =    -2.000000

                    Cartesian Multipole Moments
 -----------------------------------------------------------------
    Charge (ESU x 10^10)
                -9.6064
    Dipole Moment (Debye)
         X     -15.7334      Y      27.9484      Z      -6.0575
       Tot      32.6396
    Quadrupole Moments (Debye-Ang)
        XX    -170.6474     XY      51.4826     YY    -239.6891
        XZ     -16.1961     YZ      49.6613     ZZ    -162.0810

 Total job time:  110.29s(wall), 441.75s(cpu)
        *  Thank you very much for using Q-Chem.  Have a nice day.  *
