 Q-Chem 5.4, Q-Chem, Inc., Pleasanton, CA (2021)
 Q-Chem 5.4.0 for Intel X86 EM64T Linux

User input:
--------------------------------------------------------------
$molecule
-3 1
C                 -1.8380980000      2.7917900000     -0.8044880000
C                 -2.9326890000      1.9957400000     -0.5214910000
C                 -2.7174240000      0.6759040000     -0.0579150000
C                 -0.5030280000      2.3406220000     -0.6438340000
C                 -0.2879180000      0.9804410000     -0.1968100000
C                 -1.4284100000      0.1917130000      0.0974370000
C                  0.5897230000      3.2608680000     -0.9721090000
C                  1.9751460000      2.7413280000     -0.8153970000
C                  2.1112640000      1.3779230000     -0.3673600000
C                  1.0647810000      0.5238420000     -0.0720410000
O                  0.3635070000      4.4450740000     -1.3668100000
O                  2.9976470000      3.4623430000     -1.0602850000
H                 -1.9629100000      3.8085740000     -1.1625580000
H                 -3.9484180000      2.3716750000     -0.6540160000
H                 -3.5689900000      0.0363140000      0.1678770000
H                 -1.2726630000     -0.8210540000      0.4469310000
H                  3.1252220000      1.0085310000     -0.2595450000
S                  1.4734140000     -1.1767550000      0.4849170000
O                  2.9684260000     -1.2698670000      0.4863820000
O                  0.8470240000     -2.1209250000     -0.4981330000
O                  0.8937450000     -1.3354810000      1.8595200000
$end
$rem
MAX_SCF_CYCLES=200
BASIS  =  6-311++G(d,p)
GUI  =  2
JOB_TYPE  =  SP
METHOD  =  B3LYP
SOLVENT_METHOD = PCM
$end
$pcm
theory = CPCM
$end
$solvent
dielectric 37.219
opticaldielectric 1.43
$end

--------------------------------------------------------------

             Standard Nuclear Orientation (Angstroms)
    I     Atom           X                Y                Z
 ----------------------------------------------------------------
    1      C      -1.8380980000     2.7917900000    -0.8044880000
    2      C      -2.9326890000     1.9957400000    -0.5214910000
    3      C      -2.7174240000     0.6759040000    -0.0579150000
    4      C      -0.5030280000     2.3406220000    -0.6438340000
    5      C      -0.2879180000     0.9804410000    -0.1968100000
    6      C      -1.4284100000     0.1917130000     0.0974370000
    7      C       0.5897230000     3.2608680000    -0.9721090000
    8      C       1.9751460000     2.7413280000    -0.8153970000
    9      C       2.1112640000     1.3779230000    -0.3673600000
   10      C       1.0647810000     0.5238420000    -0.0720410000
   11      O       0.3635070000     4.4450740000    -1.3668100000
   12      O       2.9976470000     3.4623430000    -1.0602850000
   13      H      -1.9629100000     3.8085740000    -1.1625580000
   14      H      -3.9484180000     2.3716750000    -0.6540160000
   15      H      -3.5689900000     0.0363140000     0.1678770000
   16      H      -1.2726630000    -0.8210540000     0.4469310000
   17      H       3.1252220000     1.0085310000    -0.2595450000
   18      S       1.4734140000    -1.1767550000     0.4849170000
   19      O       2.9684260000    -1.2698670000     0.4863820000
   20      O       0.8470240000    -2.1209250000    -0.4981330000
   21      O       0.8937450000    -1.3354810000     1.8595200000
 ----------------------------------------------------------------

    9   -1158.9872803796      5.67e-06  Convergence criterion met
 Total energy in the final basis set =    -1158.9872803796

                    Orbital Energies (a.u.)
 --------------------------------------------------------------

 Alpha MOs
 -- Occupied --
-89.0266 -19.0751 -19.0730 -19.0728 -19.0268 -19.0200 -10.1735 -10.1691
-10.1534 -10.1529 -10.1478 -10.1465 -10.1460 -10.1435 -10.1382 -10.1291
 -8.0854  -6.0485  -6.0482  -6.0466  -1.0864  -0.9569  -0.9523  -0.9496
 -0.9279  -0.8313  -0.7753  -0.7251  -0.6985  -0.6585  -0.5930  -0.5858
 -0.5583  -0.5260  -0.4822  -0.4722  -0.4560  -0.4364  -0.4339  -0.4190
 -0.4090  -0.3987  -0.3825  -0.3755  -0.3654  -0.3514  -0.3336  -0.3238
 -0.3222  -0.3190  -0.3123  -0.3062  -0.2843  -0.2777  -0.2697  -0.2594
 -0.2412  -0.2285  -0.2147  -0.1960  -0.1865  -0.1168

          Ground-State Mulliken Net Atomic Charges

     Atom                 Charge (a.u.)
  ----------------------------------------
      1 C                     0.067067
      2 C                    -0.528421
      3 C                    -0.884742
      4 C                     0.495471
      5 C                     0.908447
      6 C                    -0.568697
      7 C                    -0.585042
      8 C                     0.028306
      9 C                     0.128014
     10 C                    -0.797727
     11 O                    -0.674479
     12 O                    -0.729437
     13 H                     0.144011
     14 H                     0.172081
     15 H                     0.175482
     16 H                     0.133561
     17 H                     0.197864
     18 S                     0.608813
     19 O                    -0.400326
     20 O                    -0.444230
     21 O                    -0.446018
  ----------------------------------------
  Sum of atomic charges =    -3.000000

                    Cartesian Multipole Moments
 -----------------------------------------------------------------
    Charge (ESU x 10^10)
               -14.4096
    Dipole Moment (Debye)
         X     -19.5293      Y     -19.2966      Z       4.9348
       Tot      27.8945
    Quadrupole Moments (Debye-Ang)
        XX    -168.9335     XY     -26.5301     YY    -241.5117
        XZ       7.1582     YZ      37.8595     ZZ    -132.9726

 Total job time:  38.79s(wall), 234.70s(cpu)
        *  Thank you very much for using Q-Chem.  Have a nice day.  *
