 Q-Chem 5.4, Q-Chem, Inc., Pleasanton, CA (2021)
 Q-Chem 5.4.0 for Intel X86 EM64T Linux

User input:
--------------------------------------------------------------
$molecule
-1 2
C                 -0.2467320000      0.9367880000      0.3703690000
C                 -1.3626200000      0.1520990000     -0.1244070000
C                 -1.2368980000     -1.1573340000     -0.4659770000
C                  0.0203430000     -1.8678040000     -0.3617360000
C                  1.1682450000     -1.1095420000      0.1292500000
C                  1.0377610000      0.2364770000      0.4931980000
O                 -0.4034760000      2.1575270000      0.6391500000
O                  0.1024410000     -3.0890150000     -0.6825130000
C                  2.2115030000      0.9952650000      1.0061180000
C                  2.0030620000      2.1044810000      2.0281970000
O                  3.3617040000      0.7402100000      0.6571010000
H                 -2.3084000000      0.6787870000     -0.2143820000
H                 -2.0818030000     -1.7312800000     -0.8368070000
H                  1.1615670000      1.9067210000      2.6934990000
H                  1.7677940000      3.0354360000      1.5082330000
H                  2.9338960000      2.2185120000      2.5894810000
C                  2.4536110000     -1.8892290000      0.2424290000
H                  2.2181140000     -2.9540750000      0.2356500000
H                  3.0188390000     -1.6250510000      1.1376080000
H                  3.1144390000     -1.6807350000     -0.6053780000
$end

$rem
BASIS  =  6-311++G(d,p)
GUI  =  2
JOB_TYPE  =  SP
METHOD  =  B3LYP
SCF_CONVERGENCE  = 8
SOLVENT_METHOD = sm12
$end

$smx
solvent dimethylformamide
charges CM5
$end

--------------------------------------------------------------

             Standard Nuclear Orientation (Angstroms)
    I     Atom           X                Y                Z
 ----------------------------------------------------------------
    1      C      -0.2467320000     0.9367880000     0.3703690000
    2      C      -1.3626200000     0.1520990000    -0.1244070000
    3      C      -1.2368980000    -1.1573340000    -0.4659770000
    4      C       0.0203430000    -1.8678040000    -0.3617360000
    5      C       1.1682450000    -1.1095420000     0.1292500000
    6      C       1.0377610000     0.2364770000     0.4931980000
    7      O      -0.4034760000     2.1575270000     0.6391500000
    8      O       0.1024410000    -3.0890150000    -0.6825130000
    9      C       2.2115030000     0.9952650000     1.0061180000
   10      C       2.0030620000     2.1044810000     2.0281970000
   11      O       3.3617040000     0.7402100000     0.6571010000
   12      H      -2.3084000000     0.6787870000    -0.2143820000
   13      H      -2.0818030000    -1.7312800000    -0.8368070000
   14      H       1.1615670000     1.9067210000     2.6934990000
   15      H       1.7677940000     3.0354360000     1.5082330000
   16      H       2.9338960000     2.2185120000     2.5894810000
   17      C       2.4536110000    -1.8892290000     0.2424290000
   18      H       2.2181140000    -2.9540750000     0.2356500000
   19      H       3.0188390000    -1.6250510000     1.1376080000
   20      H       3.1144390000    -1.6807350000    -0.6053780000
 ----------------------------------------------------------------

   17    -573.6630403782      9.81e-09  Convergence criterion met
 Total energy in the final basis set =     -573.7425503808

                    Orbital Energies (a.u.)
 --------------------------------------------------------------

 Alpha MOs
 -- Occupied --
-19.1067 -19.0828 -19.0814 -10.2591 -10.2325 -10.2249 -10.1915 -10.1779
-10.1767 -10.1743 -10.1642 -10.1615  -1.0382  -1.0067  -1.0033  -0.8348
 -0.7788  -0.7467  -0.7053  -0.6714  -0.6211  -0.5680  -0.5315  -0.4932
 -0.4712  -0.4629  -0.4466  -0.4289  -0.4234  -0.4173  -0.4079  -0.4042
 -0.3953  -0.3889  -0.3730  -0.3668  -0.3651  -0.3529  -0.2863  -0.2655
 -0.2568  -0.2470  -0.2364  -0.1704

 Beta MOs
 -- Occupied --
-19.1062 -19.0752 -19.0748 -10.2591 -10.2318 -10.2239 -10.1890 -10.1773
-10.1762 -10.1732 -10.1642 -10.1616  -1.0372  -0.9959  -0.9894  -0.8286
 -0.7761  -0.7448  -0.7026  -0.6642  -0.6179  -0.5642  -0.5291  -0.4911
 -0.4683  -0.4609  -0.4423  -0.4271  -0.4169  -0.4151  -0.4047  -0.3988
 -0.3902  -0.3799  -0.3647  -0.3621  -0.3522  -0.3453  -0.2603  -0.2558
 -0.2490  -0.2400  -0.2314

          Ground-State Mulliken Net Atomic Charges

     Atom                 Charge (a.u.)    Spin (a.u.)
  --------------------------------------------------------
      1 C                    -1.363522       0.040693
      2 C                     0.241689       0.083348
      3 C                     0.364563       0.040366
      4 C                    -1.665801       0.061518
      5 C                     0.062267       0.178150
      6 C                     0.861526       0.051703
      7 O                    -0.315638       0.225239
      8 O                    -0.354638       0.290077
      9 C                    -0.033270       0.009522
     10 C                    -0.040071       0.004174
     11 O                    -0.232571       0.018318
     12 H                     0.260491      -0.007571
     13 H                     0.256624      -0.004539
     14 H                     0.149320      -0.000392
     15 H                     0.159797       0.001027
     16 H                     0.252492      -0.000715
     17 C                    -0.093383      -0.004213
     18 H                     0.154008      -0.001441
     19 H                     0.156091       0.004225
     20 H                     0.180025       0.010513
  --------------------------------------------------------
  Sum of atomic charges =    -1.000000

                    Cartesian Multipole Moments
 -----------------------------------------------------------------
    Charge (ESU x 10^10)
                -4.8032
    Dipole Moment (Debye)
         X      -3.7089      Y       1.9931      Z       0.1271
       Tot       4.2125
    Quadrupole Moments (Debye-Ang)
        XX     -91.7341     XY       0.4468     YY    -105.7659
        XZ      -0.4959     YZ      -7.2821     ZZ     -75.0855

 Total job time:  313.74s(wall), 2166.04s(cpu)
        *  Thank you very much for using Q-Chem.  Have a nice day.  *
