 Q-Chem 5.4, Q-Chem, Inc., Pleasanton, CA (2021)
 Q-Chem 5.4.0 for Intel X86 EM64T Linux

User input:
--------------------------------------------------------------
$molecule
0 1
C                  3.0300810000     -1.1152990000     -0.1381190000
C                  1.7403840000     -0.3660440000     -0.0005070000
C                  1.6543660000      0.9222000000      0.3641780000
C                  0.3634010000      1.6281120000      0.4893180000
O                  0.3380090000      2.8038300000      0.8253130000
C                 -0.8968120000      0.8771360000      0.1981010000
C                 -0.8379060000     -0.4231020000     -0.1724290000
C                 -2.0668790000     -1.2331390000     -0.4789440000
C                  0.4793940000     -1.1206110000     -0.2930380000
O                  0.5409780000     -2.2944030000     -0.6261080000
C                 -2.1909340000      1.6273640000      0.3361130000
H                  3.1435890000     -1.5033730000     -1.1540360000
H                  3.8806640000     -0.4743660000      0.0968960000
H                  3.0428140000     -1.9850790000      0.5243700000
H                  2.5322050000      1.5194890000      0.5883510000
H                 -2.7291230000     -1.2826940000      0.3914310000
H                 -1.7956080000     -2.2469310000     -0.7675920000
H                 -2.6421990000     -0.7784760000     -1.2915990000
H                 -2.8451210000      1.1481040000      1.0714560000
H                 -2.0045200000      2.6530940000      0.6496100000
H                 -2.7367830000      1.6441890000     -0.6127660000
$end
$rem
MAX_SCF_CYCLES=200
BASIS  =  6-311++G(d,p)
GUI  =  2
JOB_TYPE  =  SP
METHOD  =  B3LYP
SOLVENT_METHOD = COSMO
$end
$solvent
dielectric 37.219
opticaldielectric 1.43
$end

--------------------------------------------------------------

             Standard Nuclear Orientation (Angstroms)
    I     Atom           X                Y                Z
 ----------------------------------------------------------------
    1      C       3.0295171746     0.7567407474     0.0000460641
    2      C       1.5410734781     0.5888901254     0.0000239332
    3      C       0.6693412994     1.6087184680    -0.0000717132
    4      C      -0.7930738394     1.4040129140    -0.0000445158
    5      O      -1.5466096387     2.3673581249    -0.0001590723
    6      C      -1.3223150347     0.0051516572     0.0001564805
    7      C      -0.4644715719    -1.0415027428    -0.0004873452
    8      C      -0.9321103505    -2.4704184135    -0.0004927081
    9      C       1.0134859022    -0.8134981492    -0.0000015531
   10      O       1.7944492665    -1.7529724731     0.0003011519
   11      C      -2.8149157697    -0.1645069393     0.0005053124
   12      H       3.4718553421     0.2716878952    -0.8743871939
   13      H       3.3031036530     1.8125196109    -0.0001296107
   14      H       3.4717836097     0.2719897623     0.8746819516
   15      H       0.9917260520     2.6449023556    -0.0001965090
   16      H      -1.5374606881    -2.6832776162     0.8865345648
   17      H      -0.0832409548    -3.1515386739    -0.0137510071
   18      H      -1.5611559754    -2.6759442143    -0.8723759812
   19      H      -3.1443573860    -0.7332933759     0.8759082580
   20      H      -3.3081499797     0.8059659795     0.0079153938
   21      H      -3.1460084239    -0.7196229410    -0.8831402314
 ----------------------------------------------------------------

    9    -499.5540596310      2.80e-06  Convergence criterion met
 Total energy in the final basis set =     -499.5540596310
    4    -499.5661751075      8.77e-06  Convergence criterion met
 Total energy in the final basis set =     -499.5661751075

                    Orbital Energies (a.u.)
 --------------------------------------------------------------

 Alpha MOs
 -- Occupied --
-19.1396 -19.1376 -10.2829 -10.2809 -10.2160 -10.2092 -10.2084 -10.1977
-10.1736 -10.1699 -10.1697  -1.0716  -1.0681  -0.8654  -0.8217  -0.7470
 -0.7330  -0.6896  -0.6606  -0.5956  -0.5770  -0.5357  -0.4931  -0.4717
 -0.4651  -0.4422  -0.4343  -0.4275  -0.4222  -0.4207  -0.4093  -0.4037
 -0.3953  -0.3923  -0.3808  -0.3723  -0.2990  -0.2919  -0.2749  -0.2711

          Ground-State Mulliken Net Atomic Charges

     Atom                 Charge (a.u.)
  ----------------------------------------
      1 C                    -0.292286
      2 C                     1.021948
      3 C                    -0.550533
      4 C                    -0.813489
      5 O                    -0.321963
      6 C                     0.987969
      7 C                     0.294945
      8 C                    -0.590992
      9 C                    -0.867877
     10 O                    -0.294798
     11 C                    -0.483510
     12 H                     0.194682
     13 H                     0.181657
     14 H                     0.194754
     15 H                     0.217614
     16 H                     0.182390
     17 H                     0.198303
     18 H                     0.180143
     19 H                     0.182682
     20 H                     0.194497
     21 H                     0.183864
  ----------------------------------------
  Sum of atomic charges =     0.000000

                    Cartesian Multipole Moments
 -----------------------------------------------------------------
    Charge (ESU x 10^10)
                 0.0000
    Dipole Moment (Debye)
         X       0.0558      Y      -1.0614      Z       0.0006
       Tot       1.0629
    Quadrupole Moments (Debye-Ang)
        XX     -63.8968     XY      16.5569     YY     -74.7872
        XZ      -0.0005     YZ      -0.0032     ZZ     -64.4692

 Total job time:  21.11s(wall), 155.49s(cpu)
        *  Thank you very much for using Q-Chem.  Have a nice day.  *
