 Gaussian 16, Revision A.03,
 Gaussian 16:  ES64L-G16RevA.03 25-Dec-2016

 ----------------------------------------------------------------
 #P UB3LYP/6-311++G(d,p) SCRF=(PCM,Solvent=n,n-DiMethylFormamide)
 ----------------------------------------------------------------

 ------------------
 Radical PCM in DMF
 ------------------
 Symbolic Z-matrix:
 Charge = -1 Multiplicity = 2

                         Standard orientation:
 ---------------------------------------------------------------------
 Center     Atomic      Atomic             Coordinates (Angstroms)
 Number     Number       Type             X           Y           Z
 ---------------------------------------------------------------------
      1          6           0       -4.331842   -1.097846    1.019451
      2          6           0       -3.683554   -0.811595   -0.348784
      3          6           0       -2.286019   -0.246563   -0.252486
      4          6           0       -1.201094   -1.216245   -0.205152
      5          8           0       -1.452243   -2.443681   -0.246292
      6          6           0        0.172231   -0.683309   -0.106164
      7          6           0        1.315772   -1.515013   -0.065488
      8          8           0        1.236461   -2.882338   -0.121076
      9          6           0        2.585721   -0.947361    0.033688
     10          8           0        3.678267   -1.801889    0.069938
     11          6           0        2.761669    0.430693    0.094811
     12          8           0        4.046455    0.929644    0.192744
     13          6           0        1.666467    1.275841    0.056679
     14          6           0        0.364311    0.733997   -0.044794
     15          6           0       -0.741517    1.672189   -0.082888
     16          6           0       -2.054762    1.116409   -0.185658
     17          8           0       -3.078262    2.038584   -0.211060
     18          8           0       -0.534446    2.943995   -0.024060
     19          8           0        1.905197    2.611729    0.119053
     20          1           0       -3.722415   -1.818893    1.568316
     21          1           0       -4.410009   -0.190739    1.627457
     22          1           0       -5.337981   -1.518188    0.902465
     23          1           0       -3.617001   -1.751563   -0.901539
     24          1           0       -4.341628   -0.153192   -0.937426
     25          1           0        2.143266   -3.211394   -0.077227
     26          1           0       -3.903149    1.557304   -0.328090
     27          1           0        0.951171    3.014773    0.072968
     28          1           0        4.470997   -1.256808    0.138990
     29          1           0        3.951021    1.893164    0.220825
 ---------------------------------------------------------------------

 SCF Done:  E(UB3LYP) =  -990.311953874     A.U. after   20 cycles

 The electronic state is 2-A.
 Alpha  occ. eigenvalues --  -19.16786 -19.16532 -19.15239 -19.15204 -19.13194
 Alpha  occ. eigenvalues --  -19.09068 -19.07025 -10.23739 -10.23685 -10.23388
 Alpha  occ. eigenvalues --  -10.23108 -10.22799 -10.22682 -10.22585 -10.17839
 Alpha  occ. eigenvalues --  -10.17796 -10.16942 -10.16620 -10.15743  -1.09035
 Alpha  occ. eigenvalues --   -1.07271  -1.06393  -1.05369  -1.04416  -0.99993
 Alpha  occ. eigenvalues --   -0.99844  -0.85768  -0.81129  -0.77172  -0.74323
 Alpha  occ. eigenvalues --   -0.72851  -0.68393  -0.65221  -0.64212  -0.61398
 Alpha  occ. eigenvalues --   -0.58280  -0.58094  -0.55085  -0.54460  -0.52039
 Alpha  occ. eigenvalues --   -0.50496  -0.48634  -0.46684  -0.46455  -0.46005
 Alpha  occ. eigenvalues --   -0.44111  -0.43475  -0.42200  -0.41811  -0.41191
 Alpha  occ. eigenvalues --   -0.41031  -0.40342  -0.38869  -0.38704  -0.38574
 Alpha  occ. eigenvalues --   -0.38343  -0.37742  -0.36580  -0.36440  -0.36126
 Alpha  occ. eigenvalues --   -0.35109  -0.34517  -0.33825  -0.30183  -0.26021
 Alpha  occ. eigenvalues --   -0.25102  -0.23422  -0.22208  -0.21592  -0.14626
 Alpha virt. eigenvalues --   -0.01628  -0.01433  -0.00506   0.00121   0.00826
 Alpha virt. eigenvalues --    0.01848   0.02242   0.02409   0.03987   0.04506
 Alpha virt. eigenvalues --    0.04695   0.05371   0.05494   0.06038   0.06354

  Beta  occ. eigenvalues --  -19.16753 -19.16519 -19.15198 -19.15175 -19.13127
  Beta  occ. eigenvalues --  -19.08530 -19.06511 -10.23682 -10.23615 -10.23366
  Beta  occ. eigenvalues --  -10.23009 -10.22575 -10.22515 -10.22460 -10.17875
  Beta  occ. eigenvalues --  -10.17777 -10.16953 -10.16467 -10.15727  -1.08963
  Beta  occ. eigenvalues --   -1.07193  -1.06243  -1.05282  -1.04246  -0.99117
  Beta  occ. eigenvalues --   -0.98955  -0.85564  -0.80741  -0.76966  -0.74045
  Beta  occ. eigenvalues --   -0.72691  -0.67710  -0.65071  -0.64076  -0.61221
  Beta  occ. eigenvalues --   -0.58058  -0.58022  -0.54925  -0.54240  -0.51970
  Beta  occ. eigenvalues --   -0.50398  -0.48464  -0.46482  -0.46199  -0.45572
  Beta  occ. eigenvalues --   -0.43957  -0.42836  -0.41967  -0.41243  -0.40880
  Beta  occ. eigenvalues --   -0.40662  -0.40113  -0.38676  -0.38410  -0.38402
  Beta  occ. eigenvalues --   -0.37944  -0.37320  -0.36333  -0.36237  -0.35233
  Beta  occ. eigenvalues --   -0.34382  -0.33682  -0.33498  -0.29221  -0.25586
  Beta  occ. eigenvalues --   -0.23388  -0.22928  -0.21695  -0.20507
  Beta virt. eigenvalues --   -0.08514  -0.01572  -0.00608   0.00126   0.00799
  Beta virt. eigenvalues --    0.01031   0.01899   0.02293   0.02429   0.04018
  Beta virt. eigenvalues --    0.04530   0.04721   0.05430   0.05542   0.06333

 Mulliken charges and spin densities:
               1          2
     1  C   -0.585218   0.002542
     2  C   -0.128108   0.007040
     3  C    1.311404   0.115570
     4  C   -0.449265   0.062824
     5  O   -0.463782   0.191422
     6  C    0.580751   0.032210
     7  C   -0.252087   0.034451
     8  O   -0.279933   0.006419
     9  C   -0.323018   0.053445
    10  O   -0.338907   0.008125
    11  C   -0.261875   0.013149
    12  O   -0.342534   0.003545
    13  C    0.049602   0.080460
    14  C    0.851497  -0.042357
    15  C   -0.588871   0.193314
    16  C   -0.841655   0.011645
    17  O   -0.281726   0.012015
    18  O   -0.550087   0.193611
    19  O   -0.521925   0.020148
    20  H    0.166245  -0.001789
    21  H    0.145681   0.000847
    22  H    0.138770   0.003614
    23  H    0.196676   0.003352
    24  H    0.123495   0.000376
    25  H    0.299652  -0.000477
    26  H    0.291134  -0.000805
    27  H    0.423209  -0.004098
    28  H    0.313724  -0.000366
    29  H    0.317150  -0.000231
 Sum of Mulliken charges =  -1.00000   1.00000

 Dipole moment (field-independent basis, Debye):
    X=              2.5421    Y=             -0.8409    Z=              0.4519  Tot=              2.7155
 Quadrupole moment (field-independent basis, Debye-Ang):
   XX=           -106.1480   YY=           -157.0192   ZZ=           -114.8624
   XY=             -2.7479   XZ=              0.8405   YZ=             -1.4992

 Normal termination of Gaussian 16 at Thu Jan 25 05:50:33 2024.
