 Gaussian 16, Revision A.03,
 Gaussian 16:  ES64L-G16RevA.03 25-Dec-2016

 ----------------------------------------------------------------------
 #P UB3LYP/6-311++G(d,p) nosym opt freq SCRF=(PCM,Solvent=n,n-DiMethylF
 ormamide)
 ----------------------------------------------------------------------

 --------
 Oxidized
 --------
 Symbolic Z-matrix:
 Charge =  0 Multiplicity = 1

 SCF Done:  E(UB3LYP) =  -767.615903586     A.U. after   15 cycles
 SCF Done:  E(UB3LYP) =  -767.615999050     A.U. after   11 cycles
 SCF Done:  E(UB3LYP) =  -767.616011247     A.U. after   10 cycles
 SCF Done:  E(UB3LYP) =  -767.616011614     A.U. after    8 cycles
 SCF Done:  E(UB3LYP) =  -767.616011925     A.U. after    8 cycles
 SCF Done:  E(UB3LYP) =  -767.616012065     A.U. after    9 cycles
 SCF Done:  E(UB3LYP) =  -767.616012142     A.U. after    8 cycles
 SCF Done:  E(UB3LYP) =  -767.616012484     A.U. after    9 cycles
 SCF Done:  E(UB3LYP) =  -767.616012597     A.U. after    9 cycles
 SCF Done:  E(UB3LYP) =  -767.616012647     A.U. after    9 cycles
 SCF Done:  E(UB3LYP) =  -767.616012670     A.U. after    8 cycles
 SCF Done:  E(UB3LYP) =  -767.616012679     A.U. after    8 cycles
 Optimization completed.
    -- Stationary point found.
 Normal termination of Gaussian 16 at Sat Feb 10 16:47:00 2024.

 ----------------------------------------------------------------------
 #P Geom=AllCheck Guess=TCheck SCRF=Check GenChk UB3LYP/6-311++G(d,p) F
 req
 ----------------------------------------------------------------------

 Structure from the checkpoint file:  "125.chk"
 --------
 Oxidized
 --------
 Charge =  0 Multiplicity = 1

                          Input orientation:
 ---------------------------------------------------------------------
 Center     Atomic      Atomic             Coordinates (Angstroms)
 Number     Number       Type             X           Y           Z
 ---------------------------------------------------------------------
      1          6           0       -4.709467   -0.341676   -0.547297
      2          6           0       -3.992925   -0.440734    0.812093
      3          6           0       -2.569967    0.062447    0.755021
      4          6           0       -2.280145    1.423375    0.939008
      5          6           0       -0.977833    1.897761    0.853269
      6          6           0        0.079184    1.023608    0.581132
      7          6           0        1.464531    1.553853    0.494871
      8          8           0        1.702530    2.745606    0.653750
      9          6           0        2.558989    0.583190    0.206212
     10          6           0        3.875480    1.045289    0.115423
     11          6           0        4.913863    0.159965   -0.153874
     12          6           0        4.645260   -1.199102   -0.335461
     13          6           0        3.339185   -1.668605   -0.246427
     14          6           0        2.288404   -0.786494    0.024112
     15          6           0        0.898365   -1.316823    0.114468
     16          8           0        0.665152   -2.509355   -0.039319
     17          6           0       -0.194951   -0.344961    0.397661
     18          6           0       -1.510180   -0.806708    0.486419
     19          1           0       -4.193134   -0.934763   -1.306811
     20          1           0       -5.734566   -0.711920   -0.465591
     21          1           0       -4.749267    0.693599   -0.896417
     22          1           0       -4.549861    0.136166    1.556225
     23          1           0       -3.995438   -1.481627    1.147171
     24          1           0       -3.086883    2.115426    1.156332
     25          1           0       -0.762761    2.948787    0.999486
     26          1           0        4.069270    2.100761    0.258196
     27          1           0        5.931586    0.525728   -0.222798
     28          1           0        5.454263   -1.888705   -0.545735
     29          1           0        3.116690   -2.718979   -0.384706
     30          1           0       -1.695371   -1.865111    0.345286
 ---------------------------------------------------------------------

 SCF Done:  E(UB3LYP) =  -767.616012679     A.U. after    1 cycles

 Alpha  occ. eigenvalues --  -19.13192 -19.13056 -10.28414 -10.28310 -10.21019
 Alpha  occ. eigenvalues --  -10.20969 -10.20878 -10.20658 -10.20589 -10.19985
 Alpha  occ. eigenvalues --  -10.19939 -10.19882 -10.19868 -10.19758 -10.19556
 Alpha  occ. eigenvalues --  -10.19499 -10.18086 -10.16627  -1.06485  -1.06248
 Alpha  occ. eigenvalues --   -0.89558  -0.88410  -0.82318  -0.79234  -0.77980
 Alpha  occ. eigenvalues --   -0.77507  -0.74686  -0.69042  -0.67111  -0.64942
 Alpha  occ. eigenvalues --   -0.62304  -0.61000  -0.58710  -0.56102  -0.54681
 Alpha  occ. eigenvalues --   -0.50683  -0.49452  -0.48757  -0.47716  -0.45888
 Alpha  occ. eigenvalues --   -0.45603  -0.45568  -0.45238  -0.44736  -0.44259
 Alpha  occ. eigenvalues --   -0.42807  -0.42032  -0.41885  -0.39802  -0.38701
 Alpha  occ. eigenvalues --   -0.38206  -0.37588  -0.36774  -0.36035  -0.35309
 Alpha  occ. eigenvalues --   -0.34889  -0.28864  -0.28860  -0.28069  -0.27726
 Alpha  occ. eigenvalues --   -0.27640  -0.26931
 Alpha virt. eigenvalues --   -0.11952  -0.07503  -0.03712  -0.02753  -0.00759
 Alpha virt. eigenvalues --   -0.00037   0.00877   0.01420   0.01674   0.01898
 Alpha virt. eigenvalues --    0.03122   0.03400   0.03582   0.03777   0.03869

  Beta  occ. eigenvalues --  -19.13192 -19.13056 -10.28414 -10.28310 -10.21019
  Beta  occ. eigenvalues --  -10.20969 -10.20878 -10.20658 -10.20589 -10.19985
  Beta  occ. eigenvalues --  -10.19939 -10.19882 -10.19868 -10.19758 -10.19556
  Beta  occ. eigenvalues --  -10.19499 -10.18086 -10.16627  -1.06485  -1.06248
  Beta  occ. eigenvalues --   -0.89558  -0.88410  -0.82318  -0.79234  -0.77980
  Beta  occ. eigenvalues --   -0.77507  -0.74686  -0.69042  -0.67111  -0.64942
  Beta  occ. eigenvalues --   -0.62304  -0.61000  -0.58710  -0.56102  -0.54681
  Beta  occ. eigenvalues --   -0.50683  -0.49452  -0.48757  -0.47716  -0.45888
  Beta  occ. eigenvalues --   -0.45603  -0.45568  -0.45238  -0.44736  -0.44259
  Beta  occ. eigenvalues --   -0.42807  -0.42032  -0.41885  -0.39802  -0.38701
  Beta  occ. eigenvalues --   -0.38206  -0.37588  -0.36774  -0.36035  -0.35309
  Beta  occ. eigenvalues --   -0.34889  -0.28864  -0.28860  -0.28069  -0.27726
  Beta  occ. eigenvalues --   -0.27640  -0.26931
  Beta virt. eigenvalues --   -0.11952  -0.07503  -0.03712  -0.02753  -0.00759
  Beta virt. eigenvalues --   -0.00037   0.00877   0.01420   0.01674   0.01898
  Beta virt. eigenvalues --    0.03122   0.03400   0.03582   0.03777   0.03869

 Mulliken charges and spin densities:
               1          2
     1  C   -0.660636  -0.000000
     2  C   -0.128680  -0.000000
     3  C    0.694884   0.000000
     4  C   -0.551890  -0.000000
     5  C    0.104037   0.000000
     6  C    0.173982   0.000000
     7  C   -0.725267  -0.000000
     8  O   -0.279916   0.000000
     9  C    0.104022  -0.000000
    10  C    0.191767   0.000000
    11  C   -0.420572  -0.000000
    12  C   -0.418005   0.000000
    13  C    0.154012  -0.000000
    14  C    0.345293  -0.000000
    15  C   -0.670441   0.000000
    16  O   -0.271969  -0.000000
    17  C    0.343429  -0.000000
    18  C   -0.142441   0.000000
    19  H    0.147905   0.000000
    20  H    0.150903   0.000000
    21  H    0.147372  -0.000000
    22  H    0.169512   0.000000
    23  H    0.171980   0.000000
    24  H    0.208932  -0.000000
    25  H    0.190608  -0.000000
    26  H    0.186832  -0.000000
    27  H    0.208191   0.000000
    28  H    0.208916   0.000000
    29  H    0.184697  -0.000000
    30  H    0.182545   0.000000
 Sum of Mulliken charges =  -0.00000   0.00000

 Dipole moment (field-independent basis, Debye):
    X=             -1.0113    Y=             -0.2665    Z=             -0.0555  Tot=              1.0473
 Quadrupole moment (field-independent basis, Debye-Ang):
   XX=            -71.4063   YY=           -117.3172   ZZ=           -107.1549
   XY=             -7.4188   XZ=             -5.6790   YZ=             -0.5863

  Exact polarizability: 386.406   0.599 300.680 -24.689  27.065 145.493
 Approx polarizability: 405.974  10.066 387.777 -26.582  35.438 169.296

                      1                      2                      3
                      A                      A                      A
 Frequencies --     20.0457                29.8766                72.2949
 Red. masses --      2.6370                 6.0957                 4.8252
 Frc consts  --      0.0006                 0.0032                 0.0149
 IR Inten    --      0.5303                 8.4603                 2.3876

                      4                      5                      6
                      A                      A                      A
 Frequencies --    109.2201               129.2934               167.2553
 Red. masses --      4.6202                 4.7219                 5.5882
 Frc consts  --      0.0325                 0.0465                 0.0921
 IR Inten    --      0.0295                 0.2940                 2.4164

                      7                      8                      9
                      A                      A                      A
 Frequencies --    172.6487               222.3047               232.9126
 Red. masses --      2.2428                 4.4084                 1.4749
 Frc consts  --      0.0394                 0.1284                 0.0471
 IR Inten    --      1.0382                 0.3017                 0.5758

                     10                     11                     12
                      A                      A                      A
 Frequencies --    281.7603               310.4753               362.5722
 Red. masses --      3.9317                 5.7345                 4.0715
 Frc consts  --      0.1839                 0.3257                 0.3154
 IR Inten    --      0.4210                 0.7615                 0.5328

                     13                     14                     15
                      A                      A                      A
 Frequencies --    378.0261               392.4917               412.5503
 Red. masses --      4.3616                 8.0344                 3.4272
 Frc consts  --      0.3672                 0.7292                 0.3437
 IR Inten    --      6.7677                43.2391                 1.0596

                     16                     17                     18
                      A                      A                      A
 Frequencies --    428.5037               440.9023               460.0337
 Red. masses --      5.1547                 3.3814                 4.3345
 Frc consts  --      0.5577                 0.3873                 0.5405
 IR Inten    --      0.5839                 0.0249                 1.0494

                     19                     20                     21
                      A                      A                      A
 Frequencies --    476.9240               555.2411               596.6017
 Red. masses --     10.6253                 4.9492                 4.5342
 Frc consts  --      1.4239                 0.8990                 0.9509
 IR Inten    --      0.1008                12.8641                 9.2001

                     22                     23                     24
                      A                      A                      A
 Frequencies --    645.3815               669.6089               682.9470
 Red. masses --      6.6945                 5.9682                 3.7022
 Frc consts  --      1.6429                 1.5766                 1.0174
 IR Inten    --     16.0603                 1.7362                21.3127

                     25                     26                     27
                      A                      A                      A
 Frequencies --    698.9350               725.3849               735.0312
 Red. masses --      6.5023                 2.7906                 3.5437
 Frc consts  --      1.8715                 0.8651                 1.1280
 IR Inten    --      0.3184                86.5817                32.0679

                     28                     29                     30
                      A                      A                      A
 Frequencies --    745.3318               796.2387               805.0030
 Red. masses --      3.8680                 1.1759                 3.9955
 Frc consts  --      1.2660                 0.4392                 1.5255
 IR Inten    --      8.9550                 3.0900                 0.1019

                     31                     32                     33
                      A                      A                      A
 Frequencies --    809.4124               843.8523               873.8127
 Red. masses --      1.9511                 5.2825                 1.5381
 Frc consts  --      0.7531                 2.2163                 0.6920
 IR Inten    --      7.7085                12.6620                30.8473

                     34                     35                     36
                      A                      A                      A
 Frequencies --    914.8534               940.2254               940.7390
 Red. masses --      1.4083                 1.4748                 7.0179
 Frc consts  --      0.6945                 0.7682                 3.6593
 IR Inten    --      0.7186                 9.8764               127.3086

                     37                     38                     39
                      A                      A                      A
 Frequencies --    955.1613              1000.8776              1002.0090
 Red. masses --      2.8588                 2.8376                 1.3974
 Frc consts  --      1.5367                 1.6748                 0.8266
 IR Inten    --     18.0494                30.5988                 2.7196

                     40                     41                     42
                      A                      A                      A
 Frequencies --   1007.5394              1023.9825              1056.1033
 Red. masses --      1.3698                 1.3322                 1.9539
 Frc consts  --      0.8193                 0.8230                 1.2840
 IR Inten    --      1.6861                 0.0002                 0.8760

                     43                     44                     45
                      A                      A                      A
 Frequencies --   1073.4059              1080.6196              1110.6044
 Red. masses --      1.8704                 1.5777                 2.5315
 Frc consts  --      1.2698                 1.0855                 1.8397
 IR Inten    --     26.1961                 8.7461                 0.7686

                     46                     47                     48
                      A                      A                      A
 Frequencies --   1123.8773              1163.0077              1177.8860
 Red. masses --      2.2355                 1.4683                 1.2261
 Frc consts  --      1.6637                 1.1701                 1.0022
 IR Inten    --      4.9604                20.3581                30.4596

                     49                     50                     51
                      A                      A                      A
 Frequencies --   1193.0665              1223.7460              1237.0876
 Red. masses --      2.0923                 2.6588                 1.7133
 Frc consts  --      1.7547                 2.3459                 1.5449
 IR Inten    --      7.0312                30.2276                 2.8314

                     52                     53                     54
                      A                      A                      A
 Frequencies --   1266.1095              1288.0372              1298.1417
 Red. masses --      1.3527                 1.6153                 5.4024
 Frc consts  --      1.2776                 1.5790                 5.3639
 IR Inten    --      3.4247                52.9435              1287.6678

                     55                     56                     57
                      A                      A                      A
 Frequencies --   1322.6464              1346.8981              1354.6754
 Red. masses --      2.0485                 1.5362                 6.5712
 Frc consts  --      2.1114                 1.6420                 7.1050
 IR Inten    --      9.9774                 4.0673               101.4817

                     58                     59                     60
                      A                      A                      A
 Frequencies --   1366.8323              1402.3836              1447.8471
 Red. masses --      5.8332                 1.2158                 3.2516
 Frc consts  --      6.4207                 1.4088                 4.0160
 IR Inten    --      1.6956                 3.7746                20.7692

                     61                     62                     63
                      A                      A                      A
 Frequencies --   1479.8230              1480.2588              1486.9153
 Red. masses --      1.0552                 2.4071                 1.0398
 Frc consts  --      1.3614                 3.1076                 1.3545
 IR Inten    --      7.5897                 4.8312                13.9071

                     64                     65                     66
                      A                      A                      A
 Frequencies --   1500.9439              1503.7647              1517.3368
 Red. masses --      2.6529                 1.1028                 2.8371
 Frc consts  --      3.5213                 1.4693                 3.8484
 IR Inten    --     18.7766                 8.4788                 3.1697

                     67                     68                     69
                      A                      A                      A
 Frequencies --   1595.9965              1610.1462              1617.6674
 Red. masses --      6.8466                 6.8608                 6.1451
 Frc consts  --     10.2752                10.4798                 9.4746
 IR Inten    --     49.3061                78.5928               432.5974

                     70                     71                     72
                      A                      A                      A
 Frequencies --   1629.1149              1690.0315              1700.4082
 Red. masses --      5.8808                12.2215                11.3720
 Frc consts  --      9.1958                20.5666                19.3729
 IR Inten    --     49.1503                30.4554               680.5146

                     73                     74                     75
                      A                      A                      A
 Frequencies --   3024.6301              3035.4832              3068.6074
 Red. masses --      1.0341                 1.0596                 1.1033
 Frc consts  --      5.5740                 5.7525                 6.1210
 IR Inten    --     48.3609                42.2776                 3.6601

                     76                     77                     78
                      A                      A                      A
 Frequencies --   3093.4090              3095.2905              3170.3307
 Red. masses --      1.1022                 1.1041                 1.0898
 Frc consts  --      6.2142                 6.2328                 6.4538
 IR Inten    --     64.9079                65.6102                15.7220

                     79                     80                     81
                      A                      A                      A
 Frequencies --   3178.4171              3187.0831              3190.6621
 Red. masses --      1.0875                 1.0903                 1.0914
 Frc consts  --      6.4728                 6.5252                 6.5464
 IR Inten    --      3.3054                 6.1632                10.8232

                     82                     83                     84
                      A                      A                      A
 Frequencies --   3201.4093              3202.8346              3205.9124
 Red. masses --      1.0926                 1.0926                 1.0955
 Frc consts  --      6.5978                 6.6035                 6.6336
 IR Inten    --      9.0534                 3.6647                19.3886

 - Thermochemistry -
 -------------------
 Temperature   298.150 Kelvin.  Pressure   1.00000 Atm.
 Atom     1 has atomic number  6 and mass  12.00000

 Molecular mass:   236.08373 amu.
 Principal axes and moments of inertia in atomic units:
                           1         2         3
     Eigenvalues --  1850.344606856.929658513.18026
           X            0.99754   0.03933   0.05809
           Y           -0.02779   0.98186  -0.18754
           Z           -0.06442   0.18546   0.98054
 This molecule is an asymmetric top.
 Rotational symmetry number  1.
 Warning -- assumption of classical behavior for rotation
           may cause significant error
 Rotational temperatures (Kelvin)      0.04681     0.01263     0.01017
 Rotational constants (GHZ):           0.97535     0.26320     0.21199
 Zero-point vibrational energy     616481.8 (Joules/Mol)
                                  147.34269 (Kcal/Mol)
 Warning -- explicit consideration of  21 degrees of freedom as
           vibrations may cause significant error
 Vibrational temperatures:     28.84    42.99   104.02   157.14   186.02
          (Kelvin)            240.64   248.40   319.85   335.11   405.39
                              446.70   521.66   543.90   564.71   593.57
                              616.52   634.36   661.89   686.19   798.87
                              858.38   928.56   963.42   982.61  1005.61
                             1043.67  1057.55  1072.37  1145.61  1158.22
                             1164.56  1214.12  1257.22  1316.27  1352.77
                             1353.51  1374.26  1440.04  1441.67  1449.62
                             1473.28  1519.50  1544.39  1554.77  1597.91
                             1617.01  1673.31  1694.72  1716.56  1760.70
                             1779.89  1821.65  1853.20  1867.74  1902.99
                             1937.89  1949.08  1966.57  2017.72  2083.13
                             2129.14  2129.76  2139.34  2159.52  2163.58
                             2183.11  2296.28  2316.64  2327.46  2343.93
                             2431.58  2446.51  4351.77  4367.38  4415.04
                             4450.73  4453.43  4561.40  4573.03  4585.50
                             4590.65  4606.11  4608.16  4612.59

 Zero-point correction=                           0.234806 (Hartree/Particle)
 Thermal correction to Energy=                    0.249231
 Thermal correction to Enthalpy=                  0.250175
 Thermal correction to Gibbs Free Energy=         0.191876
 Sum of electronic and zero-point Energies=           -767.381207
 Sum of electronic and thermal Energies=              -767.366782
 Sum of electronic and thermal Enthalpies=            -767.365838
 Sum of electronic and thermal Free Energies=         -767.424137

                     E (Thermal)             CV                S
                      KCal/Mol        Cal/Mol-Kelvin    Cal/Mol-Kelvin
 Total                  156.395             56.597            122.701
 Electronic               0.000              0.000              0.000
 Translational            0.889              2.981             42.279
 Rotational               0.889              2.981             33.046
 Vibrational            154.617             50.636             47.377
 Vibration     1          0.593              1.986              6.630
 Vibration     2          0.594              1.984              5.838
 Vibration     3          0.598              1.967              4.090
 Vibration     4          0.606              1.942              3.283
 Vibration     5          0.612              1.924              2.957
 Vibration     6          0.624              1.883              2.466
 Vibration     7          0.626              1.876              2.406
 Vibration     8          0.648              1.807              1.940
 Vibration     9          0.654              1.791              1.856
 Vibration    10          0.681              1.707              1.523
 Vibration    11          0.699              1.654              1.360
 Vibration    12          0.736              1.549              1.111
 Vibration    13          0.748              1.517              1.047
 Vibration    14          0.760              1.486              0.991
 Vibration    15          0.776              1.443              0.918
 Vibration    16          0.790              1.408              0.864
 Vibration    17          0.801              1.381              0.824
 Vibration    18          0.818              1.339              0.766
 Vibration    19          0.833              1.301              0.718
 Vibration    20          0.911              1.128              0.533
 Vibration    21          0.954              1.039              0.456

 Optimization completed.
    -- Stationary point found.
 Normal termination of Gaussian 16 at Sat Feb 10 17:43:48 2024.
