 Gaussian 16, Revision A.03,
 Gaussian 16:  ES64L-G16RevA.03 25-Dec-2016

 --------------------------------------
 #P UB3LYP/6-311++G(d,p) nosym opt freq
 --------------------------------------

 -------
 Radical
 -------
 Symbolic Z-matrix:
 Charge = -1 Multiplicity = 2

 SCF Done:  E(UB3LYP) =  -990.156559415     A.U. after   23 cycles
 SCF Done:  E(UB3LYP) =  -990.196676555     A.U. after   16 cycles
 SCF Done:  E(UB3LYP) =  -990.222910956     A.U. after   18 cycles
 SCF Done:  E(UB3LYP) =  -990.226681340     A.U. after   16 cycles
 SCF Done:  E(UB3LYP) =  -990.228229508     A.U. after   16 cycles
 SCF Done:  E(UB3LYP) =  -990.228635458     A.U. after   16 cycles
 SCF Done:  E(UB3LYP) =  -990.227548401     A.U. after   18 cycles
 SCF Done:  E(UB3LYP) =  -990.228793131     A.U. after   16 cycles
 SCF Done:  E(UB3LYP) =  -990.228876564     A.U. after   16 cycles
 SCF Done:  E(UB3LYP) =  -990.228933046     A.U. after   14 cycles
 SCF Done:  E(UB3LYP) =  -990.228959655     A.U. after   14 cycles
 SCF Done:  E(UB3LYP) =  -990.228962322     A.U. after   13 cycles
 SCF Done:  E(UB3LYP) =  -990.228964113     A.U. after   11 cycles
 SCF Done:  E(UB3LYP) =  -990.228964570     A.U. after   11 cycles
 Optimization completed.
    -- Stationary point found.
 Normal termination of Gaussian 16 at Thu Dec 28 21:44:35 2023.

 ----------------------------------------------------------------------
 #P Geom=AllCheck Guess=TCheck SCRF=Check GenChk UB3LYP/6-311++G(d,p) F
 req
 ----------------------------------------------------------------------

 Structure from the checkpoint file:  "312-rad.chk"
 -------
 Radical
 -------
 Charge = -1 Multiplicity = 2

                          Input orientation:
 ---------------------------------------------------------------------
 Center     Atomic      Atomic             Coordinates (Angstroms)
 Number     Number       Type             X           Y           Z
 ---------------------------------------------------------------------
      1          6           0        3.736265    0.088179   -0.230565
      2          6           0        2.773330    0.129917    0.971641
      3          6           0        1.321120    0.274493    0.581999
      4          6           0        0.592501   -0.962815    0.341640
      5          8           0        1.171879   -2.067763    0.463198
      6          6           0       -0.827278   -0.841956   -0.044961
      7          6           0       -1.651745   -1.964133   -0.294051
      8          8           0       -1.196088   -3.252692   -0.189415
      9          6           0       -2.984604   -1.780451   -0.660905
     10          8           0       -3.755630   -2.910047   -0.894828
     11          6           0       -3.532770   -0.509073   -0.790673
     12          8           0       -4.860058   -0.395466   -1.157575
     13          6           0       -2.756939    0.612236   -0.554138
     14          6           0       -1.401774    0.462403   -0.179200
     15          6           0       -0.642687    1.675852    0.057106
     16          6           0        0.726608    1.515801    0.435894
     17          8           0        1.415699    2.690796    0.643607
     18          8           0       -1.189972    2.836505   -0.074016
     19          8           0       -3.351568    1.825319   -0.696707
     20          1           0        3.481974   -0.757812   -0.872592
     21          1           0        3.670630    1.000029   -0.832932
     22          1           0        4.776133   -0.030519    0.096960
     23          1           0        2.870318   -0.808183    1.523065
     24          1           0        3.083228    0.928473    1.663975
     25          1           0       -1.942411   -3.825704   -0.406568
     26          1           0        2.303245    2.461890    0.936233
     27          1           0       -2.582690    2.482613   -0.469717
     28          1           0       -4.640951   -2.612492   -1.135600
     29          1           0       -5.041599    0.555459   -1.190002
 ---------------------------------------------------------------------

 SCF Done:  E(UB3LYP) =  -990.228964570     A.U. after    1 cycles

 Alpha  occ. eigenvalues --  -19.06161 -19.05767 -19.03274 -19.02976 -19.00903
 Alpha  occ. eigenvalues --  -18.96029 -18.94011 -10.11895 -10.11575 -10.11536
 Alpha  occ. eigenvalues --  -10.10926 -10.10295 -10.10043 -10.09908 -10.06332
 Alpha  occ. eigenvalues --  -10.05850 -10.05503 -10.05459 -10.04411  -0.98061
 Alpha  occ. eigenvalues --   -0.95994  -0.94377  -0.93583  -0.92358  -0.86987
 Alpha  occ. eigenvalues --   -0.86851  -0.73565  -0.69333  -0.65865  -0.62135
 Alpha  occ. eigenvalues --   -0.61255  -0.56527  -0.53815  -0.52447  -0.50139
 Alpha  occ. eigenvalues --   -0.46634  -0.46137  -0.43486  -0.42497  -0.40605
 Alpha  occ. eigenvalues --   -0.38490  -0.36697  -0.34684  -0.34525  -0.34262
 Alpha  occ. eigenvalues --   -0.32885  -0.31677  -0.30661  -0.30159  -0.29455
 Alpha  occ. eigenvalues --   -0.29272  -0.27750  -0.27333  -0.27139  -0.26723
 Alpha  occ. eigenvalues --   -0.26381  -0.25571  -0.25231  -0.24627  -0.24033
 Alpha  occ. eigenvalues --   -0.23160  -0.22707  -0.22550  -0.17735  -0.12995
 Alpha  occ. eigenvalues --   -0.12908  -0.10467  -0.10258  -0.09173  -0.01988
 Alpha virt. eigenvalues --    0.07217   0.07613   0.09769   0.09892   0.10920
 Alpha virt. eigenvalues --    0.11106   0.11544   0.12090   0.12746   0.13824
 Alpha virt. eigenvalues --    0.14421   0.14537   0.14951   0.15941   0.16767

  Beta  occ. eigenvalues --  -19.06131 -19.05758 -19.03234 -19.02960 -19.00846
  Beta  occ. eigenvalues --  -18.95432 -18.93452 -10.11799 -10.11554 -10.11524
  Beta  occ. eigenvalues --  -10.10845 -10.10201 -10.09840 -10.09741 -10.06345
  Beta  occ. eigenvalues --  -10.05834 -10.05527 -10.05418 -10.04252  -0.98001
  Beta  occ. eigenvalues --   -0.95941  -0.94239  -0.93538  -0.92184  -0.86032
  Beta  occ. eigenvalues --   -0.85873  -0.73368  -0.68998  -0.65617  -0.61894
  Beta  occ. eigenvalues --   -0.61095  -0.55878  -0.53690  -0.52311  -0.49926
  Beta  occ. eigenvalues --   -0.46487  -0.46016  -0.43307  -0.42286  -0.40542
  Beta  occ. eigenvalues --   -0.38409  -0.36546  -0.34428  -0.34363  -0.33927
  Beta  occ. eigenvalues --   -0.32797  -0.31323  -0.30474  -0.29420  -0.29316
  Beta  occ. eigenvalues --   -0.28984  -0.27273  -0.27118  -0.26924  -0.26325
  Beta  occ. eigenvalues --   -0.26177  -0.25475  -0.24962  -0.24479  -0.23567
  Beta  occ. eigenvalues --   -0.22612  -0.22123  -0.20676  -0.16812  -0.12506
  Beta  occ. eigenvalues --   -0.10997  -0.09906  -0.09645  -0.08187
  Beta virt. eigenvalues --    0.04253   0.07229   0.07643   0.09779   0.09899
  Beta virt. eigenvalues --    0.10931   0.11552   0.12288   0.12748   0.13146
  Beta virt. eigenvalues --    0.13848   0.14439   0.14542   0.14961   0.15984

 Mulliken charges and spin densities:
               1          2
     1  C   -0.565874  -0.003567
     2  C   -0.197331   0.013365
     3  C    1.479974   0.119448
     4  C   -0.555793   0.030520
     5  O   -0.360846   0.210317
     6  C    0.651153   0.052036
     7  C   -0.272982   0.015848
     8  O   -0.222057   0.002939
     9  C   -0.330276   0.059989
    10  O   -0.337646   0.006642
    11  C   -0.273407   0.013401
    12  O   -0.348178   0.002477
    13  C    0.025233   0.070558
    14  C    0.881090  -0.033018
    15  C   -0.684237   0.169572
    16  C   -0.867446   0.018114
    17  O   -0.228811   0.011747
    18  O   -0.466697   0.217824
    19  O   -0.508943   0.017128
    20  H    0.182627  -0.002502
    21  H    0.128629   0.002235
    22  H    0.095457   0.007117
    23  H    0.211895   0.005033
    24  H    0.074408  -0.000579
    25  H    0.261302  -0.000463
    26  H    0.248315  -0.000932
    27  H    0.409835  -0.004621
    28  H    0.280489  -0.000334
    29  H    0.290116  -0.000292
 Sum of Mulliken charges =  -1.00000   1.00000

 Dipole moment (field-independent basis, Debye):
    X=              2.5528    Y=             -0.6201    Z=             -0.0266  Tot=              2.6272
 Quadrupole moment (field-independent basis, Debye-Ang):
   XX=           -125.7488   YY=           -149.2092   ZZ=           -115.1037
   XY=             11.0937   XZ=             -0.9583   YZ=              2.5195

  Exact polarizability: 263.833   8.554 219.343  37.959   4.996 108.475
 Approx polarizability: 376.964 -11.929 403.116  59.277   1.981 169.567

                      1                      2                      3
                      A                      A                      A
 Frequencies --     47.0390                53.5514                66.0647
 Red. masses --      3.4409                 4.5815                 6.3647
 Frc consts  --      0.0045                 0.0077                 0.0164
 IR Inten    --      3.3169                 2.9549                 2.0009

                      4                      5                      6
                      A                      A                      A
 Frequencies --    103.3373               124.1008               144.9411
 Red. masses --      6.6442                 9.0488                 2.8657
 Frc consts  --      0.0418                 0.0821                 0.0355
 IR Inten    --      2.4678                 9.2657                42.4278

                      7                      8                      9
                      A                      A                      A
 Frequencies --    174.4465               181.6680               200.1870
 Red. masses --      8.1183                 3.7570                 2.2413
 Frc consts  --      0.1456                 0.0731                 0.0529
 IR Inten    --      6.1809                23.9810                 7.1877

                     10                     11                     12
                      A                      A                      A
 Frequencies --    229.1521               230.8210               278.9517
 Red. masses --      1.6430                 1.5855                 5.1994
 Frc consts  --      0.0508                 0.0498                 0.2384
 IR Inten    --    100.2992                24.9911                 9.5512

                     13                     14                     15
                      A                      A                      A
 Frequencies --    301.0745               315.2525               325.4560
 Red. masses --      4.4715                 6.0333                 5.2833
 Frc consts  --      0.2388                 0.3533                 0.3297
 IR Inten    --     10.7849                 1.2049                18.0629

                     16                     17                     18
                      A                      A                      A
 Frequencies --    339.1717               347.1242               362.8682
 Red. masses --      1.3510                 5.3821                 2.2909
 Frc consts  --      0.0916                 0.3821                 0.1777
 IR Inten    --     59.1773                 1.2443                 2.2085

                     19                     20                     21
                      A                      A                      A
 Frequencies --    371.3630               377.0599               382.6204
 Red. masses --      3.9306                 4.0254                 5.6477
 Frc consts  --      0.3194                 0.3372                 0.4871
 IR Inten    --      6.1589                 5.5617                 2.9074

                     22                     23                     24
                      A                      A                      A
 Frequencies --    393.4177               414.6742               436.5123
 Red. masses --      1.8017                 5.5401                 8.0158
 Frc consts  --      0.1643                 0.5613                 0.8999
 IR Inten    --      3.5573                25.3220                25.1935

                     25                     26                     27
                      A                      A                      A
 Frequencies --    441.5881               477.9153               481.4595
 Red. masses --      1.2140                 6.9252                10.1174
 Frc consts  --      0.1395                 0.9319                 1.3818
 IR Inten    --     82.6330                 2.3531                 1.7558

                     28                     29                     30
                      A                      A                      A
 Frequencies --    535.4612               547.3287               556.1433
 Red. masses --      9.9889                 5.8630                10.1534
 Frc consts  --      1.6874                 1.0348                 1.8503
 IR Inten    --      3.6207                16.6269                 3.2563

                     31                     32                     33
                      A                      A                      A
 Frequencies --    611.1540               637.9518               674.6705
 Red. masses --      8.2964                11.2646                10.4401
 Frc consts  --      1.8257                 2.7011                 2.7999
 IR Inten    --      4.5681                 0.0152                 1.7345

                     34                     35                     36
                      A                      A                      A
 Frequencies --    714.7380               729.7250               758.5259
 Red. masses --      2.5699                11.0529                 4.5320
 Frc consts  --      0.7735                 3.4677                 1.5363
 IR Inten    --      4.0691                 0.6703                64.0379

                     37                     38                     39
                      A                      A                      A
 Frequencies --    764.0206               778.7240               822.4569
 Red. masses --      3.6034                 6.1024                 2.4691
 Frc consts  --      1.2393                 2.1803                 0.9840
 IR Inten    --     53.7972                63.0088                15.3393

                     40                     41                     42
                      A                      A                      A
 Frequencies --    918.5630               956.9343              1000.7650
 Red. masses --      2.9382                 5.1504                 3.4199
 Frc consts  --      1.4606                 2.7788                 2.0180
 IR Inten    --     13.4193               130.5529               106.2033

                     43                     44                     45
                      A                      A                      A
 Frequencies --   1012.2907              1021.4334              1075.2393
 Red. masses --      3.8232                 1.0528                 2.0476
 Frc consts  --      2.3082                 0.6472                 1.3948
 IR Inten    --      8.4183                69.0806                15.8755

                     46                     47                     48
                      A                      A                      A
 Frequencies --   1092.1659              1126.9409              1148.5062
 Red. masses --      2.1817                 4.3514                 4.7056
 Frc consts  --      1.5333                 3.2560                 3.6570
 IR Inten    --     39.7601                24.0388               157.9218

                     49                     50                     51
                      A                      A                      A
 Frequencies --   1210.9160              1230.7543              1262.4119
 Red. masses --      2.0020                 2.4310                 2.2587
 Frc consts  --      1.7296                 2.1696                 2.1208
 IR Inten    --     88.2034                49.0729                93.9344

                     52                     53                     54
                      A                      A                      A
 Frequencies --   1272.6597              1293.9951              1297.2344
 Red. masses --      2.8921                 2.2055                 1.7932
 Frc consts  --      2.7599                 2.1759                 1.7780
 IR Inten    --    151.8184                44.7201                71.0636

                     55                     56                     57
                      A                      A                      A
 Frequencies --   1302.9783              1348.4904              1355.3765
 Red. masses --      1.6942                 1.6169                 2.7208
 Frc consts  --      1.6947                 1.7323                 2.9448
 IR Inten    --    378.4627                26.1527                74.5951

                     58                     59                     60
                      A                      A                      A
 Frequencies --   1378.0592              1393.0732              1429.0232
 Red. masses --      2.9850                 1.2286                 5.7806
 Frc consts  --      3.3399                 1.4048                 6.9551
 IR Inten    --    142.3306                 6.0890               166.4063

                     61                     62                     63
                      A                      A                      A
 Frequencies --   1444.9115              1467.9088              1484.8321
 Red. masses --      2.2979                 2.6682                 1.3553
 Frc consts  --      2.8265                 3.3875                 1.7605
 IR Inten    --    198.0473               293.0377                85.2692

                     64                     65                     66
                      A                      A                      A
 Frequencies --   1494.0056              1502.1069              1505.2380
 Red. masses --      1.2064                 2.3356                 1.1684
 Frc consts  --      1.5865                 3.1049                 1.5597
 IR Inten    --     48.7146               157.9294                51.7452

                     67                     68                     69
                      A                      A                      A
 Frequencies --   1537.9598              1557.4631              1613.0551
 Red. masses --      4.1173                 6.6980                 4.2523
 Frc consts  --      5.7378                 9.5726                 6.5189
 IR Inten    --     17.4943               389.3663                41.5457

                     70                     71                     72
                      A                      A                      A
 Frequencies --   1655.6704              1672.0529              2503.2456
 Red. masses --      5.7384                 4.8101                 1.0805
 Frc consts  --      9.2681                 7.9232                 3.9890
 IR Inten    --      8.6887                55.2007               529.9146

                     73                     74                     75
                      A                      A                      A
 Frequencies --   2950.8007              3002.6413              3053.3549
 Red. masses --      1.0731                 1.0396                 1.0957
 Frc consts  --      5.5050                 5.5223                 6.0184
 IR Inten    --     92.1479               122.2746                21.0228

                     76                     77                     78
                      A                      A                      A
 Frequencies --   3073.3419              3098.4310              3746.0266
 Red. masses --      1.0885                 1.0995                 1.0651
 Frc consts  --      6.0576                 6.2194                 8.8062
 IR Inten    --     53.8790                19.2491                85.0100

                     79                     80                     81
                      A                      A                      A
 Frequencies --   3781.5205              3811.8780              3831.5598
 Red. masses --      1.0652                 1.0659                 1.0649
 Frc consts  --      8.9742                 9.1248                 9.2111
 IR Inten    --     85.5927               111.2131                43.7669

 - Thermochemistry -
 -------------------
 Temperature   298.150 Kelvin.  Pressure   1.00000 Atm.
 Atom     1 has atomic number  6 and mass  12.00000

 Molecular mass:   266.04265 amu.
 Principal axes and moments of inertia in atomic units:
                           1         2         3
     Eigenvalues --  2972.116396003.954108785.45129
           X            0.93083  -0.30227  -0.20538
           Y            0.30222   0.95269  -0.03238
           Z            0.20545  -0.03193   0.97815
 This molecule is an asymmetric top.
 Rotational symmetry number  1.
 Warning -- assumption of classical behavior for rotation
           may cause significant error
 Rotational temperatures (Kelvin)      0.02914     0.01443     0.00986
 Rotational constants (GHZ):           0.60722     0.30059     0.20542
 Zero-point vibrational energy     542198.6 (Joules/Mol)
                                  129.58858 (Kcal/Mol)
 Warning -- explicit consideration of  31 degrees of freedom as
           vibrations may cause significant error
 Vibrational temperatures:     67.68    77.05    95.05   148.68   178.55
          (Kelvin)            208.54   250.99   261.38   288.02   329.70
                              332.10   401.35   433.18   453.58   468.26
                              487.99   499.43   522.09   534.31   542.51
                              550.51   566.04   596.62   628.04   635.35
                              687.61   692.71   770.41   787.48   800.17
                              879.31   917.87   970.70  1028.35  1049.91
                             1091.35  1099.26  1120.41  1183.33  1321.61
                             1376.82  1439.88  1456.46  1469.61  1547.03
                             1571.38  1621.42  1652.44  1742.24  1770.78
                             1816.33  1831.07  1861.77  1866.43  1874.70
                             1940.18  1950.08  1982.72  2004.32  2056.05
                             2078.91  2111.99  2136.34  2149.54  2161.20
                             2165.70  2212.78  2240.84  2320.83  2382.14
                             2405.71  3601.61  4245.54  4320.13  4393.10
                             4421.85  4457.95  5389.70  5440.76  5484.44
                             5512.76

 Zero-point correction=                           0.206513 (Hartree/Particle)
 Thermal correction to Energy=                    0.224058
 Thermal correction to Enthalpy=                  0.225002
 Thermal correction to Gibbs Free Energy=         0.161464
 Sum of electronic and zero-point Energies=           -990.022452
 Sum of electronic and thermal Energies=              -990.004907
 Sum of electronic and thermal Enthalpies=            -990.003962
 Sum of electronic and thermal Free Energies=         -990.067501

                     E (Thermal)             CV                S
                      KCal/Mol        Cal/Mol-Kelvin    Cal/Mol-Kelvin
 Total                  140.598             67.203            133.728
 Electronic               0.000              0.000              1.377
 Translational            0.889              2.981             42.635
 Rotational               0.889              2.981             33.416
 Vibrational            138.821             61.241             56.300
 Vibration     1          0.595              1.979              4.938
 Vibration     2          0.596              1.976              4.682
 Vibration     3          0.597              1.970              4.267
 Vibration     4          0.605              1.947              3.390
 Vibration     5          0.610              1.929              3.035
 Vibration     6          0.616              1.908              2.738
 Vibration     7          0.627              1.874              2.387
 Vibration     8          0.630              1.865              2.311
 Vibration     9          0.638              1.840              2.131
 Vibration    10          0.652              1.797              1.886
 Vibration    11          0.653              1.794              1.873
 Vibration    12          0.679              1.712              1.540
 Vibration    13          0.693              1.672              1.411
 Vibration    14          0.703              1.645              1.335
 Vibration    15          0.710              1.625              1.283
 Vibration    16          0.719              1.597              1.216
 Vibration    17          0.725              1.581              1.179
 Vibration    18          0.737              1.549              1.110
 Vibration    19          0.743              1.531              1.074
 Vibration    20          0.748              1.519              1.051
 Vibration    21          0.752              1.507              1.029
 Vibration    22          0.761              1.484              0.987
 Vibration    23          0.778              1.438              0.910
 Vibration    24          0.797              1.391              0.838
 Vibration    25          0.801              1.379              0.822
 Vibration    26          0.834              1.299              0.716
 Vibration    27          0.838              1.291              0.706
 Vibration    28          0.890              1.172              0.575
 Vibration    29          0.903              1.146              0.550
 Vibration    30          0.912              1.126              0.532
 Vibration    31          0.970              1.008              0.431

                           ! Non-Optimized Parameters !
 Normal termination of Gaussian 16 at Thu Dec 28 22:58:33 2023.
