 Q-Chem 5.4, Q-Chem, Inc., Pleasanton, CA (2021)
 Q-Chem 5.4.0 for Intel X86 EM64T Linux

User input:
--------------------------------------------------------------
$molecule
-1 2
C                  4.8659730000     -2.8833960000     -0.3372820000
C                  5.5988320000     -2.0001230000     -1.1023230000
C                  5.0184420000     -0.7862430000     -1.5337810000
C                  3.5294150000     -2.5963530000      0.0290200000
C                  2.9425220000     -1.3702480000     -0.4065440000
C                  3.7149360000     -0.4864420000     -1.1873030000
C                  2.7824440000     -3.5393290000      0.8319380000
C                  1.4211280000     -3.1894880000      1.1740830000
C                  0.8161810000     -1.9698110000      0.7490380000
C                  1.5606450000     -1.0042900000     -0.0652400000
C                  0.6600540000     -4.0904130000      1.9599240000
C                 -0.6519920000     -3.7916600000      2.3105390000
C                 -0.5130940000     -1.6984180000      1.1211710000
C                 -1.2406480000     -2.5926120000      1.8903050000
O                  3.2968080000     -4.6494020000      1.2327530000
O                  1.0515580000      0.0721830000     -0.4500900000
O                  1.1748410000     -5.2690100000      2.3978460000
H                  5.2897550000     -3.8201790000      0.0050430000
H                  6.6233340000     -2.2368300000     -1.3740680000
H                  5.5969020000     -0.0921640000     -2.1359010000
H                  3.2437510000      0.4370590000     -1.5038720000
H                  2.1270180000     -5.2687980000      2.0256390000
O                 -1.3632390000     -4.6877320000      3.0743380000
H                 -0.9500150000     -0.7658000000      0.7862300000
H                 -2.2657050000     -2.3861300000      2.1788530000
H                 -0.7616070000     -5.4279390000      3.2407510000
$end
$rem
MAX_SCF_CYCLES=200
BASIS  =  6-311++G(d,p)
GUI  =  2
JOB_TYPE  =  SP
METHOD  =  B3LYP
SOLVENT_METHOD = PCM
$end
$pcm
theory = CPCM
$end
$solvent
dielectric 37.219
opticaldielectric 1.43
$end

--------------------------------------------------------------

             Standard Nuclear Orientation (Angstroms)
    I     Atom           X                Y                Z
 ----------------------------------------------------------------
    1      C       4.8659730000    -2.8833960000    -0.3372820000
    2      C       5.5988320000    -2.0001230000    -1.1023230000
    3      C       5.0184420000    -0.7862430000    -1.5337810000
    4      C       3.5294150000    -2.5963530000     0.0290200000
    5      C       2.9425220000    -1.3702480000    -0.4065440000
    6      C       3.7149360000    -0.4864420000    -1.1873030000
    7      C       2.7824440000    -3.5393290000     0.8319380000
    8      C       1.4211280000    -3.1894880000     1.1740830000
    9      C       0.8161810000    -1.9698110000     0.7490380000
   10      C       1.5606450000    -1.0042900000    -0.0652400000
   11      C       0.6600540000    -4.0904130000     1.9599240000
   12      C      -0.6519920000    -3.7916600000     2.3105390000
   13      C      -0.5130940000    -1.6984180000     1.1211710000
   14      C      -1.2406480000    -2.5926120000     1.8903050000
   15      O       3.2968080000    -4.6494020000     1.2327530000
   16      O       1.0515580000     0.0721830000    -0.4500900000
   17      O       1.1748410000    -5.2690100000     2.3978460000
   18      H       5.2897550000    -3.8201790000     0.0050430000
   19      H       6.6233340000    -2.2368300000    -1.3740680000
   20      H       5.5969020000    -0.0921640000    -2.1359010000
   21      H       3.2437510000     0.4370590000    -1.5038720000
   22      H       2.1270180000    -5.2687980000     2.0256390000
   23      O      -1.3632390000    -4.6877320000     3.0743380000
   24      H      -0.9500150000    -0.7658000000     0.7862300000
   25      H      -2.2657050000    -2.3861300000     2.1788530000
   26      H      -0.7616070000    -5.4279390000     3.2407510000
 ----------------------------------------------------------------

    8    -839.6133452441      8.86e-06  Convergence criterion met
 Total energy in the final basis set =     -839.6133452441

                    Orbital Energies (a.u.)
 --------------------------------------------------------------

 Alpha MOs
 -- Occupied --
-19.1550 -19.1377 -19.0938 -19.0808 -10.2338 -10.2331 -10.2321 -10.2317
-10.1803 -10.1777 -10.1759 -10.1755 -10.1742 -10.1742 -10.1733 -10.1725
-10.1718 -10.1707  -1.0749  -1.0473  -1.0097  -1.0054  -0.8651  -0.8511
 -0.7887  -0.7551  -0.7447  -0.7412  -0.6740  -0.6484  -0.6302  -0.6028
 -0.5713  -0.5540  -0.5365  -0.5173  -0.4995  -0.4859  -0.4688  -0.4511
 -0.4451  -0.4380  -0.4277  -0.4234  -0.4159  -0.4148  -0.4069  -0.3980
 -0.3905  -0.3728  -0.3675  -0.3603  -0.3550  -0.3538  -0.3390  -0.3249
 -0.2713  -0.2629  -0.2605  -0.2461  -0.2447  -0.2237  -0.1460

 Beta MOs
 -- Occupied --
-19.1547 -19.1372 -19.0888 -19.0764 -10.2332 -10.2309 -10.2306 -10.2302
-10.1803 -10.1772 -10.1752 -10.1748 -10.1739 -10.1737 -10.1726 -10.1721
-10.1719 -10.1704  -1.0738  -1.0457  -1.0019  -0.9970  -0.8624  -0.8499
 -0.7849  -0.7523  -0.7429  -0.7392  -0.6669  -0.6467  -0.6277  -0.6015
 -0.5693  -0.5530  -0.5344  -0.5161  -0.4977  -0.4836  -0.4671  -0.4502
 -0.4384  -0.4364  -0.4269  -0.4203  -0.4137  -0.4049  -0.4040  -0.3971
 -0.3752  -0.3716  -0.3601  -0.3596  -0.3537  -0.3451  -0.3378  -0.3157
 -0.2589  -0.2547  -0.2534  -0.2419  -0.2407  -0.2148

          Ground-State Mulliken Net Atomic Charges

     Atom                 Charge (a.u.)    Spin (a.u.)
  --------------------------------------------------------
      1 C                     0.065511       0.058804
      2 C                    -0.466781       0.015780
      3 C                    -0.505569       0.066010
      4 C                     0.156693      -0.001058
      5 C                    -0.086807       0.052305
      6 C                     0.070840       0.008804
      7 C                    -0.360851       0.179439
      8 C                     0.554910      -0.021870
      9 C                     0.469556       0.028230
     10 C                    -0.423811       0.082853
     11 C                    -0.147776       0.063264
     12 C                    -0.366828       0.049412
     13 C                    -0.006979       0.041248
     14 C                    -0.036209       0.022230
     15 O                    -0.520984       0.183018
     16 O                    -0.467876       0.167755
     17 O                    -0.480041       0.014401
     18 H                     0.178832      -0.002086
     19 H                     0.199707      -0.002034
     20 H                     0.198527      -0.004719
     21 H                     0.170549      -0.000397
     22 H                     0.406439      -0.004088
     23 O                    -0.322137       0.008154
     24 H                     0.172252      -0.002984
     25 H                     0.228077      -0.002198
     26 H                     0.320755      -0.000272
  --------------------------------------------------------
  Sum of atomic charges =    -1.000000

                    Cartesian Multipole Moments
 -----------------------------------------------------------------
    Charge (ESU x 10^10)
                -4.8032
    Dipole Moment (Debye)
         X      -7.1571      Y      11.7762      Z      -3.5840
       Tot      14.2389
    Quadrupole Moments (Debye-Ang)
        XX    -125.4245     XY      22.8916     YY    -160.5184
        XZ      -6.4602     YZ      18.3259     ZZ    -117.6343

 Total job time:  108.53s(wall), 418.77s(cpu)
        *  Thank you very much for using Q-Chem.  Have a nice day.  *
