 Q-Chem 5.4, Q-Chem, Inc., Pleasanton, CA (2021)
 Q-Chem 5.4.0 for Intel X86 EM64T Linux

User input:
--------------------------------------------------------------
$molecule
-1 2
O                  3.8942320000      2.7313040000      1.0064330000
C                  3.0060970000      1.8829030000      1.0399140000
N                  2.9229890000      0.9047170000      2.0009290000
C                  1.9419770000     -0.1283600000      2.1401550000
O                  2.0639320000     -0.9032030000      3.0855430000
C                  0.9170300000     -0.1131020000      1.1189970000
N                 -0.0794610000     -1.0448940000      1.1351490000
C                 -0.9960250000     -0.9553500000      0.1409490000
C                 -2.0659800000     -1.8855890000      0.0833500000
C                 -3.0220840000     -1.8237640000     -0.9203700000
C                 -2.9505990000     -0.8313900000     -1.9082980000
C                 -1.9108370000      0.0985150000     -1.8798320000
C                 -0.9313740000      0.0602670000     -0.8782960000
N                  0.0873440000      0.9955910000     -0.8761660000
C                  0.9589800000      0.8781070000      0.1037560000
N                  1.9930250000      1.8192760000      0.1145660000
H                  3.6466270000      0.9094690000      2.7053370000
H                 -2.1047100000     -2.6459290000      0.8559820000
H                 -3.8301560000     -2.5492510000     -0.9394810000
H                 -3.6996620000     -0.7852290000     -2.6922960000
H                 -1.8331640000      0.8763050000     -2.6328870000
H                  1.9918190000      2.5096070000     -0.6223970000
$end
$rem
MAX_SCF_CYCLES=200
BASIS  =  6-311++G(d,p)
GUI  =  2
JOB_TYPE  =  SP
METHOD  =  B3LYP
SOLVENT_METHOD = PCM
$end
$pcm
theory = CPCM
$end
$solvent
dielectric 37.219
opticaldielectric 1.43
$end

--------------------------------------------------------------

             Standard Nuclear Orientation (Angstroms)
    I     Atom           X                Y                Z
 ----------------------------------------------------------------
    1      O       3.8942320000     2.7313040000     1.0064330000
    2      C       3.0060970000     1.8829030000     1.0399140000
    3      N       2.9229890000     0.9047170000     2.0009290000
    4      C       1.9419770000    -0.1283600000     2.1401550000
    5      O       2.0639320000    -0.9032030000     3.0855430000
    6      C       0.9170300000    -0.1131020000     1.1189970000
    7      N      -0.0794610000    -1.0448940000     1.1351490000
    8      C      -0.9960250000    -0.9553500000     0.1409490000
    9      C      -2.0659800000    -1.8855890000     0.0833500000
   10      C      -3.0220840000    -1.8237640000    -0.9203700000
   11      C      -2.9505990000    -0.8313900000    -1.9082980000
   12      C      -1.9108370000     0.0985150000    -1.8798320000
   13      C      -0.9313740000     0.0602670000    -0.8782960000
   14      N       0.0873440000     0.9955910000    -0.8761660000
   15      C       0.9589800000     0.8781070000     0.1037560000
   16      N       1.9930250000     1.8192760000     0.1145660000
   17      H       3.6466270000     0.9094690000     2.7053370000
   18      H      -2.1047100000    -2.6459290000     0.8559820000
   19      H      -3.8301560000    -2.5492510000    -0.9394810000
   20      H      -3.6996620000    -0.7852290000    -2.6922960000
   21      H      -1.8331640000     0.8763050000    -2.6328870000
   22      H       1.9918190000     2.5096070000    -0.6223970000
 ----------------------------------------------------------------

    9    -754.5432088961      4.51e-06  Convergence criterion met
 Total energy in the final basis set =     -754.5432088961

                    Orbital Energies (a.u.)
 --------------------------------------------------------------

 Alpha MOs
 -- Occupied --
-19.1033 -19.0959 -14.3594 -14.3538 -14.3012 -14.2970 -10.3185 -10.2777
-10.2567 -10.2038 -10.2015 -10.2001 -10.1680 -10.1674 -10.1642 -10.1639
 -1.0735  -1.0418  -0.9884  -0.9452  -0.9167  -0.8863  -0.8388  -0.7638
 -0.7421  -0.6956  -0.6678  -0.6447  -0.6024  -0.5926  -0.5568  -0.5523
 -0.5146  -0.4906  -0.4794  -0.4709  -0.4642  -0.4426  -0.4379  -0.4284
 -0.4260  -0.4195  -0.4080  -0.3648  -0.3602  -0.3568  -0.3367  -0.3077
 -0.3032  -0.3016  -0.2893  -0.2726  -0.2527  -0.2478  -0.2334  -0.1386

 Beta MOs
 -- Occupied --
-19.1029 -19.0937 -14.3597 -14.3536 -14.2976 -14.2892 -10.3183 -10.2762
-10.2574 -10.2029 -10.2025 -10.1986 -10.1682 -10.1658 -10.1642 -10.1621
 -1.0726  -1.0382  -0.9858  -0.9411  -0.9131  -0.8783  -0.8359  -0.7596
 -0.7397  -0.6887  -0.6672  -0.6429  -0.6002  -0.5902  -0.5549  -0.5506
 -0.5122  -0.4896  -0.4751  -0.4692  -0.4626  -0.4415  -0.4358  -0.4266
 -0.4181  -0.4157  -0.3986  -0.3590  -0.3586  -0.3557  -0.3134  -0.3029
 -0.3010  -0.2942  -0.2833  -0.2696  -0.2469  -0.2362  -0.2229

          Ground-State Mulliken Net Atomic Charges

     Atom                 Charge (a.u.)    Spin (a.u.)
  --------------------------------------------------------
      1 O                    -0.458927       0.012632
      2 C                     0.417316       0.012281
      3 N                    -0.478890      -0.000375
      4 C                     0.269303       0.069213
      5 O                    -0.483214       0.083273
      6 C                    -0.074582       0.100852
      7 N                    -0.230492       0.377254
      8 C                     0.003354      -0.067750
      9 C                    -0.240238       0.102944
     10 C                    -0.352795      -0.025084
     11 C                    -0.275215       0.142672
     12 C                    -0.258026      -0.040637
     13 C                     0.093945       0.120597
     14 N                    -0.239732       0.163375
     15 C                     0.224844      -0.021942
     16 N                    -0.475826      -0.008294
     17 H                     0.423405      -0.000791
     18 H                     0.191205      -0.010022
     19 H                     0.192237       0.001296
     20 H                     0.195066      -0.009466
     21 H                     0.184387      -0.001542
     22 H                     0.372875      -0.000486
  --------------------------------------------------------
  Sum of atomic charges =    -1.000000

                    Cartesian Multipole Moments
 -----------------------------------------------------------------
    Charge (ESU x 10^10)
                -4.8032
    Dipole Moment (Debye)
         X      -5.1687      Y       0.8473      Z      -6.4446
       Tot       8.3045
    Quadrupole Moments (Debye-Ang)
        XX    -117.0033     XY      -9.1341     YY    -111.7565
        XZ     -10.6822     YZ       7.1666     ZZ    -115.4491

 Total job time:  46.88s(wall), 285.94s(cpu)
        *  Thank you very much for using Q-Chem.  Have a nice day.  *
