 Gaussian 16, Revision A.03,
 Gaussian 16:  ES64L-G16RevA.03 25-Dec-2016

 ----------------------------------------------------------------
 #P UB3LYP/6-311++G(d,p) SCRF=(PCM,Solvent=n,n-DiMethylFormamide)
 ----------------------------------------------------------------

 ------------------
 Radical PCM in DMF
 ------------------
 Symbolic Z-matrix:
 Charge = -1 Multiplicity = 2

                         Standard orientation:
 ---------------------------------------------------------------------
 Center     Atomic      Atomic             Coordinates (Angstroms)
 Number     Number       Type             X           Y           Z
 ---------------------------------------------------------------------
      1          6           0       -2.538002    1.730641    0.000136
      2          6           0       -1.251157    0.950684    0.000030
      3          6           0       -1.209637   -0.418961   -0.000011
      4         17           0       -2.727979   -1.338080   -0.000120
      5          6           0       -0.000014   -1.230238    0.000020
      6          8           0        0.000009   -2.477847    0.000062
      7          6           0        1.209617   -0.418947    0.000002
      8          6           0        1.251162    0.950689   -0.000070
      9          6           0        2.538036    1.730602   -0.000242
     10          6           0       -0.000001    1.705909    0.000026
     11          8           0       -0.000017    2.969012    0.000094
     12         17           0        2.727972   -1.338062    0.000097
     13          1           0       -3.146728    1.493388    0.879170
     14          1           0       -2.306487    2.795384   -0.000263
     15          1           0       -3.147314    1.492777   -0.878313
     16          1           0        3.146721    1.493706    0.878923
     17          1           0        3.147390    1.492224   -0.878530
     18          1           0        2.306572    2.795350   -0.001179
 ---------------------------------------------------------------------

 SCF Done:  E(UB3LYP) =  -1379.62812569     A.U. after   19 cycles

 The electronic state is 2-A.
 Alpha  occ. eigenvalues -- -101.54840-101.54840 -19.08738 -19.08554 -10.24115
 Alpha  occ. eigenvalues --  -10.23099 -10.22452 -10.22451 -10.18638 -10.18637
 Alpha  occ. eigenvalues --  -10.16007 -10.16007  -9.46295  -9.46295  -7.22715
 Alpha  occ. eigenvalues --   -7.22715  -7.21828  -7.21828  -7.21742  -7.21742
 Alpha  occ. eigenvalues --   -1.01899  -1.00913  -0.87818  -0.86593  -0.80531
 Alpha  occ. eigenvalues --   -0.77027  -0.72705  -0.66823  -0.66066  -0.56856
 Alpha  occ. eigenvalues --   -0.56707  -0.51510  -0.46750  -0.44615  -0.43589
 Alpha  occ. eigenvalues --   -0.41795  -0.41729  -0.41570  -0.40992  -0.40340
 Alpha  occ. eigenvalues --   -0.39113  -0.37511  -0.36786  -0.35873  -0.35085
 Alpha  occ. eigenvalues --   -0.33399  -0.31644  -0.30808  -0.27721  -0.25907
 Alpha  occ. eigenvalues --   -0.24819  -0.24244  -0.16887
 Alpha virt. eigenvalues --   -0.01460  -0.01146   0.00795   0.01180   0.02235
 Alpha virt. eigenvalues --    0.02605   0.03045   0.03460   0.04018   0.04633
 Alpha virt. eigenvalues --    0.05097   0.05472   0.06753   0.06757   0.07854

  Beta  occ. eigenvalues -- -101.54837-101.54837 -19.08111 -19.07818 -10.23968
  Beta  occ. eigenvalues --  -10.22955 -10.22369 -10.22368 -10.18503 -10.18502
  Beta  occ. eigenvalues --  -10.16017 -10.16017  -9.46292  -9.46292  -7.22718
  Beta  occ. eigenvalues --   -7.22718  -7.21813  -7.21813  -7.21741  -7.21741
  Beta  occ. eigenvalues --   -1.00828  -0.99628  -0.87479  -0.86503  -0.80161
  Beta  occ. eigenvalues --   -0.76838  -0.72284  -0.66696  -0.65289  -0.56497
  Beta  occ. eigenvalues --   -0.56284  -0.51303  -0.46396  -0.43586  -0.43108
  Beta  occ. eigenvalues --   -0.41654  -0.41514  -0.41391  -0.40555  -0.39031
  Beta  occ. eigenvalues --   -0.38969  -0.36546  -0.35722  -0.35164  -0.34907
  Beta  occ. eigenvalues --   -0.32300  -0.31602  -0.30764  -0.25296  -0.25049
  Beta  occ. eigenvalues --   -0.24175  -0.23583
  Beta virt. eigenvalues --   -0.09768  -0.01079  -0.00020   0.00807   0.01249
  Beta virt. eigenvalues --    0.02656   0.03068   0.03317   0.04052   0.04654
  Beta virt. eigenvalues --    0.04938   0.05162   0.05495   0.06760   0.06853

 Mulliken charges and spin densities:
               1          2
     1  C   -0.630118   0.001657
     2  C    0.609051   0.095868
     3  C    0.195272   0.044624
     4  Cl   0.363909   0.003975
     5  C   -1.073812   0.101046
     6  O   -0.389844   0.227746
     7  C    0.195284   0.044626
     8  C    0.609051   0.095847
     9  C   -0.630137   0.001658
    10  C   -1.180672   0.098956
    11  O   -0.440217   0.266358
    12  Cl   0.363917   0.003975
    13  H    0.163850   0.004443
    14  H    0.176562  -0.002049
    15  H    0.163746   0.004438
    16  H    0.163886   0.004445
    17  H    0.163717   0.004435
    18  H    0.176557  -0.002049
 Sum of Mulliken charges =  -1.00000   1.00000

 Dipole moment (field-independent basis, Debye):
    X=              0.0001    Y=              2.3747    Z=             -0.0003  Tot=              2.3747
 Quadrupole moment (field-independent basis, Debye-Ang):
   XX=            -93.6456   YY=           -125.5703   ZZ=            -86.6298
   XY=              0.0001   XZ=             -0.0007   YZ=             -0.0003

 Normal termination of Gaussian 16 at Sun Jan 21 07:12:04 2024.
