 Q-Chem 5.4, Q-Chem, Inc., Pleasanton, CA (2021)
 Q-Chem 5.4.0 for Intel X86 EM64T Linux

User input:
--------------------------------------------------------------
$molecule
-1 2
C                 -0.2202380000      3.9251660000      0.2655160000
C                 -1.4322000000      3.4443190000      0.7284950000
C                 -1.6697640000      2.0564630000      0.7623360000
C                  0.7884690000      3.0451750000     -0.1737440000
C                  0.5490210000      1.6506250000     -0.1420690000
C                 -0.6913990000      1.1784800000      0.3310740000
C                  2.0605060000      3.5954620000     -0.6750570000
C                  3.0596270000      2.6195680000     -1.0695960000
C                  2.8364890000      1.2416930000     -1.0408230000
C                  1.5697730000      0.6934770000     -0.5932950000
O                  2.2392700000      4.8380590000     -0.7424640000
O                  1.3444630000     -0.5479050000     -0.5721450000
H                 -0.0096190000      4.9875590000      0.2239360000
H                 -2.1997620000      4.1351990000      1.0651770000
H                 -2.6209700000      1.6772220000      1.1246380000
H                 -0.8458850000      0.1057020000      0.3426010000
S                  4.6089080000      3.2357730000     -1.7395650000
C                  5.1878710000      4.3976580000     -0.4452250000
C                  3.8771120000      0.2416080000     -1.4757990000
H                  6.1354710000      4.8048170000     -0.8058710000
H                  5.3572010000      3.8683050000      0.4944080000
H                  4.4519270000      5.1874860000     -0.3127520000
H                  3.9576240000      0.1934430000     -2.5695180000
H                  3.5888810000     -0.7487450000     -1.1226170000
H                  4.8673850000      0.5105940000     -1.1004120000
$end
$rem
MAX_SCF_CYCLES=200
BASIS  =  6-311++G(d,p)
GUI  =  2
JOB_TYPE  =  SP
METHOD  =  B3LYP
SOLVENT_METHOD = PCM
$end
$pcm
theory = CPCM
$end
$solvent
dielectric 37.219
opticaldielectric 1.43
$end

--------------------------------------------------------------

             Standard Nuclear Orientation (Angstroms)
    I     Atom           X                Y                Z
 ----------------------------------------------------------------
    1      C      -0.2202380000     3.9251660000     0.2655160000
    2      C      -1.4322000000     3.4443190000     0.7284950000
    3      C      -1.6697640000     2.0564630000     0.7623360000
    4      C       0.7884690000     3.0451750000    -0.1737440000
    5      C       0.5490210000     1.6506250000    -0.1420690000
    6      C      -0.6913990000     1.1784800000     0.3310740000
    7      C       2.0605060000     3.5954620000    -0.6750570000
    8      C       3.0596270000     2.6195680000    -1.0695960000
    9      C       2.8364890000     1.2416930000    -1.0408230000
   10      C       1.5697730000     0.6934770000    -0.5932950000
   11      O       2.2392700000     4.8380590000    -0.7424640000
   12      O       1.3444630000    -0.5479050000    -0.5721450000
   13      H      -0.0096190000     4.9875590000     0.2239360000
   14      H      -2.1997620000     4.1351990000     1.0651770000
   15      H      -2.6209700000     1.6772220000     1.1246380000
   16      H      -0.8458850000     0.1057020000     0.3426010000
   17      S       4.6089080000     3.2357730000    -1.7395650000
   18      C       5.1878710000     4.3976580000    -0.4452250000
   19      C       3.8771120000     0.2416080000    -1.4757990000
   20      H       6.1354710000     4.8048170000    -0.8058710000
   21      H       5.3572010000     3.8683050000     0.4944080000
   22      H       4.4519270000     5.1874860000    -0.3127520000
   23      H       3.9576240000     0.1934430000    -2.5695180000
   24      H       3.5888810000    -0.7487450000    -1.1226170000
   25      H       4.8673850000     0.5105940000    -1.1004120000
 ----------------------------------------------------------------

    8   -1012.2783180707      8.96e-06  Convergence criterion met
 Total energy in the final basis set =    -1012.2783180707

                    Orbital Energies (a.u.)
 --------------------------------------------------------------

 Alpha MOs
 -- Occupied --
-88.8380 -19.0779 -19.0769 -10.2278 -10.2226 -10.1911 -10.1789 -10.1771
-10.1736 -10.1729 -10.1726 -10.1721 -10.1699 -10.1694 -10.1514  -7.9239
 -5.8879  -5.8841  -5.8779  -1.0057  -1.0015  -0.8590  -0.8241  -0.7715
 -0.7505  -0.7492  -0.6997  -0.6615  -0.6399  -0.5977  -0.5832  -0.5528
 -0.5136  -0.4895  -0.4663  -0.4485  -0.4320  -0.4267  -0.4237  -0.4206
 -0.4125  -0.4087  -0.3961  -0.3857  -0.3818  -0.3727  -0.3666  -0.3531
 -0.3485  -0.3378  -0.3186  -0.2736  -0.2570  -0.2552  -0.2486  -0.2380
 -0.2199  -0.1537

 Beta MOs
 -- Occupied --
-88.8380 -19.0726 -19.0709 -10.2261 -10.2208 -10.1898 -10.1789 -10.1753
-10.1731 -10.1724 -10.1723 -10.1718 -10.1698 -10.1693 -10.1516  -7.9239
 -5.8879  -5.8841  -5.8777  -0.9961  -0.9909  -0.8569  -0.8202  -0.7695
 -0.7483  -0.7476  -0.6963  -0.6562  -0.6374  -0.5965  -0.5801  -0.5500
 -0.5113  -0.4871  -0.4638  -0.4473  -0.4261  -0.4245  -0.4199  -0.4178
 -0.4097  -0.4050  -0.3898  -0.3820  -0.3799  -0.3660  -0.3542  -0.3496
 -0.3389  -0.3360  -0.3156  -0.2549  -0.2505  -0.2481  -0.2431  -0.2330
 -0.2142

          Ground-State Mulliken Net Atomic Charges

     Atom                 Charge (a.u.)    Spin (a.u.)
  --------------------------------------------------------
      1 C                     0.013827       0.031978
      2 C                    -0.410705       0.028131
      3 C                    -0.473008       0.020017
      4 C                     0.939562       0.039572
      5 C                     0.503020       0.015634
      6 C                     0.055038       0.033711
      7 C                    -1.514776       0.102207
      8 C                     1.107709       0.061572
      9 C                     0.641466       0.124864
     10 C                    -1.348218       0.100934
     11 O                    -0.462522       0.201113
     12 O                    -0.477137       0.227491
     13 H                     0.176431      -0.002281
     14 H                     0.200689      -0.002062
     15 H                     0.199721      -0.001963
     16 H                     0.171432      -0.002509
     17 S                    -0.598486       0.012999
     18 C                    -0.618588       0.004024
     19 C                    -0.174031      -0.007465
     20 H                     0.176566       0.001505
     21 H                     0.182891       0.000113
     22 H                     0.195268      -0.000976
     23 H                     0.189929       0.008579
     24 H                     0.176212      -0.001078
     25 H                     0.147710       0.003889
  --------------------------------------------------------
  Sum of atomic charges =    -1.000000

                    Cartesian Multipole Moments
 -----------------------------------------------------------------
    Charge (ESU x 10^10)
                -4.8032
    Dipole Moment (Debye)
         X      -9.2991      Y      -9.9920      Z       4.9906
       Tot      14.5334
    Quadrupole Moments (Debye-Ang)
        XX    -114.9707     XY     -23.9021     YY    -151.8245
        XZ      12.3866     YZ      15.2949     ZZ    -107.1097

 Total job time:  47.79s(wall), 306.56s(cpu)
        *  Thank you very much for using Q-Chem.  Have a nice day.  *
