 Gaussian 16, Revision A.03,
 Gaussian 16:  ES64L-G16RevA.03 25-Dec-2016

 ----------------------------------------------------------------------
 #P UB3LYP/6-311++G(d,p) nosym opt freq SCRF=(PCM,Solvent=n,n-DiMethylF
 ormamide)
 ----------------------------------------------------------------------

 -------
 Reduced
 -------
 Symbolic Z-matrix:
 Charge = -2 Multiplicity = 1

 SCF Done:  E(UB3LYP) =  -575.775090402     A.U. after   18 cycles
 SCF Done:  E(UB3LYP) =  -575.778816488     A.U. after   13 cycles
 SCF Done:  E(UB3LYP) =  -575.779440303     A.U. after   14 cycles
 SCF Done:  E(UB3LYP) =  -575.779464654     A.U. after   13 cycles
 SCF Done:  E(UB3LYP) =  -575.779471744     A.U. after   13 cycles
 SCF Done:  E(UB3LYP) =  -575.779472572     A.U. after   10 cycles
 SCF Done:  E(UB3LYP) =  -575.779472642     A.U. after    9 cycles
 Optimization completed.
    -- Stationary point found.
 Normal termination of Gaussian 16 at Sun Feb 11 16:29:55 2024.

 ----------------------------------------------------------------------
 #P Geom=AllCheck Guess=TCheck SCRF=Check GenChk UB3LYP/6-311++G(d,p) F
 req
 ----------------------------------------------------------------------

 Structure from the checkpoint file:  "343-an.chk"
 -------
 Reduced
 -------
 Charge = -2 Multiplicity = 1

                          Input orientation:
 ---------------------------------------------------------------------
 Center     Atomic      Atomic             Coordinates (Angstroms)
 Number     Number       Type             X           Y           Z
 ---------------------------------------------------------------------
      1          8           0        0.097144    3.010846    0.927105
      2          6           0        0.056813    1.741758    0.533790
      3          6           0        1.166588    0.860935    0.326913
      4          6           0        2.568428    1.065062    0.458490
      5          6           0        3.455708    0.033431    0.195361
      6          6           0        2.993201   -1.251903   -0.212067
      7          6           0        1.624250   -1.483839   -0.354417
      8          6           0        0.699426   -0.462910   -0.097614
      9          6           0       -0.727949   -0.398246   -0.156869
     10          6           0       -1.717026   -1.332046   -0.492956
     11          6           0       -3.066372   -0.976356   -0.463386
     12          6           0       -3.442756    0.346635   -0.089211
     13          6           0       -2.490335    1.294139    0.250909
     14          6           0       -1.106975    0.963874    0.232347
     15          1           0        2.949306    2.037076    0.763739
     16          1           0        4.524640    0.203113    0.298906
     17          1           0        3.706596   -2.045578   -0.411292
     18          1           0        1.278018   -2.467593   -0.667401
     19          1           0       -1.436920   -2.344442   -0.779616
     20          1           0       -3.829893   -1.702889   -0.723705
     21          1           0       -4.496911    0.612333   -0.071207
     22          1           0       -2.804983    2.296597    0.532181
 ---------------------------------------------------------------------

 SCF Done:  E(UB3LYP) =  -575.779472642     A.U. after    1 cycles

 Alpha  occ. eigenvalues --  -19.00159 -10.14169 -10.14168 -10.14091 -10.13702
 Alpha  occ. eigenvalues --  -10.13702 -10.13405 -10.13401 -10.13026 -10.13025
 Alpha  occ. eigenvalues --  -10.12339 -10.12297 -10.11302 -10.11295  -0.89501
 Alpha  occ. eigenvalues --   -0.82673  -0.79782  -0.74829  -0.71707  -0.70285
 Alpha  occ. eigenvalues --   -0.66541  -0.61787  -0.58526  -0.54665  -0.52958
 Alpha  occ. eigenvalues --   -0.51054  -0.46790  -0.45775  -0.42662  -0.40607
 Alpha  occ. eigenvalues --   -0.40387  -0.38514  -0.38255  -0.37106  -0.36335
 Alpha  occ. eigenvalues --   -0.34672  -0.32220  -0.32162  -0.31847  -0.29072
 Alpha  occ. eigenvalues --   -0.28970  -0.28551  -0.25267  -0.22027  -0.21179
 Alpha  occ. eigenvalues --   -0.18001  -0.17274  -0.08922
 Alpha virt. eigenvalues --   -0.00699   0.00014   0.00860   0.01491   0.02584
 Alpha virt. eigenvalues --    0.02691   0.02774   0.04901   0.04990   0.05130
 Alpha virt. eigenvalues --    0.05484   0.05639   0.06984   0.07300   0.07628

  Beta  occ. eigenvalues --  -19.00159 -10.14169 -10.14168 -10.14091 -10.13702
  Beta  occ. eigenvalues --  -10.13702 -10.13405 -10.13401 -10.13026 -10.13025
  Beta  occ. eigenvalues --  -10.12339 -10.12297 -10.11302 -10.11295  -0.89501
  Beta  occ. eigenvalues --   -0.82673  -0.79782  -0.74829  -0.71707  -0.70285
  Beta  occ. eigenvalues --   -0.66541  -0.61787  -0.58526  -0.54665  -0.52958
  Beta  occ. eigenvalues --   -0.51054  -0.46790  -0.45775  -0.42662  -0.40607
  Beta  occ. eigenvalues --   -0.40387  -0.38514  -0.38255  -0.37106  -0.36335
  Beta  occ. eigenvalues --   -0.34672  -0.32220  -0.32162  -0.31847  -0.29072
  Beta  occ. eigenvalues --   -0.28970  -0.28551  -0.25267  -0.22027  -0.21179
  Beta  occ. eigenvalues --   -0.18001  -0.17274  -0.08922
  Beta virt. eigenvalues --   -0.00699   0.00014   0.00860   0.01491   0.02584
  Beta virt. eigenvalues --    0.02691   0.02774   0.04901   0.04990   0.05130
  Beta virt. eigenvalues --    0.05484   0.05639   0.06984   0.07300   0.07628

 Mulliken charges and spin densities:
               1          2
     1  O   -0.817429  -0.000000
     2  C   -0.357535   0.000000
     3  C    0.677688   0.000000
     4  C   -0.397219  -0.000000
     5  C   -0.339476  -0.000000
     6  C   -0.398525   0.000000
     7  C   -0.539476  -0.000000
     8  C    0.087925   0.000000
     9  C    0.087174  -0.000000
    10  C   -0.539486  -0.000000
    11  C   -0.398010   0.000000
    12  C   -0.340916  -0.000000
    13  C   -0.394409  -0.000000
    14  C    0.675850   0.000000
    15  H    0.116137  -0.000000
    16  H    0.136881  -0.000000
    17  H    0.144263  -0.000000
    18  H    0.099811   0.000000
    19  H    0.099804   0.000000
    20  H    0.144337   0.000000
    21  H    0.136959  -0.000000
    22  H    0.115652   0.000000
 Sum of Mulliken charges =  -2.00000  -0.00000

 Dipole moment (field-independent basis, Debye):
    X=             -0.3916    Y=            -12.1307    Z=             -3.7448  Tot=             12.7016
 Quadrupole moment (field-independent basis, Debye-Ang):
   XX=           -118.4992   YY=           -131.5933   ZZ=           -100.9067
   XY=             -0.1321   XZ=             -1.2199   YZ=            -10.4729

  Exact polarizability: 540.508 -13.140 290.819  17.272  40.335 168.061
 Approx polarizability: 606.767 -14.730 329.645  19.964  49.127 180.178

                      1                      2                      3
                      A                      A                      A
 Frequencies --     98.5860               132.9908               166.6718
 Red. masses --      4.7252                 3.6201                 6.0632
 Frc consts  --      0.0271                 0.0377                 0.0992
 IR Inten    --      4.8705                 0.0452                 4.0985

                      4                      5                      6
                      A                      A                      A
 Frequencies --    203.2560               260.5384               282.0055
 Red. masses --      4.6183                 9.1734                 5.1595
 Frc consts  --      0.1124                 0.3669                 0.2418
 IR Inten    --     12.0340                 0.6928                 0.0091

                      7                      8                      9
                      A                      A                      A
 Frequencies --    339.0532               419.5032               423.6553
 Red. masses --      6.4358                 3.0159                 5.5723
 Frc consts  --      0.4359                 0.3127                 0.5893
 IR Inten    --      0.0206                 3.2551                 2.5121

                     10                     11                     12
                      A                      A                      A
 Frequencies --    435.2759               510.0301               548.5242
 Red. masses --      3.1033                 5.6824                 8.4652
 Frc consts  --      0.3464                 0.8709                 1.5006
 IR Inten    --     27.5318                34.7119                13.0148

                     13                     14                     15
                      A                      A                      A
 Frequencies --    572.6514               609.9336               618.2987
 Red. masses --      4.2800                 4.1861                 7.0477
 Frc consts  --      0.8269                 0.9175                 1.5874
 IR Inten    --      0.0427                40.1872                 0.0916

                     16                     17                     18
                      A                      A                      A
 Frequencies --    639.7891               693.4223               694.0760
 Red. masses --      6.5642                 1.2787                 1.3423
 Frc consts  --      1.5831                 0.3623                 0.3810
 IR Inten    --      3.4706               258.6349                36.6265

                     19                     20                     21
                      A                      A                      A
 Frequencies --    705.4426               734.0395               738.7922
 Red. masses --      5.5738                 3.6150                 3.4030
 Frc consts  --      1.6343                 1.1476                 1.0944
 IR Inten    --      6.8864                 0.4973                 1.2007

                     22                     23                     24
                      A                      A                      A
 Frequencies --    781.5820               792.1024               795.2001
 Red. masses --      5.9573                 1.5503                 1.6574
 Frc consts  --      2.1441                 0.5731                 0.6175
 IR Inten    --      7.4724                 3.3782                13.0457

                     25                     26                     27
                      A                      A                      A
 Frequencies --    909.4643               910.9022               912.2439
 Red. masses --      1.3445                 6.5151                 1.3621
 Frc consts  --      0.6552                 3.1850                 0.6678
 IR Inten    --      6.2700                53.3831                 3.0090

                     28                     29                     30
                      A                      A                      A
 Frequencies --    928.5030               931.0156               972.1704
 Red. masses --      1.2155                 1.2215                 6.2920
 Frc consts  --      0.6174                 0.6238                 3.5037
 IR Inten    --      0.0220                 0.6048               522.9475

                     31                     32                     33
                      A                      A                      A
 Frequencies --    990.1942               996.7916              1067.0451
 Red. masses --      2.2683                 2.0109                 4.2438
 Frc consts  --      1.3104                 1.1772                 2.8469
 IR Inten    --     82.9571                44.5030               262.7265

                     34                     35                     36
                      A                      A                      A
 Frequencies --   1099.5334              1105.4288              1146.9154
 Red. masses --      1.7295                 1.6819                 1.1379
 Frc consts  --      1.2319                 1.2109                 0.8819
 IR Inten    --    211.5988                61.3333                 5.7156

                     37                     38                     39
                      A                      A                      A
 Frequencies --   1152.4605              1212.8431              1215.7230
 Red. masses --      1.2293                 2.4242                 2.2933
 Frc consts  --      0.9619                 2.1010                 1.9970
 IR Inten    --      7.8620               111.1908               278.4389

                     40                     41                     42
                      A                      A                      A
 Frequencies --   1311.5272              1317.3317              1349.1898
 Red. masses --      2.3677                 2.3776                 3.5537
 Frc consts  --      2.3995                 2.4310                 3.8113
 IR Inten    --    465.0252               200.6774               175.8843

                     43                     44                     45
                      A                      A                      A
 Frequencies --   1358.5786              1378.7873              1442.8227
 Red. masses --      2.3867                 4.9398                 2.6280
 Frc consts  --      2.5955                 5.5330                 3.2233
 IR Inten    --      2.3545               584.7936                80.1303

                     46                     47                     48
                      A                      A                      A
 Frequencies --   1448.9951              1470.4731              1477.5970
 Red. masses --      5.4279                 2.8995                 3.0057
 Frc consts  --      6.7145                 3.6939                 3.8664
 IR Inten    --    321.9641               155.3733               213.7520

                     49                     50                     51
                      A                      A                      A
 Frequencies --   1517.0670              1542.6090              1571.3689
 Red. masses --      4.6401                 4.3073                 5.2604
 Frc consts  --      6.2919                 6.0390                 7.6529
 IR Inten    --     40.9137                57.2131               566.6234

                     52                     53                     54
                      A                      A                      A
 Frequencies --   1596.5486              3109.1248              3112.0806
 Red. masses --      6.0471                 1.0859                 1.0851
 Frc consts  --      9.0816                 6.1845                 6.1917
 IR Inten    --      2.4448                 0.6271                94.9087

                     55                     56                     57
                      A                      A                      A
 Frequencies --   3116.0349              3117.7823              3134.4316
 Red. masses --      1.0846                 1.0843                 1.0914
 Frc consts  --      6.2047                 6.2098                 6.3173
 IR Inten    --      0.7350                 1.6439               135.1128

                     58                     59                     60
                      A                      A                      A
 Frequencies --   3135.6259              3155.2981              3156.0809
 Red. masses --      1.0913                 1.0944                 1.0941
 Frc consts  --      6.3219                 6.4195                 6.4212
 IR Inten    --    145.9710               158.4384                47.6400

 - Thermochemistry -
 -------------------
 Temperature   298.150 Kelvin.  Pressure   1.00000 Atm.
 Atom     1 has atomic number  8 and mass  15.99491

 Molecular mass:   180.05751 amu.
 Principal axes and moments of inertia in atomic units:
                           1         2         3
     Eigenvalues --  1298.343553081.427094379.74201
           X            0.99812   0.03150  -0.05259
           Y           -0.04542   0.95614  -0.28938
           Z            0.04117   0.29122   0.95577
 This molecule is an asymmetric top.
 Rotational symmetry number  1.
 Warning -- assumption of classical behavior for rotation
           may cause significant error
 Rotational temperatures (Kelvin)      0.06671     0.02811     0.01978
 Rotational constants (GHZ):           1.39003     0.58568     0.41207
 Zero-point vibrational energy     428059.8 (Joules/Mol)
                                  102.30875 (Kcal/Mol)
 Warning -- explicit consideration of  15 degrees of freedom as
           vibrations may cause significant error
 Vibrational temperatures:    141.84   191.34   239.80   292.44   374.86
          (Kelvin)            405.74   487.82   603.57   609.55   626.26
                              733.82   789.20   823.92   877.56   889.59
                              920.51   997.68   998.62  1014.97  1056.12
                             1062.96  1124.52  1139.66  1144.12  1308.52
                             1310.59  1312.52  1335.91  1339.52  1398.74
                             1424.67  1434.16  1535.24  1581.98  1590.47
                             1650.16  1658.13  1745.01  1749.15  1887.00
                             1895.35  1941.18  1954.69  1983.77  2075.90
                             2084.78  2115.68  2125.93  2182.72  2219.47
                             2260.85  2297.08  4473.34  4477.59  4483.28
                             4485.79  4509.75  4511.47  4539.77  4540.90

 Zero-point correction=                           0.163039 (Hartree/Particle)
 Thermal correction to Energy=                    0.173011
 Thermal correction to Enthalpy=                  0.173955
 Thermal correction to Gibbs Free Energy=         0.127756
 Sum of electronic and zero-point Energies=           -575.616433
 Sum of electronic and thermal Energies=              -575.606461
 Sum of electronic and thermal Enthalpies=            -575.605517
 Sum of electronic and thermal Free Energies=         -575.651716

                     E (Thermal)             CV                S
                      KCal/Mol        Cal/Mol-Kelvin    Cal/Mol-Kelvin
 Total                  108.566             41.809             97.234
 Electronic               0.000              0.000              0.000
 Translational            0.889              2.981             41.471
 Rotational               0.889              2.981             31.239
 Vibrational            106.789             35.848             24.524
 Vibration     1          0.604              1.950              3.482
 Vibration     2          0.613              1.920              2.902
 Vibration     3          0.624              1.883              2.473
 Vibration     4          0.639              1.835              2.103
 Vibration     5          0.669              1.745              1.658
 Vibration     6          0.681              1.707              1.521
 Vibration     7          0.719              1.597              1.217
 Vibration     8          0.782              1.428              0.894
 Vibration     9          0.786              1.419              0.880
 Vibration    10          0.796              1.393              0.842
 Vibration    11          0.865              1.228              0.634
 Vibration    12          0.904              1.143              0.547
 Vibration    13          0.929              1.090              0.499
 Vibration    14          0.969              1.011              0.433
 Vibration    15          0.978              0.993              0.419

 Optimization completed.
    -- Stationary point found.
 Normal termination of Gaussian 16 at Sun Feb 11 17:08:43 2024.
