 Q-Chem 5.4, Q-Chem, Inc., Pleasanton, CA (2021)
 Q-Chem 5.4.0 for Intel X86 EM64T Linux

User input:
--------------------------------------------------------------
$molecule
-2 1
C                 -1.5931220000     -1.3869650000     -0.1672470000
C                 -0.2560350000     -0.6836090000     -0.1104480000
C                 -0.1838650000      0.7005030000      0.1430990000
C                 -1.4401100000      1.5035810000      0.3936600000
C                  1.0685770000      1.4160150000      0.2103640000
O                  1.1511570000      2.6875830000      0.4856530000
C                  2.2173540000      0.5999570000     -0.0325960000
C                  2.1453240000     -0.7677160000     -0.2931360000
C                  0.9143140000     -1.4922840000     -0.3584690000
O                  0.8579340000     -2.7649040000     -0.6355780000
H                 -1.4185910000     -2.4657550000     -0.1445300000
H                 -2.1544400000     -1.1693390000     -1.0995720000
H                 -2.2557630000     -1.1005300000      0.6579250000
H                 -1.8706250000      1.3256710000      1.4009700000
H                 -2.2384040000      1.2719150000     -0.3211900000
H                 -1.1894090000      2.5660070000      0.3373030000
H                  3.1881350000      1.0968840000      0.0147910000
H                  3.0575680000     -1.3370150000     -0.4810000000
$end

$rem
Scf_algorithm RCA_DIIS
BASIS  =  6-311++G(d,p)
GUI  =  2
JOB_TYPE  =  SP
METHOD  =  B3LYP
SCF_CONVERGENCE  = 6
SOLVENT_METHOD = sm12
$end

$smx
solvent dimethylformamide
charges CM5
$end

--------------------------------------------------------------

             Standard Nuclear Orientation (Angstroms)
    I     Atom           X                Y                Z
 ----------------------------------------------------------------
    1      C      -1.5931220000    -1.3869650000    -0.1672470000
    2      C      -0.2560350000    -0.6836090000    -0.1104480000
    3      C      -0.1838650000     0.7005030000     0.1430990000
    4      C      -1.4401100000     1.5035810000     0.3936600000
    5      C       1.0685770000     1.4160150000     0.2103640000
    6      O       1.1511570000     2.6875830000     0.4856530000
    7      C       2.2173540000     0.5999570000    -0.0325960000
    8      C       2.1453240000    -0.7677160000    -0.2931360000
    9      C       0.9143140000    -1.4922840000    -0.3584690000
   10      O       0.8579340000    -2.7649040000    -0.6355780000
   11      H      -1.4185910000    -2.4657550000    -0.1445300000
   12      H      -2.1544400000    -1.1693390000    -1.0995720000
   13      H      -2.2557630000    -1.1005300000     0.6579250000
   14      H      -1.8706250000     1.3256710000     1.4009700000
   15      H      -2.2384040000     1.2719150000    -0.3211900000
   16      H      -1.1894090000     2.5660070000     0.3373030000
   17      H       3.1881350000     1.0968840000     0.0147910000
   18      H       3.0575680000    -1.3370150000    -0.4810000000
 ----------------------------------------------------------------

   27    -460.1802193184      8.20E-07 Convergence criterion met
   12    -460.1752054766      7.31E-07 Convergence criterion met
 Total energy in the final basis set = -460.48557514

                    Orbital Energies (a.u.)
 --------------------------------------------------------------

 Alpha MOs
 -- Occupied --
-19.0240 -19.0240 -10.1836 -10.1836 -10.1713 -10.1712 -10.1517 -10.1513
-10.1459 -10.1454  -0.9348  -0.9314  -0.8066  -0.7575  -0.7261  -0.6576
 -0.6469  -0.5576  -0.5361  -0.4715  -0.4414  -0.4328  -0.4189  -0.4033
 -0.3903  -0.3871  -0.3824  -0.3600  -0.3550  -0.3282  -0.3268  -0.3139
 -0.2353  -0.2243  -0.2022  -0.1990  -0.1286

          Ground-State Mulliken Net Atomic Charges

     Atom                 Charge (a.u.)
  ----------------------------------------
      1 C                     0.806642
      2 C                     0.075732
      3 C                     0.092794
      4 C                     0.805597
      5 C                    -1.639978
      6 O                    -0.353052
      7 C                    -0.517091
      8 C                    -0.521453
      9 C                    -1.639266
     10 O                    -0.354023
     11 H                     0.192609
     12 H                     0.185673
     13 H                     0.237662
     14 H                     0.185473
     15 H                     0.237514
     16 H                     0.193146
     17 H                     0.006107
     18 H                     0.005915
  ----------------------------------------
  Sum of atomic charges =    -2.000000

                    Cartesian Multipole Moments
 -----------------------------------------------------------------
    Charge (ESU x 10^10)
                -9.6064
    Dipole Moment (Debye)
         X      -9.3084      Y       0.3579      Z       0.6963
       Tot       9.3413
    Quadrupole Moments (Debye-Ang)
        XX     -91.0593     XY      -2.3048     YY    -128.1312
        XZ       0.8313     YZ     -11.7524     ZZ     -73.9305

 Total job time:  161.94s(wall), 439.18s(cpu)
        *  Thank you very much for using Q-Chem.  Have a nice day.  *
