 Gaussian 16, Revision A.03,
 Gaussian 16:  ES64L-G16RevA.03 25-Dec-2016

 ----------------------------------------------------------------------
 #P UB3LYP/6-311++G(d,p) nosym opt freq SCRF=(PCM,Solvent=n,n-DiMethylF
 ormamide)
 ----------------------------------------------------------------------

 -------
 Radical
 -------
 Symbolic Z-matrix:
 Charge = -1 Multiplicity = 2

 SCF Done:  E(UB3LYP) =  -967.980335014     A.U. after   18 cycles
 SCF Done:  E(UB3LYP) =  -967.980674890     A.U. after   15 cycles
 SCF Done:  E(UB3LYP) =  -967.980704419     A.U. after   13 cycles
 SCF Done:  E(UB3LYP) =  -967.980727653     A.U. after   12 cycles
 SCF Done:  E(UB3LYP) =  -967.980731743     A.U. after   11 cycles
 SCF Done:  E(UB3LYP) =  -967.980733055     A.U. after   10 cycles
 SCF Done:  E(UB3LYP) =  -967.980733924     A.U. after   10 cycles
 SCF Done:  E(UB3LYP) =  -967.980735238     A.U. after   10 cycles
 SCF Done:  E(UB3LYP) =  -967.980735632     A.U. after   10 cycles
 SCF Done:  E(UB3LYP) =  -967.980735826     A.U. after   10 cycles
 Optimization completed.
    -- Stationary point found.
 Normal termination of Gaussian 16 at Sun Feb 11 03:34:49 2024.

 ----------------------------------------------------------------------
 #P Geom=AllCheck Guess=TCheck SCRF=Check GenChk UB3LYP/6-311++G(d,p) F
 req
 ----------------------------------------------------------------------

 Structure from the checkpoint file:  "249-rad.chk"
 -------
 Radical
 -------
 Charge = -1 Multiplicity = 2

                          Input orientation:
 ---------------------------------------------------------------------
 Center     Atomic      Atomic             Coordinates (Angstroms)
 Number     Number       Type             X           Y           Z
 ---------------------------------------------------------------------
      1          6           0        5.764990   -5.731487    0.488935
      2          6           0        5.916232   -5.907162   -0.875608
      3          6           0        5.242158   -5.055570   -1.771308
      4          6           0        4.942070   -4.709122    1.005367
      5          6           0        4.262870   -3.851774    0.102989
      6          6           0        4.430280   -4.046265   -1.283612
      7          6           0        4.797666   -4.540170    2.457198
      8          6           0        3.930965   -3.477674    2.919483
      9          6           0        3.269971   -2.630302    2.032945
     10          6           0        3.396873   -2.774640    0.599560
     11          8           0        5.418426   -5.306238    3.257953
     12          8           0        2.792791   -2.006821   -0.211037
     13          1           0        6.552913   -6.699152   -1.255478
     14          6           0        2.366592   -1.521904    2.526404
     15          1           0        5.359633   -5.191367   -2.841202
     16          6           0        3.788411   -3.312332    4.415281
     17          6           0        0.886793   -1.941502    2.647475
     18          6           0       -0.025949   -0.803352    3.117131
     19          6           0       -1.500400   -1.207877    3.229597
     20          1           0        6.277380   -6.377900    1.191280
     21          1           0        3.904066   -3.382609   -1.959194
     22          1           0        2.427971   -0.686782    1.823281
     23          1           0        2.712014   -1.154078    3.496781
     24          1           0        4.224481   -4.170226    4.925453
     25          1           0        2.743046   -3.217397    4.719982
     26          1           0        4.307681   -2.414545    4.772399
     27          1           0        0.802262   -2.785647    3.342689
     28          1           0        0.542925   -2.306871    1.673622
     29          1           0        0.064802    0.041379    2.421744
     30          1           0        0.323837   -0.436107    4.091043
     31          1           0       -1.591420   -2.051695    3.926032
     32          1           0       -1.847771   -1.577160    2.255857
     33          6           0       -2.418101   -0.070615    3.693057
     34          6           0       -3.892860   -0.475710    3.798545
     35          6           0       -4.812664    0.661281    4.258253
     36          6           0       -6.287410    0.256005    4.360083
     37          6           0       -7.208855    1.392141    4.818589
     38          6           0       -8.680112    0.977180    4.915714
     39          1           0       -2.324824    0.774142    2.998083
     40          1           0       -2.073677    0.297071    4.668519
     41          1           0       -3.986564   -1.319621    4.494491
     42          1           0       -4.235887   -0.845055    2.823252
     43          1           0       -4.717815    1.505686    3.563045
     44          1           0       -4.471303    1.029779    5.234485
     45          1           0       -6.383646   -0.588109    5.055666
     46          1           0       -6.629481   -0.112696    3.384041
     47          1           0       -7.113135    2.235776    4.124053
     48          1           0       -6.868615    1.760160    5.794322
     49          1           0       -9.058830    0.636875    3.946459
     50          1           0       -9.309491    1.808975    5.245051
     51          1           0       -8.812476    0.157110    5.628919
 ---------------------------------------------------------------------

 SCF Done:  E(UB3LYP) =  -967.980735826     A.U. after    1 cycles

 Alpha  occ. eigenvalues --  -19.06966 -19.06927 -10.21486 -10.21434 -10.17044
 Alpha  occ. eigenvalues --  -10.16995 -10.16894 -10.16843 -10.16723 -10.16721
 Alpha  occ. eigenvalues --  -10.16581 -10.16243 -10.16062 -10.15813 -10.15792
 Alpha  occ. eigenvalues --  -10.15769 -10.15744 -10.15710 -10.15668 -10.15643
 Alpha  occ. eigenvalues --  -10.15469 -10.15440 -10.15080  -0.99174  -0.98895
 Alpha  occ. eigenvalues --   -0.85434  -0.81824  -0.80854  -0.79201  -0.76926
 Alpha  occ. eigenvalues --   -0.75219  -0.74630  -0.73407  -0.70582  -0.68012
 Alpha  occ. eigenvalues --   -0.65633  -0.64336  -0.61138  -0.59397  -0.58210
 Alpha  occ. eigenvalues --   -0.57527  -0.56978  -0.56901  -0.54727  -0.51136
 Alpha  occ. eigenvalues --   -0.48711  -0.48285  -0.46843  -0.46126  -0.45086
 Alpha  occ. eigenvalues --   -0.44017  -0.43305  -0.42591  -0.42318  -0.42137
 Alpha  occ. eigenvalues --   -0.41498  -0.41006  -0.40672  -0.40285  -0.39456
 Alpha  occ. eigenvalues --   -0.38990  -0.38401  -0.38146  -0.37666  -0.36839
 Alpha  occ. eigenvalues --   -0.36525  -0.35871  -0.35397  -0.34763  -0.34446
 Alpha  occ. eigenvalues --   -0.33680  -0.33622  -0.32989  -0.32967  -0.32380
 Alpha  occ. eigenvalues --   -0.32076  -0.32041  -0.31829  -0.31657  -0.29771
 Alpha  occ. eigenvalues --   -0.26367  -0.25355  -0.24049  -0.23711  -0.22987
 Alpha  occ. eigenvalues --   -0.14752
 Alpha virt. eigenvalues --   -0.03063  -0.01189  -0.00448  -0.00150   0.00397
 Alpha virt. eigenvalues --    0.00763   0.00861   0.01267   0.01615   0.01987
 Alpha virt. eigenvalues --    0.02367   0.02541   0.03343   0.03538   0.04122

  Beta  occ. eigenvalues --  -19.06341 -19.06315 -10.21310 -10.21262 -10.17010
  Beta  occ. eigenvalues --  -10.16961 -10.16841 -10.16792 -10.16717 -10.16714
  Beta  occ. eigenvalues --  -10.16448 -10.16110 -10.16062 -10.15813 -10.15792
  Beta  occ. eigenvalues --  -10.15769 -10.15744 -10.15709 -10.15659 -10.15637
  Beta  occ. eigenvalues --  -10.15479 -10.15440 -10.15091  -0.98093  -0.97786
  Beta  occ. eigenvalues --   -0.85227  -0.81558  -0.80776  -0.79129  -0.76835
  Beta  occ. eigenvalues --   -0.75076  -0.74456  -0.73299  -0.70389  -0.67877
  Beta  occ. eigenvalues --   -0.65222  -0.64005  -0.61064  -0.59298  -0.58043
  Beta  occ. eigenvalues --   -0.57497  -0.56956  -0.56810  -0.54466  -0.50942
  Beta  occ. eigenvalues --   -0.48494  -0.48267  -0.46807  -0.45882  -0.45026
  Beta  occ. eigenvalues --   -0.43953  -0.43211  -0.42280  -0.42135  -0.42043
  Beta  occ. eigenvalues --   -0.41266  -0.40853  -0.40317  -0.39897  -0.39021
  Beta  occ. eigenvalues --   -0.38587  -0.38354  -0.38071  -0.37495  -0.36469
  Beta  occ. eigenvalues --   -0.36007  -0.35521  -0.34766  -0.34198  -0.33702
  Beta  occ. eigenvalues --   -0.33599  -0.33152  -0.32883  -0.32820  -0.32323
  Beta  occ. eigenvalues --   -0.32051  -0.32013  -0.31827  -0.31600  -0.29688
  Beta  occ. eigenvalues --   -0.24696  -0.24208  -0.23475  -0.22686  -0.22394
  Beta virt. eigenvalues --   -0.08148  -0.02355  -0.00470  -0.00145  -0.00088
  Beta virt. eigenvalues --    0.00409   0.00766   0.00869   0.01273   0.01624
  Beta virt. eigenvalues --    0.01995   0.02376   0.02555   0.03355   0.03546

 Mulliken charges and spin densities:
               1          2
     1  C    0.175543   0.033692
     2  C   -0.445615   0.024606
     3  C   -0.423633   0.027123
     4  C    0.214045   0.008940
     5  C   -0.169385   0.021132
     6  C    0.067000   0.034080
     7  C   -0.757798   0.100748
     8  C    0.988953   0.090320
     9  C    1.029686   0.087194
    10  C   -0.914680   0.099889
    11  O   -0.489092   0.229421
    12  O   -0.470790   0.228364
    13  H    0.175954  -0.002186
    14  C   -0.525406   0.013895
    15  H    0.175876  -0.002167
    16  C   -0.553759  -0.002643
    17  C   -0.945070   0.000047
    18  C   -0.285057   0.004924
    19  C    0.006594  -0.003303
    20  H    0.168668  -0.002308
    21  H    0.166791  -0.002528
    22  H    0.212933   0.002579
    23  H    0.176399   0.000850
    24  H    0.176581  -0.001317
    25  H    0.157388   0.003806
    26  H    0.178281   0.006404
    27  H    0.127487  -0.000411
    28  H    0.185827  -0.000451
    29  H    0.118395   0.000191
    30  H    0.114363  -0.000481
    31  H    0.129060   0.000111
    32  H    0.123940  -0.000165
    33  C    0.070742  -0.000395
    34  C   -0.005169  -0.000130
    35  C   -0.241162   0.000147
    36  C   -0.450194   0.000022
    37  C   -0.280185   0.000011
    38  C   -0.691190  -0.000005
    39  H    0.130280  -0.000007
    40  H    0.130630   0.000002
    41  H    0.129560  -0.000006
    42  H    0.129378   0.000005
    43  H    0.126232   0.000005
    44  H    0.126218  -0.000002
    45  H    0.123312   0.000000
    46  H    0.123242  -0.000001
    47  H    0.130868  -0.000001
    48  H    0.130907   0.000000
    49  H    0.139953  -0.000000
    50  H    0.147299  -0.000001
    51  H    0.139802   0.000000
 Sum of Mulliken charges =  -1.00000   1.00000

 Dipole moment (field-independent basis, Debye):
    X=            -20.1311    Y=             18.1267    Z=             -6.5657  Tot=             27.8738
 Quadrupole moment (field-independent basis, Debye-Ang):
   XX=           -243.9513   YY=           -229.6783   ZZ=           -167.3830
   XY=             84.6126   XZ=            -39.4905   YZ=             40.1683

  Exact polarizability: 362.676-101.761 375.231 -10.993   6.598 437.687
 Approx polarizability: 367.848-100.142 412.582  11.258 -14.496 481.145

                      1                      2                      3
                      A                      A                      A
 Frequencies --     14.9370                21.9837                27.2962
 Red. masses --      4.5394                 4.9351                 1.5769
 Frc consts  --      0.0006                 0.0014                 0.0007
 IR Inten    --      0.0302                 0.0986                 0.0899

                      4                      5                      6
                      A                      A                      A
 Frequencies --     37.1221                48.6881                71.0911
 Red. masses --      4.1082                 4.3696                 2.0304
 Frc consts  --      0.0033                 0.0061                 0.0060
 IR Inten    --      0.7994                 2.5323                 8.1773

                      7                      8                      9
                      A                      A                      A
 Frequencies --     77.2611                80.8989                88.7960
 Red. masses --      1.9812                 1.6470                 2.5534
 Frc consts  --      0.0070                 0.0064                 0.0119
 IR Inten    --      0.5723                 0.4605                 8.6754

                     10                     11                     12
                      A                      A                      A
 Frequencies --    109.2692               122.6292               125.1563
 Red. masses --      2.7740                 3.9524                 1.9823
 Frc consts  --      0.0195                 0.0350                 0.0183
 IR Inten    --      0.2669                 0.9532                 0.1193

                     13                     14                     15
                      A                      A                      A
 Frequencies --    132.4793               140.2643               161.1659
 Red. masses --      2.1250                 4.8361                 1.9231
 Frc consts  --      0.0220                 0.0561                 0.0294
 IR Inten    --      0.4486                 0.1736                 0.0252

                     16                     17                     18
                      A                      A                      A
 Frequencies --    165.6135               178.6148               201.9327
 Red. masses --      2.0572                 6.0573                 3.8841
 Frc consts  --      0.0332                 0.1139                 0.0933
 IR Inten    --      0.1424                 2.1443                 0.1091

                     19                     20                     21
                      A                      A                      A
 Frequencies --    243.5963               247.7808               259.6106
 Red. masses --      1.1197                 3.8087                 4.2501
 Frc consts  --      0.0391                 0.1378                 0.1688
 IR Inten    --      0.0026                 0.4274                 9.0248

                     22                     23                     24
                      A                      A                      A
 Frequencies --    311.9935               332.3509               344.3048
 Red. masses --      4.2836                 3.4315                 2.5065
 Frc consts  --      0.2457                 0.2233                 0.1751
 IR Inten    --      0.7851                 0.3548                 0.0313

                     25                     26                     27
                      A                      A                      A
 Frequencies --    352.3896               388.9863               393.6907
 Red. masses --      3.9324                 7.8167                 3.7895
 Frc consts  --      0.2877                 0.6969                 0.3460
 IR Inten    --      3.3935                26.1888                 1.3649

                     28                     29                     30
                      A                      A                      A
 Frequencies --    427.3902               431.8611               444.5730
 Red. masses --      6.1796                 4.7246                 3.8324
 Frc consts  --      0.6651                 0.5192                 0.4463
 IR Inten    --      5.6257                 1.4512                 2.3767

                     31                     32                     33
                      A                      A                      A
 Frequencies --    457.3025               491.6003               495.2870
 Red. masses --      3.4901                 4.8817                 3.2208
 Frc consts  --      0.4300                 0.6951                 0.4655
 IR Inten    --      1.0488                 2.0436                 0.2010

                     34                     35                     36
                      A                      A                      A
 Frequencies --    528.9789               565.7523               636.4600
 Red. masses --      5.9572                 4.7034                 5.1428
 Frc consts  --      0.9821                 0.8870                 1.2274
 IR Inten    --      2.1272                 7.8733                36.9733

                     37                     38                     39
                      A                      A                      A
 Frequencies --    674.4030               674.7794               692.9632
 Red. masses --      5.5571                 3.4215                 3.6203
 Frc consts  --      1.4891                 0.9179                 1.0243
 IR Inten    --      5.5206                 0.9759                39.3720

                     40                     41                     42
                      A                      A                      A
 Frequencies --    720.7028               728.0236               729.1659
 Red. masses --      3.2856                 1.0660                 1.0816
 Frc consts  --      1.0055                 0.3329                 0.3388
 IR Inten    --     58.8758                15.1232                 1.1037

                     43                     44                     45
                      A                      A                      A
 Frequencies --    736.1367               755.6420               787.5340
 Red. masses --      1.1281                 1.1966                 1.7627
 Frc consts  --      0.3602                 0.4026                 0.6441
 IR Inten    --      2.1372                 0.3626                42.0427

                     46                     47                     48
                      A                      A                      A
 Frequencies --    790.8182               797.7536               827.9988
 Red. masses --      1.3666                 4.5978                 1.9681
 Frc consts  --      0.5035                 1.7240                 0.7950
 IR Inten    --      1.0553                 1.1848                 8.2240

                     49                     50                     51
                      A                      A                      A
 Frequencies --    858.8685               887.9520               893.7816
 Red. masses --      1.5551                 1.4493                 1.9643
 Frc consts  --      0.6759                 0.6733                 0.9245
 IR Inten    --      2.1822                 0.0024                 1.7881

                     52                     53                     54
                      A                      A                      A
 Frequencies --    900.2968               928.3464               974.7532
 Red. masses --      2.1049                 1.7209                 3.9434
 Frc consts  --      1.0052                 0.8738                 2.2075
 IR Inten    --      8.1946                12.5808                 3.5629

                     55                     56                     57
                      A                      A                      A
 Frequencies --    984.0837               985.8790               989.7316
 Red. masses --      1.5798                 1.3706                 2.8459
 Frc consts  --      0.9014                 0.7849                 1.6425
 IR Inten    --      1.8952                 3.0496                 7.9742

                     58                     59                     60
                      A                      A                      A
 Frequencies --    999.6137              1003.7623              1011.0144
 Red. masses --      1.2811                 3.5210                 3.5175
 Frc consts  --      0.7542                 2.0902                 2.1184
 IR Inten    --      0.0414                 2.5835                 1.0723

                     61                     62                     63
                      A                      A                      A
 Frequencies --   1034.7592              1036.4220              1041.2894
 Red. masses --      1.7372                 2.3470                 1.6558
 Frc consts  --      1.0959                 1.4854                 1.0578
 IR Inten    --     13.3948                 7.8175                 7.5142

                     64                     65                     66
                      A                      A                      A
 Frequencies --   1043.4798              1056.2764              1063.0335
 Red. masses --      1.5014                 2.5779                 2.1378
 Frc consts  --      0.9632                 1.6946                 1.4233
 IR Inten    --      6.6355                 0.2785                 6.3390

                     67                     68                     69
                      A                      A                      A
 Frequencies --   1064.5409              1066.0825              1078.8872
 Red. masses --      2.1818                 1.7044                 2.8338
 Frc consts  --      1.4568                 1.1413                 1.9434
 IR Inten    --      0.1377                13.6696                 0.3724

                     70                     71                     72
                      A                      A                      A
 Frequencies --   1107.9562              1136.1703              1139.7957
 Red. masses --      2.1420                 2.5575                 1.8646
 Frc consts  --      1.5492                 1.9451                 1.4272
 IR Inten    --     10.3136                26.9354                54.6743

                     73                     74                     75
                      A                      A                      A
 Frequencies --   1148.0935              1183.3830              1201.6515
 Red. masses --      1.4691                 2.4013                 1.8827
 Frc consts  --      1.1409                 1.9813                 1.6017
 IR Inten    --      2.5089                 2.4874                 0.0739

                     76                     77                     78
                      A                      A                      A
 Frequencies --   1208.6975              1226.9919              1235.3182
 Red. masses --      1.8749                 1.2497                 1.7483
 Frc consts  --      1.6139                 1.1085                 1.5719
 IR Inten    --     13.9078                 0.1503                13.8214

                     79                     80                     81
                      A                      A                      A
 Frequencies --   1248.4452              1263.6088              1270.5801
 Red. masses --      2.7342                 1.3078                 1.7394
 Frc consts  --      2.5109                 1.2303                 1.6545
 IR Inten    --     11.7615                 2.0984                81.5819

                     82                     83                     84
                      A                      A                      A
 Frequencies --   1280.0593              1299.6049              1304.5162
 Red. masses --      1.5869                 1.3171                 1.2813
 Frc consts  --      1.5320                 1.3107                 1.2847
 IR Inten    --     30.5648                 3.6808                 0.1793

                     85                     86                     87
                      A                      A                      A
 Frequencies --   1321.6929              1323.9822              1327.3982
 Red. masses --      1.1147                 1.0777                 1.0527
 Frc consts  --      1.1473                 1.1130                 1.0928
 IR Inten    --      0.3536                 0.2596                 0.7768

                     88                     89                     90
                      A                      A                      A
 Frequencies --   1331.8877              1333.1596              1333.2906
 Red. masses --      1.3239                 1.0852                 1.1417
 Frc consts  --      1.3837                 1.1364                 1.1958
 IR Inten    --      5.2339                 0.0831                 0.1408

                     91                     92                     93
                      A                      A                      A
 Frequencies --   1355.6342              1357.4098              1374.8835
 Red. masses --      7.5823                 1.4763                 1.4644
 Frc consts  --      8.2099                 1.6026                 1.6309
 IR Inten    --      7.1348                 4.5993                 3.5616

                     94                     95                     96
                      A                      A                      A
 Frequencies --   1382.2478              1388.3782              1394.8993
 Red. masses --      1.3416                 1.5382                 1.5974
 Frc consts  --      1.5102                 1.7469                 1.8312
 IR Inten    --     32.0544                 3.5300                 1.5119

                     97                     98                     99
                      A                      A                      A
 Frequencies --   1395.6530              1403.4692              1406.7887
 Red. masses --      1.6318                 1.2633                 2.7034
 Frc consts  --      1.8727                 1.4661                 3.1523
 IR Inten    --      0.2546                 2.3099               225.2994

                    100                    101                    102
                      A                      A                      A
 Frequencies --   1448.0799              1466.3838              1470.4764
 Red. masses --      2.1887                 2.7385                 1.0714
 Frc consts  --      2.7041                 3.4694                 1.3650
 IR Inten    --    693.3309               102.7858                 0.0777

                    103                    104                    105
                      A                      A                      A
 Frequencies --   1470.7403              1472.3727              1475.0140
 Red. masses --      1.0936                 1.1667                 1.2001
 Frc consts  --      1.3937                 1.4902                 1.5383
 IR Inten    --      0.1818                 2.1011                 5.5496

                    106                    107                    108
                      A                      A                      A
 Frequencies --   1477.5185              1480.1725              1485.9119
 Red. masses --      1.4947                 1.1704                 1.1159
 Frc consts  --      1.9225                 1.5108                 1.4517
 IR Inten    --    109.6088                22.5616                 0.5590

                    109                    110                    111
                      A                      A                      A
 Frequencies --   1486.9638              1487.9461              1492.3401
 Red. masses --      1.1505                 1.0403                 1.2409
 Frc consts  --      1.4988                 1.3570                 1.6282
 IR Inten    --      5.6303                10.3550                 4.5263

                    112                    113                    114
                      A                      A                      A
 Frequencies --   1494.4939              1499.0492              1502.9085
 Red. masses --      2.2385                 1.1432                 2.3888
 Frc consts  --      2.9458                 1.5136                 3.1790
 IR Inten    --     67.5129                45.6839               559.2911

                    115                    116                    117
                      A                      A                      A
 Frequencies --   1504.5934              1507.9522              1541.8259
 Red. masses --      1.1600                 1.1000                 4.7161
 Frc consts  --      1.5472                 1.4738                 6.6055
 IR Inten    --     67.2021                27.6249                19.5488

                    118                    119                    120
                      A                      A                      A
 Frequencies --   1608.0337              1626.7901              2987.0441
 Red. masses --      7.7715                 5.8897                 1.0573
 Frc consts  --     11.8399                 9.1834                 5.5582
 IR Inten    --      6.8295                 2.3225                 0.1422

                    121                    122                    123
                      A                      A                      A
 Frequencies --   2987.6369              2989.4076              2990.6972
 Red. masses --      1.0570                 1.0582                 1.0575
 Frc consts  --      5.5586                 5.5719                 5.5728
 IR Inten    --      0.7864                17.2695                 0.1850

                    124                    125                    126
                      A                      A                      A
 Frequencies --   2993.7241              2998.4513              3002.7704
 Red. masses --      1.0590                 1.0594                 1.0606
 Frc consts  --      5.5922                 5.6117                 5.6345
 IR Inten    --      1.2668               191.6356               217.8344

                    127                    128                    129
                      A                      A                      A
 Frequencies --   3003.0072              3004.7347              3007.0967
 Red. masses --      1.0962                 1.0934                 1.0713
 Frc consts  --      5.8242                 5.8162                 5.7077
 IR Inten    --      3.7124                14.8770                81.8244

                    130                    131                    132
                      A                      A                      A
 Frequencies --   3008.0979              3010.8710              3012.9759
 Red. masses --      1.0531                 1.0938                 1.0355
 Frc consts  --      5.6145                 5.8420                 5.5384
 IR Inten    --     57.9032                13.7740                57.3200

                    133                    134                    135
                      A                      A                      A
 Frequencies --   3018.5424              3027.9765              3034.5165
 Red. masses --      1.1018                 1.1036                 1.0669
 Frc consts  --      5.9147                 5.9617                 5.7885
 IR Inten    --      4.9756                 8.1450                93.5946

                    136                    137                    138
                      A                      A                      A
 Frequencies --   3036.9737              3043.2251              3047.2020
 Red. masses --      1.0987                 1.1042                 1.1025
 Frc consts  --      5.9707                 6.0252                 6.0315
 IR Inten    --     19.8166               180.5860               280.1745

                    139                    140                    141
                      A                      A                      A
 Frequencies --   3063.6437              3071.6246              3076.4969
 Red. masses --      1.0885                 1.1026                 1.1011
 Frc consts  --      6.0196                 6.1293                 6.1404
 IR Inten    --     42.7252               118.1128                73.1743

                    142                    143                    144
                      A                      A                      A
 Frequencies --   3076.5147              3123.1952              3156.3642
 Red. masses --      1.1036                 1.0967                 1.0859
 Frc consts  --      6.1543                 6.3031                 6.3741
 IR Inten    --     79.9013                14.5896                10.5784

                    145                    146                    147
                      A                      A                      A
 Frequencies --   3170.7390              3187.3983              3190.7977
 Red. masses --      1.0905                 1.0916                 1.0942
 Frc consts  --      6.4595                 6.5341                 6.5636
 IR Inten    --     25.6649                19.1861                37.4804

 - Thermochemistry -
 -------------------
 Temperature   298.150 Kelvin.  Pressure   1.00000 Atm.
 Atom     1 has atomic number  6 and mass  12.00000

 Molecular mass:   312.20893 amu.
 Principal axes and moments of inertia in atomic units:
                           1         2         3
     Eigenvalues --  2690.08914********************
           X            0.86285   0.28254   0.41913
           Y           -0.40794  -0.10038   0.90748
           Z           -0.29847   0.95399  -0.02864
 This molecule is an asymmetric top.
 Rotational symmetry number  1.
 Warning -- assumption of classical behavior for rotation
           may cause significant error
 Rotational temperatures (Kelvin)      0.03220     0.00278     0.00266
 Rotational constants (GHZ):           0.67089     0.05802     0.05550
 Zero-point vibrational energy    1154305.6 (Joules/Mol)
                                  275.88565 (Kcal/Mol)
 Warning -- explicit consideration of  35 degrees of freedom as
           vibrations may cause significant error
 Vibrational temperatures:     21.49    31.63    39.27    53.41    70.05
          (Kelvin)            102.28   111.16   116.40   127.76   157.21
                              176.44   180.07   190.61   201.81   231.88
                              238.28   256.99   290.54   350.48   356.50
                              373.52   448.89   478.18   495.38   507.01
                              559.66   566.43   614.92   621.35   639.64
                              657.96   707.30   712.61   761.08   813.99
                              915.72   970.32   970.86   997.02  1036.93
                             1047.46  1049.11  1059.14  1087.20  1133.09
                             1137.81  1147.79  1191.31  1235.72  1277.56
                             1285.95  1295.33  1335.68  1402.45  1415.88
                             1418.46  1424.00  1438.22  1444.19  1454.62
                             1488.79  1491.18  1498.18  1501.33  1519.75
                             1529.47  1531.64  1533.85  1552.28  1594.10
                             1634.70  1639.91  1651.85  1702.62  1728.91
                             1739.05  1765.37  1777.35  1796.23  1818.05
                             1828.08  1841.72  1869.84  1876.91  1901.62
                             1904.92  1909.83  1916.29  1918.12  1918.31
                             1950.46  1953.01  1978.15  1988.75  1997.57
                             2006.95  2008.03  2019.28  2024.06  2083.46
                             2109.80  2115.69  2116.07  2118.42  2122.22
                             2125.82  2129.64  2137.90  2139.41  2140.82
                             2147.14  2150.24  2156.80  2162.35  2164.77
                             2169.61  2218.34  2313.60  2340.59  4297.69
                             4298.54  4301.09  4302.95  4307.30  4314.10
                             4320.32  4320.66  4323.14  4326.54  4327.98
                             4331.97  4335.00  4343.01  4356.58  4365.99
                             4369.53  4378.52  4384.24  4407.90  4419.38
                             4426.39  4426.42  4493.58  4541.30  4561.99
                             4585.96  4590.85

 Zero-point correction=                           0.439652 (Hartree/Particle)
 Thermal correction to Energy=                    0.463935
 Thermal correction to Enthalpy=                  0.464879
 Thermal correction to Gibbs Free Energy=         0.381473
 Sum of electronic and zero-point Energies=           -967.541084
 Sum of electronic and thermal Energies=              -967.516801
 Sum of electronic and thermal Enthalpies=            -967.515857
 Sum of electronic and thermal Free Energies=         -967.599262

                     E (Thermal)             CV                S
                      KCal/Mol        Cal/Mol-Kelvin    Cal/Mol-Kelvin
 Total                  291.123             90.293            175.541
 Electronic               0.000              0.000              1.377
 Translational            0.889              2.981             43.112
 Rotational               0.889              2.981             36.252
 Vibrational            289.346             84.332             94.800
 Vibration     1          0.593              1.986              7.214
 Vibration     2          0.593              1.985              6.446
 Vibration     3          0.593              1.984              6.017
 Vibration     4          0.594              1.982              5.407
 Vibration     5          0.595              1.978              4.870
 Vibration     6          0.598              1.968              4.123
 Vibration     7          0.599              1.964              3.959
 Vibration     8          0.600              1.962              3.869
 Vibration     9          0.602              1.957              3.686
 Vibration    10          0.606              1.942              3.282
 Vibration    11          0.610              1.930              3.059
 Vibration    12          0.610              1.928              3.019
 Vibration    13          0.613              1.921              2.910
 Vibration    14          0.615              1.913              2.800
 Vibration    15          0.622              1.890              2.536
 Vibration    16          0.624              1.885              2.485
 Vibration    17          0.629              1.869              2.343
 Vibration    18          0.639              1.837              2.115
 Vibration    19          0.659              1.773              1.776
 Vibration    20          0.661              1.766              1.746
 Vibration    21          0.668              1.746              1.664
 Vibration    22          0.700              1.651              1.352
 Vibration    23          0.714              1.611              1.249
 Vibration    24          0.723              1.587              1.192
 Vibration    25          0.729              1.570              1.155
 Vibration    26          0.757              1.494              1.004
 Vibration    27          0.761              1.484              0.986
 Vibration    28          0.789              1.411              0.867
 Vibration    29          0.793              1.401              0.853
 Vibration    30          0.804              1.373              0.812
 Vibration    31          0.815              1.345              0.774
 Vibration    32          0.847              1.269              0.679
 Vibration    33          0.851              1.260              0.670
 Vibration    34          0.884              1.186              0.589
 Vibration    35          0.922              1.105              0.512

 Optimization completed.
    -- Stationary point found.
 Normal termination of Gaussian 16 at Sun Feb 11 08:16:18 2024.
