 Q-Chem 5.4, Q-Chem, Inc., Pleasanton, CA (2021)
 Q-Chem 5.4.0 for Intel X86 EM64T Linux

User input:
--------------------------------------------------------------
$molecule
0 1
C                 -0.9498830000      2.1013000000     -0.2164810000
C                 -1.3654260000      2.2019960000      1.1076570000
C                 -0.7294150000      1.4505820000      2.0975630000
C                  0.1042650000      1.2467870000     -0.5482110000
C                  0.7460100000      0.4893620000      0.4454310000
C                  0.3221080000      0.5969660000      1.7687770000
C                  0.5559280000      1.1283770000     -1.9463970000
C                  1.6883020000      0.2051910000     -2.2458630000
C                  2.3162740000     -0.5436360000     -1.3061520000
C                  1.8808400000     -0.4342720000      0.1019590000
O                  0.0582260000      1.7430710000     -2.8831000000
O                  2.4286200000     -1.0850920000      0.9809930000
H                 -1.4279230000      2.6736340000     -1.0020320000
H                 -2.1827080000      2.8639670000      1.3694350000
H                 -1.0546540000      1.5304780000      3.1286520000
H                  0.8260630000      0.0069540000      2.5241630000
O                  2.0342760000      0.1710050000     -3.5430900000
C                  3.4623510000     -1.4579870000     -1.6363110000
C                  4.8371960000     -0.7731270000     -1.4810130000
C                  6.0016780000     -1.7122610000     -1.8115200000
C                  7.3757280000     -1.0486740000     -1.6661130000
C                  8.5447510000     -1.9828000000     -1.9988130000
C                  9.9190590000     -1.3198610000     -1.8517680000
C                 11.0877840000     -2.2538360000     -2.1852050000
C                 12.4614820000     -1.5882980000     -2.0365700000
C                 13.6246060000     -2.5346280000     -2.3748700000
C                 14.9682060000     -1.8441250000     -2.2169170000
Br                16.4856230000     -3.0510690000     -2.6509400000
H                  1.4246110000      0.7804280000     -4.0012420000
H                  3.3509950000     -1.8151910000     -2.6632940000
H                  3.4198590000     -2.3216980000     -0.9681490000
H                  4.9398870000     -0.4092030000     -0.4532410000
H                  4.8767090000      0.1050600000     -2.1354150000
H                  5.8862750000     -2.0858080000     -2.8371610000
H                  5.9526480000     -2.5921770000     -1.1576930000
H                  7.4904400000     -0.6767080000     -0.6399310000
H                  7.4218190000     -0.1658470000     -2.3167880000
H                  8.4302710000     -2.3543210000     -3.0253070000
H                  8.4979860000     -2.8662180000     -1.3491380000
H                 10.0335720000     -0.9491090000     -0.8250100000
H                  9.9655530000     -0.4359390000     -2.5009350000
H                 10.9751330000     -2.6238580000     -3.2120620000
H                 11.0427190000     -3.1375420000     -1.5363420000
H                 12.5759120000     -1.2205340000     -1.0091610000
H                 12.5076380000     -0.7050820000     -2.6859910000
H                 13.5200780000     -2.8973430000     -3.4021290000
H                 13.5881570000     -3.4136990000     -1.7239880000
H                 15.1522560000     -1.5211110000     -1.1939900000
H                 15.0829250000     -0.9978740000     -2.8916700000
$end
$rem
MAX_SCF_CYCLES=200
BASIS  =  6-311++G(d,p)
GUI  =  2
JOB_TYPE  =  SP
METHOD  =  B3LYP
SCF_CONVERGENCE = 8
SCF_ALGORITHM = RCA_DIIS
scf_guess = core
THRESH = 14
SOLVENT_METHOD = PCM
$end
$pcm
theory = CPCM
$end
$solvent
dielectric 37.219
opticaldielectric 1.43
$end

--------------------------------------------------------------

             Standard Nuclear Orientation (Angstroms)
    I     Atom           X                Y                Z
 ----------------------------------------------------------------
    1      C      -0.9498830000     2.1013000000    -0.2164810000
    2      C      -1.3654260000     2.2019960000     1.1076570000
    3      C      -0.7294150000     1.4505820000     2.0975630000
    4      C       0.1042650000     1.2467870000    -0.5482110000
    5      C       0.7460100000     0.4893620000     0.4454310000
    6      C       0.3221080000     0.5969660000     1.7687770000
    7      C       0.5559280000     1.1283770000    -1.9463970000
    8      C       1.6883020000     0.2051910000    -2.2458630000
    9      C       2.3162740000    -0.5436360000    -1.3061520000
   10      C       1.8808400000    -0.4342720000     0.1019590000
   11      O       0.0582260000     1.7430710000    -2.8831000000
   12      O       2.4286200000    -1.0850920000     0.9809930000
   13      H      -1.4279230000     2.6736340000    -1.0020320000
   14      H      -2.1827080000     2.8639670000     1.3694350000
   15      H      -1.0546540000     1.5304780000     3.1286520000
   16      H       0.8260630000     0.0069540000     2.5241630000
   17      O       2.0342760000     0.1710050000    -3.5430900000
   18      C       3.4623510000    -1.4579870000    -1.6363110000
   19      C       4.8371960000    -0.7731270000    -1.4810130000
   20      C       6.0016780000    -1.7122610000    -1.8115200000
   21      C       7.3757280000    -1.0486740000    -1.6661130000
   22      C       8.5447510000    -1.9828000000    -1.9988130000
   23      C       9.9190590000    -1.3198610000    -1.8517680000
   24      C      11.0877840000    -2.2538360000    -2.1852050000
   25      C      12.4614820000    -1.5882980000    -2.0365700000
   26      C      13.6246060000    -2.5346280000    -2.3748700000
   27      C      14.9682060000    -1.8441250000    -2.2169170000
   28      Br     16.4856230000    -3.0510690000    -2.6509400000
   29      H       1.4246110000     0.7804280000    -4.0012420000
   30      H       3.3509950000    -1.8151910000    -2.6632940000
   31      H       3.4198590000    -2.3216980000    -0.9681490000
   32      H       4.9398870000    -0.4092030000    -0.4532410000
   33      H       4.8767090000     0.1050600000    -2.1354150000
   34      H       5.8862750000    -2.0858080000    -2.8371610000
   35      H       5.9526480000    -2.5921770000    -1.1576930000
   36      H       7.4904400000    -0.6767080000    -0.6399310000
   37      H       7.4218190000    -0.1658470000    -2.3167880000
   38      H       8.4302710000    -2.3543210000    -3.0253070000
   39      H       8.4979860000    -2.8662180000    -1.3491380000
   40      H      10.0335720000    -0.9491090000    -0.8250100000
   41      H       9.9655530000    -0.4359390000    -2.5009350000
   42      H      10.9751330000    -2.6238580000    -3.2120620000
   43      H      11.0427190000    -3.1375420000    -1.5363420000
   44      H      12.5759120000    -1.2205340000    -1.0091610000
   45      H      12.5076380000    -0.7050820000    -2.6859910000
   46      H      13.5200780000    -2.8973430000    -3.4021290000
   47      H      13.5881570000    -3.4136990000    -1.7239880000
   48      H      15.1522560000    -1.5211110000    -1.1939900000
   49      H      15.0829250000    -0.9978740000    -2.8916700000
 ----------------------------------------------------------------

   93   -3577.3297726208      5.46E-09 Convergence criterion met
 Total energy in the final basis set = -3577.32977262

                    Orbital Energies (a.u.)
 --------------------------------------------------------------

 Alpha MOs
 -- Occupied --
******** -62.4729 -56.2931 -56.2896 -56.2895 -19.1780 -19.1495 -19.1299
-10.2935 -10.2812 -10.2668 -10.2220 -10.2104 -10.2092 -10.2032 -10.2005
-10.1984 -10.1968 -10.1967 -10.1748 -10.1731 -10.1655 -10.1653 -10.1600
-10.1592 -10.1577 -10.1575 -10.1570  -8.6815  -6.5120  -6.5005  -6.5003
 -2.6231  -2.6199  -2.6196  -2.6105  -2.6104  -1.1081  -1.0671  -1.0636
 -0.8923  -0.8435  -0.8260  -0.8089  -0.7957  -0.7807  -0.7788  -0.7584
 -0.7313  -0.7038  -0.6840  -0.6589  -0.6486  -0.6249  -0.6056  -0.6006
 -0.5852  -0.5742  -0.5738  -0.5722  -0.5423  -0.5183  -0.4975  -0.4896
 -0.4797  -0.4756  -0.4713  -0.4679  -0.4590  -0.4521  -0.4469  -0.4373
 -0.4319  -0.4264  -0.4256  -0.4239  -0.4136  -0.4077  -0.3993  -0.3970
 -0.3900  -0.3798  -0.3774  -0.3713  -0.3700  -0.3664  -0.3516  -0.3460
 -0.3443  -0.3323  -0.3297  -0.3227  -0.3212  -0.3180  -0.3091  -0.3025
 -0.2896  -0.2839  -0.2830  -0.2800  -0.2794  -0.2560

          Ground-State Mulliken Net Atomic Charges

     Atom                 Charge (a.u.)
  ----------------------------------------
      1 C                     0.120758
      2 C                    -0.396058
      3 C                    -0.419017
      4 C                     0.564215
      5 C                    -0.143794
      6 C                     0.132128
      7 C                    -0.823974
      8 C                    -0.445957
      9 C                     1.913751
     10 C                    -0.726282
     11 O                    -0.323631
     12 O                    -0.295400
     13 H                     0.203197
     14 H                     0.227188
     15 H                     0.223206
     16 H                     0.201932
     17 O                    -0.235676
     18 C                    -0.406655
     19 C                    -0.874256
     20 C                    -0.320846
     21 C                    -0.026789
     22 C                     0.039652
     23 C                     0.019543
     24 C                    -0.114603
     25 C                    -0.341544
     26 C                    -0.417797
     27 C                    -0.614385
     28 Br                   -0.226811
     29 H                     0.321531
     30 H                     0.240688
     31 H                     0.224820
     32 H                     0.183551
     33 H                     0.182687
     34 H                     0.125346
     35 H                     0.128554
     36 H                     0.134930
     37 H                     0.134502
     38 H                     0.138257
     39 H                     0.138268
     40 H                     0.137302
     41 H                     0.137402
     42 H                     0.138695
     43 H                     0.138525
     44 H                     0.145118
     45 H                     0.144720
     46 H                     0.151083
     47 H                     0.151038
     48 H                     0.205432
     49 H                     0.205457
  ----------------------------------------
  Sum of atomic charges =     0.000000

                    Cartesian Multipole Moments
 -----------------------------------------------------------------
    Charge (ESU x 10^10)
                 0.0000
    Dipole Moment (Debye)
         X      -4.9142      Y       3.6964      Z       1.5418
       Tot       6.3395
    Quadrupole Moments (Debye-Ang)
        XX    -242.5900     XY      31.7801     YY    -167.3241
        XZ       8.3544     YZ       1.1535     ZZ    -160.0755

 Total job time:  2644.86s(wall), 15818.57s(cpu)
        *  Thank you very much for using Q-Chem.  Have a nice day.  *
