 Q-Chem 5.4, Q-Chem, Inc., Pleasanton, CA (2021)
 Q-Chem 5.4.0 for Intel X86 EM64T Linux

User input:
--------------------------------------------------------------
$molecule
-2 1
C                 -1.7884430000     -3.7300970000      1.2876370000
C                 -0.4173630000     -3.9348370000      1.0667330000
C                  0.4350520000     -2.9030240000      0.6037950000
C                 -0.0162180000     -1.5825980000      0.3212910000
C                 -1.4320960000     -1.3640330000      0.5531320000
C                 -2.2390070000     -2.4024410000      1.0062600000
O                 -2.7007240000     -4.5996060000      1.7208340000
O                  0.7558690000     -0.6218130000     -0.1123750000
O                 -3.6053460000     -2.2519370000      1.2422470000
C                 -1.9964480000      0.0094220000      0.2991750000
H                 -0.0077510000     -4.9283140000      1.2621780000
H                  1.4945910000     -3.1079190000      0.4432790000
H                 -1.2845340000      0.7717730000      0.6396860000
H                 -2.9613430000      0.1412660000      0.8011170000
H                 -2.1488680000      0.2076140000     -0.7768290000
H                 -3.7870290000     -3.1845730000      1.5479710000
$end

$rem
BASIS  =  6-311++G(d,p)
GUI  =  2
JOB_TYPE  =  SP
METHOD  =  B3LYP
SCF_CONVERGENCE  = 8
SOLVENT_METHOD = sm12
$end

$smx
solvent dimethylformamide
charges CM5
$end

--------------------------------------------------------------

             Standard Nuclear Orientation (Angstroms)
    I     Atom           X                Y                Z
 ----------------------------------------------------------------
    1      C      -1.7884430000    -3.7300970000     1.2876370000
    2      C      -0.4173630000    -3.9348370000     1.0667330000
    3      C       0.4350520000    -2.9030240000     0.6037950000
    4      C      -0.0162180000    -1.5825980000     0.3212910000
    5      C      -1.4320960000    -1.3640330000     0.5531320000
    6      C      -2.2390070000    -2.4024410000     1.0062600000
    7      O      -2.7007240000    -4.5996060000     1.7208340000
    8      O       0.7558690000    -0.6218130000    -0.1123750000
    9      O      -3.6053460000    -2.2519370000     1.2422470000
   10      C      -1.9964480000     0.0094220000     0.2991750000
   11      H      -0.0077510000    -4.9283140000     1.2621780000
   12      H       1.4945910000    -3.1079190000     0.4432790000
   13      H      -1.2845340000     0.7717730000     0.6396860000
   14      H      -2.9613430000     0.1412660000     0.8011170000
   15      H      -2.1488680000     0.2076140000    -0.7768290000
   16      H      -3.7870290000    -3.1845730000     1.5479710000
 ----------------------------------------------------------------

   20    -496.1183420241      6.42e-09  Convergence criterion met
 Total energy in the final basis set =     -496.4240314774

                    Orbital Energies (a.u.)
 --------------------------------------------------------------

 Alpha MOs
 -- Occupied --
-19.1222 -19.0361 -19.0252 -10.1960 -10.1859 -10.1797 -10.1706 -10.1485
-10.1476 -10.1382  -1.0301  -0.9315  -0.9257  -0.7976  -0.7476  -0.6753
 -0.6531  -0.5638  -0.5588  -0.4825  -0.4621  -0.4339  -0.4220  -0.4120
 -0.3931  -0.3809  -0.3749  -0.3625  -0.3360  -0.3319  -0.3211  -0.3046
 -0.2338  -0.2200  -0.2073  -0.2004  -0.1321

          Ground-State Mulliken Net Atomic Charges

     Atom                 Charge (a.u.)
  ----------------------------------------
      1 C                    -0.281807
      2 C                    -0.449131
      3 C                    -0.648860
      4 C                    -1.905552
      5 C                     1.492132
      6 C                    -0.940047
      7 O                    -0.437934
      8 O                    -0.381288
      9 O                    -0.077395
     10 C                     0.785285
     11 H                     0.055398
     12 H                    -0.041187
     13 H                     0.165018
     14 H                     0.219172
     15 H                     0.136190
     16 H                     0.310007
  ----------------------------------------
  Sum of atomic charges =    -2.000000

                    Cartesian Multipole Moments
 -----------------------------------------------------------------
    Charge (ESU x 10^10)
                -9.6064
    Dipole Moment (Debye)
         X       9.3294      Y      23.7859      Z      -7.3381
       Tot      26.5830
    Quadrupole Moments (Debye-Ang)
        XX    -108.4587     XY     -40.4643     YY    -161.2156
        XZ      18.0123     YZ      31.0651     ZZ     -81.1736

 Total job time:  202.29s(wall), 1315.55s(cpu)
        *  Thank you very much for using Q-Chem.  Have a nice day.  *
