 Gaussian 16, Revision A.03,
 Gaussian 16:  ES64L-G16RevA.03 25-Dec-2016

 ----------------------------------------------------------------
 #P UB3LYP/6-311++G(d,p) SCRF=(PCM,Solvent=n,n-DiMethylFormamide)
 ----------------------------------------------------------------

 -------
 Reduced
 -------
 Symbolic Z-matrix:
 Charge = -2 Multiplicity = 1

                         Standard orientation:
 ---------------------------------------------------------------------
 Center     Atomic      Atomic             Coordinates (Angstroms)
 Number     Number       Type             X           Y           Z
 ---------------------------------------------------------------------
      1          6           0       -5.868148    0.440557    0.030776
      2          6           0       -6.675744   -0.671756   -0.100754
      3          6           0       -6.094073   -1.955921   -0.248241
      4          6           0       -4.453381    0.334722    0.023324
      5          6           0       -3.859773   -0.971375   -0.125671
      6          6           0       -4.713306   -2.082725   -0.257988
      7          6           0       -3.624644    1.493035    0.160388
      8          6           0       -2.213830    1.260760    0.139831
      9          6           0       -1.595121    0.019263   -0.003124
     10          6           0       -2.404432   -1.169045   -0.142125
     11          8           0       -4.035725    2.717955    0.301602
     12          8           0       -1.900152   -2.333798   -0.272724
     13          8           0       -1.490543    2.425012    0.277806
     14          6           0       -0.087795   -0.138084   -0.010325
     15          6           0        0.602622    0.593351   -1.198381
     16          6           0        0.597451    0.276462    1.307471
     17          6           0        2.083458   -0.149151    1.335032
     18          6           0        2.788907   -0.076116   -0.050862
     19          6           0        2.071684    0.980462   -0.910028
     20          6           0        4.318089    0.146598    0.088476
     21          6           0        5.058872    0.185911   -1.265510
     22          6           0        4.981281   -0.916695    0.991579
     23          6           0        6.494614   -0.707714    1.152524
     24          6           0        7.210561   -0.656259   -0.200282
     25          6           0        6.573557    0.395117   -1.113279
     26          1           0       -6.291172    1.433645    0.144589
     27          1           0       -7.758590   -0.563251   -0.091480
     28          1           0       -6.727039   -2.834174   -0.351881
     29          1           0       -4.237149   -3.051789   -0.368674
     30          1           0       -2.234079    3.075659    0.349712
     31          1           0        0.073366   -1.213999   -0.132123
     32          1           0        0.043565    1.497786   -1.447138
     33          1           0        0.562417   -0.061398   -2.077276
     34          1           0        0.070465   -0.181259    2.150478
     35          1           0        0.504175    1.358574    1.436351
     36          1           0        2.159840   -1.170931    1.722342
     37          1           0        2.626928    0.489945    2.045312
     38          1           0        2.652452   -1.046311   -0.551411
     39          1           0        2.591343    1.141302   -1.859735
     40          1           0        2.102962    1.940893   -0.377877
     41          1           0        4.461703    1.126717    0.572500
     42          1           0        4.650000    0.977141   -1.900106
     43          1           0        4.875071   -0.760386   -1.794206
     44          1           0        4.798124   -1.908641    0.554132
     45          1           0        4.508469   -0.923876    1.977488
     46          1           0        6.922536   -1.501050    1.779365
     47          1           0        6.673785    0.234250    1.689219
     48          1           0        7.138435   -1.641390   -0.682199
     49          1           0        8.282388   -0.460108   -0.068179
     50          1           0        7.058468    0.387940   -2.098214
     51          1           0        6.757804    1.392970   -0.691434
 ---------------------------------------------------------------------

 SCF Done:  E(UB3LYP) =  -1080.22643700     A.U. after   17 cycles

 The electronic state is 1-A.
 Alpha  occ. eigenvalues --  -19.10486 -19.02200 -19.01335 -10.17133 -10.16941
 Alpha  occ. eigenvalues --  -10.15981 -10.15643 -10.15619 -10.15597 -10.15571
 Alpha  occ. eigenvalues --  -10.15532 -10.15267 -10.15230 -10.14742 -10.14628
 Alpha  occ. eigenvalues --  -10.14559 -10.14138 -10.14120 -10.14051 -10.14034
 Alpha  occ. eigenvalues --  -10.13953 -10.13933 -10.13146 -10.12752 -10.11871
 Alpha  occ. eigenvalues --   -1.01982  -0.93688  -0.92697  -0.83208  -0.82038
 Alpha  occ. eigenvalues --   -0.80780  -0.76729  -0.74492  -0.73314  -0.71788
 Alpha  occ. eigenvalues --   -0.71751  -0.71194  -0.67829  -0.63196  -0.61101
 Alpha  occ. eigenvalues --   -0.60804  -0.58548  -0.58182  -0.57607  -0.55512
 Alpha  occ. eigenvalues --   -0.54473  -0.53090  -0.51311  -0.49284  -0.47551
 Alpha  occ. eigenvalues --   -0.46759  -0.46556  -0.44141  -0.43474  -0.43176
 Alpha  occ. eigenvalues --   -0.42743  -0.41999  -0.41821  -0.40589  -0.40335
 Alpha  occ. eigenvalues --   -0.39606  -0.39088  -0.37972  -0.37613  -0.37162
 Alpha  occ. eigenvalues --   -0.36751  -0.35772  -0.35439  -0.35037  -0.34863
 Alpha  occ. eigenvalues --   -0.34589  -0.34524  -0.33462  -0.33223  -0.33006
 Alpha  occ. eigenvalues --   -0.32179  -0.31797  -0.31346  -0.30662  -0.30310
 Alpha  occ. eigenvalues --   -0.29717  -0.29414  -0.29266  -0.27630  -0.27467
 Alpha  occ. eigenvalues --   -0.26934  -0.22608  -0.22045  -0.21102  -0.19103
 Alpha  occ. eigenvalues --   -0.18662  -0.10257
 Alpha virt. eigenvalues --   -0.00298  -0.00165   0.00152   0.00506   0.00995
 Alpha virt. eigenvalues --    0.01151   0.01657   0.02211   0.02386   0.02729
 Alpha virt. eigenvalues --    0.02763   0.03500   0.03727   0.03979   0.04348

  Beta  occ. eigenvalues --  -19.10486 -19.02200 -19.01335 -10.17133 -10.16941
  Beta  occ. eigenvalues --  -10.15981 -10.15643 -10.15619 -10.15597 -10.15571
  Beta  occ. eigenvalues --  -10.15532 -10.15267 -10.15230 -10.14742 -10.14628
  Beta  occ. eigenvalues --  -10.14559 -10.14138 -10.14120 -10.14051 -10.14034
  Beta  occ. eigenvalues --  -10.13953 -10.13933 -10.13146 -10.12752 -10.11871
  Beta  occ. eigenvalues --   -1.01982  -0.93688  -0.92697  -0.83208  -0.82038
  Beta  occ. eigenvalues --   -0.80780  -0.76729  -0.74492  -0.73314  -0.71788
  Beta  occ. eigenvalues --   -0.71751  -0.71194  -0.67829  -0.63196  -0.61101
  Beta  occ. eigenvalues --   -0.60804  -0.58548  -0.58182  -0.57607  -0.55512
  Beta  occ. eigenvalues --   -0.54473  -0.53090  -0.51311  -0.49284  -0.47551
  Beta  occ. eigenvalues --   -0.46759  -0.46556  -0.44141  -0.43474  -0.43176
  Beta  occ. eigenvalues --   -0.42743  -0.41999  -0.41821  -0.40589  -0.40335
  Beta  occ. eigenvalues --   -0.39606  -0.39088  -0.37972  -0.37613  -0.37162
  Beta  occ. eigenvalues --   -0.36751  -0.35772  -0.35439  -0.35037  -0.34863
  Beta  occ. eigenvalues --   -0.34589  -0.34524  -0.33462  -0.33223  -0.33006
  Beta  occ. eigenvalues --   -0.32179  -0.31797  -0.31346  -0.30662  -0.30310
  Beta  occ. eigenvalues --   -0.29717  -0.29414  -0.29266  -0.27630  -0.27467
  Beta  occ. eigenvalues --   -0.26934  -0.22608  -0.22045  -0.21102  -0.19103
  Beta  occ. eigenvalues --   -0.18662  -0.10257
  Beta virt. eigenvalues --   -0.00298  -0.00165   0.00152   0.00506   0.00995
  Beta virt. eigenvalues --    0.01151   0.01657   0.02211   0.02386   0.02729
  Beta virt. eigenvalues --    0.02763   0.03500   0.03727   0.03979   0.04348

 Mulliken charges and spin densities:
               1          2
     1  C   -0.074436   0.000000
     2  C   -0.425207  -0.000000
     3  C   -0.545018  -0.000000
     4  C    0.432612  -0.000000
     5  C    0.324344   0.000000
     6  C   -0.071761   0.000000
     7  C   -0.721334   0.000000
     8  C   -0.286324   0.000000
     9  C    0.573749  -0.000000
    10  C   -0.474966   0.000000
    11  O   -0.725265  -0.000000
    12  O   -0.647470   0.000000
    13  O   -0.311146  -0.000000
    14  C    0.819967  -0.000000
    15  C   -0.878642   0.000000
    16  C   -1.136675   0.000000
    17  C   -0.329723  -0.000000
    18  C    0.503394   0.000000
    19  C   -0.591263  -0.000000
    20  C    0.148485   0.000000
    21  C   -0.310283  -0.000000
    22  C   -0.247353   0.000000
    23  C   -0.370097  -0.000000
    24  C   -0.403721   0.000000
    25  C   -0.482540  -0.000000
    26  H    0.140185   0.000000
    27  H    0.150313  -0.000000
    28  H    0.151172  -0.000000
    29  H    0.145751   0.000000
    30  H    0.283697  -0.000000
    31  H    0.241737  -0.000000
    32  H    0.184093   0.000000
    33  H    0.160811   0.000000
    34  H    0.178124  -0.000000
    35  H    0.171136  -0.000000
    36  H    0.135666   0.000000
    37  H    0.157391   0.000000
    38  H    0.157655  -0.000000
    39  H    0.124885  -0.000000
    40  H    0.164032   0.000000
    41  H    0.155572   0.000000
    42  H    0.136074   0.000000
    43  H    0.162367   0.000000
    44  H    0.163806   0.000000
    45  H    0.158989  -0.000000
    46  H    0.170127   0.000000
    47  H    0.139061  -0.000000
    48  H    0.122225  -0.000000
    49  H    0.172150  -0.000000
    50  H    0.170552  -0.000000
    51  H    0.133104  -0.000000
 Sum of Mulliken charges =  -2.00000  -0.00000

 Dipole moment (field-independent basis, Debye):
    X=             29.4478    Y=             -1.1508    Z=             -0.0314  Tot=             29.4703
 Quadrupole moment (field-independent basis, Debye-Ang):
   XX=           -282.9146   YY=           -208.9773   ZZ=           -166.1462
   XY=             13.9991   XZ=              1.0730   YZ=             -4.7149

 Normal termination of Gaussian 16 at Thu Jan 25 06:05:58 2024.
