 Q-Chem 5.4, Q-Chem, Inc., Pleasanton, CA (2021)
 Q-Chem 5.4.0 for Intel X86 EM64T Linux

User input:
--------------------------------------------------------------
$molecule
0 1
C                 -3.4280220000     -2.7444960000     -0.3560610000
O                 -2.1340490000     -2.1738160000     -0.1999850000
C                 -1.9880400000     -0.8320830000     -0.2015380000
C                 -3.0886340000      0.0367420000     -0.3547390000
C                 -2.9305040000      1.4045910000     -0.3552190000
C                 -1.6600410000      1.9765900000     -0.2020990000
O                 -1.5816290000      3.3141960000     -0.2124530000
C                 -0.5381430000      1.1311110000     -0.0463840000
C                  0.7824320000      1.7574890000      0.1124420000
O                  0.9119470000      2.9927050000      0.1098290000
C                  1.9687640000      0.8942440000      0.2773340000
C                  3.2328500000      1.4778620000      0.4302900000
C                  4.3531380000      0.6733860000      0.5859250000
C                  4.2187040000     -0.7188940000      0.5898480000
C                  2.9667290000     -1.3019740000      0.4383900000
C                  1.8316310000     -0.5005350000      0.2809400000
C                  0.4976620000     -1.1666260000      0.1203240000
O                  0.4372510000     -2.3848980000      0.1306050000
C                 -0.6961800000     -0.2888220000     -0.0451290000
H                 -3.2711900000     -3.8207550000     -0.3196880000
H                 -4.0994400000     -2.4490480000      0.4570350000
H                 -3.8731580000     -2.4761050000     -1.3199190000
H                 -4.0826700000     -0.3704710000     -0.4751920000
H                 -3.7805630000      2.0654750000     -0.4734560000
H                 -0.6260020000      3.5454080000     -0.0944890000
H                  3.3101270000      2.5576950000      0.4237850000
H                  5.3316410000      1.1245970000      0.7043760000
H                  5.0945610000     -1.3462930000      0.7115470000
H                  2.8408260000     -2.3772760000      0.4385880000
$end
$rem
MAX_SCF_CYCLES=200
BASIS  =  6-311++G(d,p)
GUI  =  2
JOB_TYPE  =  SP
METHOD  =  B3LYP
SOLVENT_METHOD = COSMO
$end
$solvent
dielectric 37.219
opticaldielectric 1.43
$end

--------------------------------------------------------------

             Standard Nuclear Orientation (Angstroms)
    I     Atom           X                Y                Z
 ----------------------------------------------------------------
    1      C       3.9618163620     2.2891539301     0.0003530394
    2      O       2.5827602597     1.9390031890    -0.0001266534
    3      C       2.2208346364     0.6387807835     0.0000235647
    4      C       3.1750788277    -0.3999936673     0.0005170932
    5      C       2.7968898673    -1.7239986971     0.0005893881
    6      C       1.4409950964    -2.0793211183     0.0001749044
    7      O       1.1469946442    -3.3866118993     0.0000941870
    8      C       0.4617740121    -1.0600748425    -0.0001718830
    9      C      -0.9527592375    -1.4608104580    -0.0004550859
   10      O      -1.2810080825    -2.6586385148    -0.0008695588
   11      C      -1.9932787971    -0.4133927504    -0.0001267423
   12      C      -3.3448088966    -0.7812040460     0.0002784354
   13      C      -4.3291422824     0.1973340068     0.0006729026
   14      C      -3.9705808607     1.5493566379     0.0006472460
   15      C      -2.6311779979     1.9186302300     0.0002022290
   16      C      -1.6316281733     0.9406514685    -0.0001626044
   17      C      -0.1972763842     1.3783531971    -0.0005559244
   18      O       0.0596170842     2.5708075454    -0.0010323297
   19      C       0.8482853389     0.3153509016    -0.0002706655
   20      H       3.9796484515     3.3772415746     0.0003805851
   21      H       4.4712099636     1.9189522378     0.8962802810
   22      H       4.4718138705     1.9189651320    -0.8952276810
   23      H       4.2294495236    -0.1617893958     0.0008044852
   24      H       3.5355630913    -2.5162800364     0.0009068597
   25      H       0.1592798459    -3.4574401680    -0.0004450710
   26      H      -3.5960604517    -1.8342596066     0.0002819245
   27      H      -5.3752494208    -0.0868311835     0.0010286717
   28      H      -4.7404027223     2.3128615907     0.0010001668
   29      H      -2.3322924627     2.9592038371     0.0001692343
 ----------------------------------------------------------------

    9    -878.7577994822      5.11e-06  Convergence criterion met
 Total energy in the final basis set =     -878.7577994822
    5    -878.7768499774      3.38e-06  Convergence criterion met
 Total energy in the final basis set =     -878.7768499774

                    Orbital Energies (a.u.)
 --------------------------------------------------------------

 Alpha MOs
 -- Occupied --
-19.1705 -19.1613 -19.1390 -19.1228 -10.2885 -10.2806 -10.2646 -10.2636
-10.2239 -10.2117 -10.2113 -10.2066 -10.2058 -10.2021 -10.1986 -10.1958
-10.1956 -10.1945 -10.1934  -1.0923  -1.0907  -1.0608  -1.0589  -0.8924
 -0.8780  -0.8148  -0.7823  -0.7756  -0.7711  -0.7145  -0.6959  -0.6646
 -0.6535  -0.6145  -0.5988  -0.5662  -0.5616  -0.5462  -0.5254  -0.5029
 -0.4951  -0.4862  -0.4839  -0.4647  -0.4600  -0.4597  -0.4499  -0.4453
 -0.4407  -0.4281  -0.4278  -0.4158  -0.4099  -0.3899  -0.3823  -0.3796
 -0.3720  -0.3663  -0.3524  -0.3233  -0.2925  -0.2925  -0.2773  -0.2766
 -0.2675  -0.2318

          Ground-State Mulliken Net Atomic Charges

     Atom                 Charge (a.u.)
  ----------------------------------------
      1 C                    -0.321396
      2 O                    -0.146027
      3 C                    -0.355428
      4 C                    -0.212665
      5 C                    -0.111701
      6 C                    -0.163743
      7 O                    -0.354516
      8 C                     0.860794
      9 C                    -0.251561
     10 O                    -0.335123
     11 C                     0.047242
     12 C                     0.149794
     13 C                    -0.530302
     14 C                    -0.476482
     15 C                     0.167830
     16 C                    -0.034013
     17 C                    -0.256182
     18 O                    -0.316917
     19 C                     0.350908
     20 H                     0.213012
     21 H                     0.175969
     22 H                     0.176097
     23 H                     0.253210
     24 H                     0.248569
     25 H                     0.372934
     26 H                     0.204984
     27 H                     0.223152
     28 H                     0.227697
     29 H                     0.193863
  ----------------------------------------
  Sum of atomic charges =     0.000000

                    Cartesian Multipole Moments
 -----------------------------------------------------------------
    Charge (ESU x 10^10)
                 0.0000
    Dipole Moment (Debye)
         X       1.7323      Y       1.0133      Z       0.0038
       Tot       2.0069
    Quadrupole Moments (Debye-Ang)
        XX     -65.3220     XY      -0.0299     YY    -125.0771
        XZ      -0.0035     YZ       0.0054     ZZ    -111.2491

 Total job time:  82.08s(wall), 520.71s(cpu)
        *  Thank you very much for using Q-Chem.  Have a nice day.  *
