 Gaussian 16, Revision A.03,
 Gaussian 16:  ES64L-G16RevA.03 25-Dec-2016

 --------------------------------------
 #P UB3LYP/6-311++G(d,p) nosym opt freq
 --------------------------------------

 --------
 Oxidized
 --------
 Symbolic Z-matrix:
 Charge =  0 Multiplicity = 1

 SCF Done:  E(UB3LYP) =  -878.757606275     A.U. after   16 cycles
 Optimization completed.
    -- Stationary point found.
 Normal termination of Gaussian 16 at Wed Dec 27 19:52:26 2023.

 ----------------------------------------------------------------------
 #P Geom=AllCheck Guess=TCheck SCRF=Check GenChk UB3LYP/6-311++G(d,p) F
 req
 ----------------------------------------------------------------------

 Structure from the checkpoint file:  "179.chk"
 --------
 Oxidized
 --------
 Charge =  0 Multiplicity = 1

                          Input orientation:
 ---------------------------------------------------------------------
 Center     Atomic      Atomic             Coordinates (Angstroms)
 Number     Number       Type             X           Y           Z
 ---------------------------------------------------------------------
      1          6           0       -3.428022   -2.744496   -0.356061
      2          8           0       -2.134049   -2.173816   -0.199985
      3          6           0       -1.988040   -0.832083   -0.201538
      4          6           0       -3.088634    0.036742   -0.354739
      5          6           0       -2.930504    1.404591   -0.355219
      6          6           0       -1.660041    1.976590   -0.202099
      7          8           0       -1.581629    3.314196   -0.212453
      8          6           0       -0.538143    1.131111   -0.046384
      9          6           0        0.782432    1.757489    0.112442
     10          8           0        0.911947    2.992705    0.109829
     11          6           0        1.968764    0.894244    0.277334
     12          6           0        3.232850    1.477862    0.430290
     13          6           0        4.353138    0.673386    0.585925
     14          6           0        4.218704   -0.718894    0.589848
     15          6           0        2.966729   -1.301974    0.438390
     16          6           0        1.831631   -0.500535    0.280940
     17          6           0        0.497662   -1.166626    0.120324
     18          8           0        0.437251   -2.384898    0.130605
     19          6           0       -0.696180   -0.288822   -0.045129
     20          1           0       -3.271190   -3.820755   -0.319688
     21          1           0       -4.099440   -2.449048    0.457035
     22          1           0       -3.873158   -2.476105   -1.319919
     23          1           0       -4.082670   -0.370471   -0.475192
     24          1           0       -3.780563    2.065475   -0.473456
     25          1           0       -0.626002    3.545408   -0.094489
     26          1           0        3.310127    2.557695    0.423785
     27          1           0        5.331641    1.124597    0.704376
     28          1           0        5.094561   -1.346293    0.711547
     29          1           0        2.840826   -2.377276    0.438588
 ---------------------------------------------------------------------

 SCF Done:  E(UB3LYP) =  -878.757606275     A.U. after    1 cycles

 Alpha  occ. eigenvalues --  -19.17045 -19.15380 -19.13483 -19.11387 -10.28488
 Alpha  occ. eigenvalues --  -10.27227 -10.26431 -10.26177 -10.23926 -10.21086
 Alpha  occ. eigenvalues --  -10.21012 -10.20659 -10.20657 -10.20540 -10.20109
 Alpha  occ. eigenvalues --  -10.20037 -10.19943 -10.19793 -10.19478  -1.09160
 Alpha  occ. eigenvalues --   -1.08591  -1.05509  -1.04891  -0.89241  -0.87892
 Alpha  occ. eigenvalues --   -0.81611  -0.78377  -0.77674  -0.77274  -0.72080
 Alpha  occ. eigenvalues --   -0.69514  -0.66654  -0.65475  -0.61596  -0.59818
 Alpha  occ. eigenvalues --   -0.56818  -0.56347  -0.54720  -0.52388  -0.50426
 Alpha  occ. eigenvalues --   -0.49557  -0.49038  -0.48789  -0.46500  -0.45869
 Alpha  occ. eigenvalues --   -0.45701  -0.45004  -0.44598  -0.43497  -0.43329
 Alpha  occ. eigenvalues --   -0.42167  -0.41457  -0.41293  -0.38491  -0.38286
 Alpha  occ. eigenvalues --   -0.38270  -0.37112  -0.36796  -0.35420  -0.32281
 Alpha  occ. eigenvalues --   -0.29134  -0.28701  -0.27882  -0.27661  -0.25861
 Alpha  occ. eigenvalues --   -0.22958
 Alpha virt. eigenvalues --   -0.11621  -0.06624  -0.04043  -0.01521  -0.01391
 Alpha virt. eigenvalues --   -0.00651   0.00756   0.01173   0.01507   0.02421
 Alpha virt. eigenvalues --    0.02918   0.03280   0.03372   0.03594   0.04466

  Beta  occ. eigenvalues --  -19.17045 -19.15380 -19.13483 -19.11387 -10.28488
  Beta  occ. eigenvalues --  -10.27227 -10.26431 -10.26177 -10.23926 -10.21086
  Beta  occ. eigenvalues --  -10.21012 -10.20659 -10.20657 -10.20540 -10.20109
  Beta  occ. eigenvalues --  -10.20037 -10.19943 -10.19793 -10.19478  -1.09160
  Beta  occ. eigenvalues --   -1.08591  -1.05509  -1.04891  -0.89241  -0.87892
  Beta  occ. eigenvalues --   -0.81611  -0.78377  -0.77674  -0.77274  -0.72080
  Beta  occ. eigenvalues --   -0.69514  -0.66654  -0.65475  -0.61596  -0.59818
  Beta  occ. eigenvalues --   -0.56818  -0.56347  -0.54720  -0.52388  -0.50426
  Beta  occ. eigenvalues --   -0.49557  -0.49038  -0.48789  -0.46500  -0.45869
  Beta  occ. eigenvalues --   -0.45701  -0.45004  -0.44598  -0.43497  -0.43329
  Beta  occ. eigenvalues --   -0.42167  -0.41457  -0.41293  -0.38491  -0.38286
  Beta  occ. eigenvalues --   -0.38270  -0.37112  -0.36796  -0.35420  -0.32281
  Beta  occ. eigenvalues --   -0.29134  -0.28701  -0.27882  -0.27661  -0.25861
  Beta  occ. eigenvalues --   -0.22958
  Beta virt. eigenvalues --   -0.11621  -0.06624  -0.04043  -0.01521  -0.01391
  Beta virt. eigenvalues --   -0.00651   0.00756   0.01173   0.01507   0.02421
  Beta virt. eigenvalues --    0.02918   0.03280   0.03372   0.03594   0.04466

 Mulliken charges and spin densities:
               1          2
     1  C   -0.283490   0.000000
     2  O   -0.091954   0.000000
     3  C   -0.351294   0.000000
     4  C   -0.202075   0.000000
     5  C   -0.065924  -0.000000
     6  C   -0.264984   0.000000
     7  O   -0.295124  -0.000000
     8  C    0.819333   0.000000
     9  C   -0.338087   0.000000
    10  O   -0.273660  -0.000000
    11  C    0.113972  -0.000000
    12  C    0.154961  -0.000000
    13  C   -0.462454  -0.000000
    14  C   -0.421580   0.000000
    15  C    0.167457  -0.000000
    16  C    0.013002  -0.000000
    17  C   -0.348984   0.000000
    18  O   -0.215563  -0.000000
    19  C    0.392257  -0.000000
    20  H    0.200669  -0.000000
    21  H    0.146992   0.000000
    22  H    0.147066   0.000000
    23  H    0.193650   0.000000
    24  H    0.205536   0.000000
    25  H    0.343463   0.000000
    26  H    0.185920  -0.000000
    27  H    0.172877  -0.000000
    28  H    0.177639   0.000000
    29  H    0.180378  -0.000000
 Sum of Mulliken charges =  -0.00000  -0.00000

 Dipole moment (field-independent basis, Debye):
    X=             -1.0311    Y=             -1.3540    Z=             -0.1082  Tot=              1.7054
 Quadrupole moment (field-independent basis, Debye-Ang):
   XX=            -79.1666   YY=           -119.9741   ZZ=           -110.8395
   XY=              7.7047   XZ=              3.9499   YZ=              1.0574

  Exact polarizability: 290.384   2.852 219.503  25.112  -1.546  96.570
 Approx polarizability: 434.367  -5.807 409.079  36.348  -4.656 154.981

                      1                      2                      3
                      A                      A                      A
 Frequencies --     25.6669                58.3012                84.8851
 Red. masses --      6.6401                 4.9256                 4.1740
 Frc consts  --      0.0026                 0.0099                 0.0177
 IR Inten    --      6.2362                 0.0484                 1.1693

                      4                      5                      6
                      A                      A                      A
 Frequencies --    112.1533               137.2176               169.2381
 Red. masses --      4.6397                 5.2519                 7.2058
 Frc consts  --      0.0344                 0.0583                 0.1216
 IR Inten    --      0.1112                 1.1785                 0.8347

                      7                      8                      9
                      A                      A                      A
 Frequencies --    171.4885               240.9715               249.6572
 Red. masses --      4.3838                 4.1444                 1.2533
 Frc consts  --      0.0760                 0.1418                 0.0460
 IR Inten    --      2.0376                 0.5983                 0.5778

                     10                     11                     12
                      A                      A                      A
 Frequencies --    255.3767               318.2668               335.1629
 Red. masses --      4.6819                 4.9397                 6.2937
 Frc consts  --      0.1799                 0.2948                 0.4166
 IR Inten    --      1.1329                 3.1407                 1.8062

                     13                     14                     15
                      A                      A                      A
 Frequencies --    370.1725               373.3336               422.8851
 Red. masses --      5.0626                11.5298                 3.5753
 Frc consts  --      0.4087                 0.9468                 0.3767
 IR Inten    --      0.2002                 1.4477                 1.2587

                     16                     17                     18
                      A                      A                      A
 Frequencies --    423.0251               432.8043               441.0675
 Red. masses --      6.8019                 5.7032                11.3902
 Frc consts  --      0.7171                 0.6294                 1.3055
 IR Inten    --     11.5083                 0.2974                15.3677

                     19                     20                     21
                      A                      A                      A
 Frequencies --    454.6845               497.2688               512.8159
 Red. masses --      9.3662                 4.7885                 7.0044
 Frc consts  --      1.1409                 0.6976                 1.0853
 IR Inten    --      0.3418                 0.0193                 5.1277

                     22                     23                     24
                      A                      A                      A
 Frequencies --    545.7792               583.5405               628.8332
 Red. masses --      6.9573                 3.3255                 5.2619
 Frc consts  --      1.2210                 0.6672                 1.2259
 IR Inten    --      0.7115                15.9291                 0.8733

                     25                     26                     27
                      A                      A                      A
 Frequencies --    668.2068               668.7643               715.4751
 Red. masses --      5.1400                 6.5550                 6.4034
 Frc consts  --      1.3522                 1.7273                 1.9313
 IR Inten    --      0.3468                11.5352                14.8517

                     28                     29                     30
                      A                      A                      A
 Frequencies --    729.0267               738.2924               756.8856
 Red. masses --      3.7928                 2.7402                 6.9844
 Frc consts  --      1.1877                 0.8800                 2.3574
 IR Inten    --     12.6259                15.9320                 7.4858

                     31                     32                     33
                      A                      A                      A
 Frequencies --    791.8864               811.0399               824.6135
 Red. masses --      4.0656                 1.6619                 1.3921
 Frc consts  --      1.5021                 0.6441                 0.5577
 IR Inten    --      8.9423                93.1390                59.5332

                     34                     35                     36
                      A                      A                      A
 Frequencies --    843.3596               869.1147               897.0103
 Red. masses --      1.5934                 7.3770                 8.2415
 Frc consts  --      0.6677                 3.2831                 3.9071
 IR Inten    --      5.7321                22.1996                26.3599

                     37                     38                     39
                      A                      A                      A
 Frequencies --    913.9510               950.7859               956.8559
 Red. masses --      1.3721                 6.0487                 1.3121
 Frc consts  --      0.6753                 3.2216                 0.7078
 IR Inten    --      0.0163                12.9477                 0.0307

                     40                     41                     42
                      A                      A                      A
 Frequencies --   1002.1858              1017.3915              1037.4924
 Red. masses --      1.3748                 1.3201                 5.0234
 Frc consts  --      0.8136                 0.8051                 3.1858
 IR Inten    --      1.4105                 0.1097               137.4728

                     43                     44                     45
                      A                      A                      A
 Frequencies --   1061.0531              1110.2792              1117.5606
 Red. masses --      2.4448                 2.7887                 2.8862
 Frc consts  --      1.6217                 2.0254                 2.1238
 IR Inten    --     40.1294                10.1979                26.0173

                     46                     47                     48
                      A                      A                      A
 Frequencies --   1163.3479              1177.6732              1183.7029
 Red. masses --      1.2716                 1.2424                 2.1862
 Frc consts  --      1.0140                 1.0152                 1.8048
 IR Inten    --      0.8153                 1.9467                 3.7041

                     49                     50                     51
                      A                      A                      A
 Frequencies --   1186.8644              1199.4695              1252.2652
 Red. masses --      1.2924                 1.4423                 1.9115
 Frc consts  --      1.0726                 1.2226                 1.7661
 IR Inten    --     29.9640                73.7568                71.9037

                     52                     53                     54
                      A                      A                      A
 Frequencies --   1261.3011              1290.8521              1305.8949
 Red. masses --      3.9529                 2.1789                 4.4932
 Frc consts  --      3.7052                 2.1391                 4.5147
 IR Inten    --    585.6914               277.4147                13.7466

                     55                     56                     57
                      A                      A                      A
 Frequencies --   1329.8750              1359.4611              1371.9205
 Red. masses --      2.9918                 7.1425                 4.7015
 Frc consts  --      3.1175                 7.7773                 5.2137
 IR Inten    --     19.1763                19.4217               301.0950

                     58                     59                     60
                      A                      A                      A
 Frequencies --   1390.2909              1453.4853              1472.9876
 Red. masses --      4.2693                 4.8093                 1.3385
 Frc consts  --      4.8620                 5.9863                 1.7110
 IR Inten    --     36.5235                50.8214               120.5318

                     61                     62                     63
                      A                      A                      A
 Frequencies --   1483.6543              1496.9529              1499.3256
 Red. masses --      2.4324                 1.0466                 1.3293
 Frc consts  --      3.1547                 1.3818                 1.7606
 IR Inten    --      1.8502                 9.9716               170.8489

                     64                     65                     66
                      A                      A                      A
 Frequencies --   1504.0121              1509.5563              1603.7071
 Red. masses --      1.4263                 2.4971                 8.6506
 Frc consts  --      1.9009                 3.3526                13.1084
 IR Inten    --     48.4962                44.7448                25.1129

                     67                     68                     69
                      A                      A                      A
 Frequencies --   1617.0435              1620.5254              1629.8823
 Red. masses --      4.8449                 4.1098                 5.9314
 Frc consts  --      7.4642                 6.3589                 9.2837
 IR Inten    --     19.4270                81.8525                98.6575

                     70                     71                     72
                      A                      A                      A
 Frequencies --   1674.7728              1717.3032              3006.0547
 Red. masses --      7.8842                11.9202                 1.0348
 Frc consts  --     13.0293                20.7122                 5.5096
 IR Inten    --    185.0743               179.2027                77.1539

                     73                     74                     75
                      A                      A                      A
 Frequencies --   3068.0543              3140.1776              3169.7134
 Red. masses --      1.1065                 1.0988                 1.0871
 Frc consts  --      6.1365                 6.3838                 6.4352
 IR Inten    --     33.7955                14.5110                 3.6404

                     76                     77                     78
                      A                      A                      A
 Frequencies --   3184.5951              3192.2361              3203.1744
 Red. masses --      1.0923                 1.0896                 1.0923
 Frc consts  --      6.5265                 6.5420                 6.6033
 IR Inten    --     13.6854                 2.6092                 0.4065

                     79                     80                     81
                      A                      A                      A
 Frequencies --   3205.4519              3215.6672              3282.1332
 Red. masses --      1.0944                 1.0923                 1.0683
 Frc consts  --      6.6250                 6.6548                 6.7805
 IR Inten    --     10.9929                 4.9654               224.0022

 - Thermochemistry -
 -------------------
 Temperature   298.150 Kelvin.  Pressure   1.00000 Atm.
 Atom     1 has atomic number  6 and mass  12.00000

 Molecular mass:   254.05791 amu.
 Principal axes and moments of inertia in atomic units:
                           1         2         3
     Eigenvalues --  2972.982865477.276438438.70782
           X            0.98105  -0.14663  -0.12664
           Y            0.14970   0.98862   0.01504
           Z            0.12299  -0.03371   0.99184
 This molecule is an asymmetric top.
 Rotational symmetry number  1.
 Warning -- assumption of classical behavior for rotation
           may cause significant error
 Rotational temperatures (Kelvin)      0.02913     0.01581     0.01026
 Rotational constants (GHZ):           0.60705     0.32950     0.21386
 Zero-point vibrational energy     566726.1 (Joules/Mol)
                                  135.45080 (Kcal/Mol)
 Warning -- explicit consideration of  23 degrees of freedom as
           vibrations may cause significant error
 Vibrational temperatures:     36.93    83.88   122.13   161.36   197.43
          (Kelvin)            243.50   246.73   346.70   359.20   367.43
                              457.91   482.22   532.60   537.14   608.44
                              608.64   622.71   634.60   654.19   715.46
                              737.83   785.25   839.58   904.75   961.40
                              962.20  1029.41  1048.91  1062.24  1088.99
                             1139.35  1166.91  1186.43  1213.41  1250.46
                             1290.60  1314.97  1367.97  1376.70  1441.92
                             1463.80  1492.72  1526.62  1597.44  1607.92
                             1673.80  1694.41  1703.08  1707.63  1725.77
                             1801.73  1814.73  1857.25  1878.89  1913.39
                             1955.96  1973.89  2000.32  2091.24  2119.30
                             2134.65  2153.78  2157.20  2163.94  2171.91
                             2307.38  2326.56  2331.57  2345.04  2409.62
                             2470.82  4325.04  4414.25  4518.02  4560.51
                             4581.92  4592.92  4608.65  4611.93  4626.63
                             4722.26

 Zero-point correction=                           0.215855 (Hartree/Particle)
 Thermal correction to Energy=                    0.230605
 Thermal correction to Enthalpy=                  0.231549
 Thermal correction to Gibbs Free Energy=         0.173483
 Sum of electronic and zero-point Energies=           -878.541752
 Sum of electronic and thermal Energies=              -878.527002
 Sum of electronic and thermal Enthalpies=            -878.526057
 Sum of electronic and thermal Free Energies=         -878.584124

                     E (Thermal)             CV                S
                      KCal/Mol        Cal/Mol-Kelvin    Cal/Mol-Kelvin
 Total                  144.707             58.394            122.211
 Electronic               0.000              0.000              0.000
 Translational            0.889              2.981             42.497
 Rotational               0.889              2.981             33.285
 Vibrational            142.929             52.432             46.429
 Vibration     1          0.593              1.985              6.139
 Vibration     2          0.596              1.974              4.514
 Vibration     3          0.601              1.960              3.775
 Vibration     4          0.607              1.939              3.231
 Vibration     5          0.614              1.916              2.842
 Vibration     6          0.625              1.880              2.444
 Vibration     7          0.626              1.878              2.419
 Vibration     8          0.658              1.778              1.796
 Vibration     9          0.662              1.763              1.733
 Vibration    10          0.666              1.754              1.693
 Vibration    11          0.705              1.639              1.319
 Vibration    12          0.716              1.605              1.235
 Vibration    13          0.742              1.533              1.079
 Vibration    14          0.745              1.527              1.066
 Vibration    15          0.785              1.420              0.882
 Vibration    16          0.785              1.420              0.882
 Vibration    17          0.794              1.399              0.850
 Vibration    18          0.801              1.381              0.823
 Vibration    19          0.813              1.351              0.782
 Vibration    20          0.853              1.256              0.665
 Vibration    21          0.868              1.222              0.627
 Vibration    22          0.901              1.149              0.553
 Vibration    23          0.940              1.067              0.479

 Optimization completed.
    -- Stationary point found.
 Normal termination of Gaussian 16 at Wed Dec 27 21:22:59 2023.
