 Q-Chem 5.4, Q-Chem, Inc., Pleasanton, CA (2021)
 Q-Chem 5.4.0 for Intel X86 EM64T Linux

User input:
--------------------------------------------------------------
$molecule
-2 1
C                 -2.4751200000      1.4057120000      0.3137840000
C                 -1.9653920000     -0.0451810000      0.4353040000
C                 -2.7594190000     -0.9744620000     -0.5073690000
C                 -0.4618800000     -0.1564750000      0.2137230000
C                  0.3392710000     -0.6780360000      1.2342850000
C                  1.7614640000     -0.8283270000      1.1693350000
O                  2.4782020000     -1.3135050000      2.1363310000
C                  2.3422310000     -0.3814380000     -0.0713940000
C                  1.5495990000      0.1360770000     -1.0947750000
C                  0.1240320000      0.2758140000     -1.0361150000
O                 -0.5699040000      0.7493980000     -2.0270350000
C                  3.8364970000     -0.5037340000     -0.2272340000
H                 -2.2404190000      1.7836750000     -0.6846720000
H                 -3.5584340000      1.4683640000      0.4834740000
H                 -1.9771640000      2.0461780000      1.0518430000
H                 -2.1618850000     -0.3790440000      1.4647780000
H                 -2.5783860000     -0.6765680000     -1.5432030000
H                 -2.4292640000     -2.0119570000     -0.3854090000
H                 -3.8410410000     -0.9349290000     -0.2987110000
H                 -0.1328400000     -1.0008870000      2.1639060000
H                  2.0199860000      0.4665590000     -2.0230060000
H                  4.3665040000      0.0173050000      0.5827470000
H                  4.1685360000     -0.0934350000     -1.1896440000
H                  4.1648250000     -1.5519950000     -0.1609440000
$end

$rem
BASIS  =  6-311++G(d,p)
GUI  =  2
JOB_TYPE  =  SP
METHOD  =  B3LYP
SCF_CONVERGENCE  = 8
SOLVENT_METHOD = sm12
$end

$smx
solvent dimethylformamide
charges CM5
$end

--------------------------------------------------------------

             Standard Nuclear Orientation (Angstroms)
    I     Atom           X                Y                Z
 ----------------------------------------------------------------
    1      C      -2.4751200000     1.4057120000     0.3137840000
    2      C      -1.9653920000    -0.0451810000     0.4353040000
    3      C      -2.7594190000    -0.9744620000    -0.5073690000
    4      C      -0.4618800000    -0.1564750000     0.2137230000
    5      C       0.3392710000    -0.6780360000     1.2342850000
    6      C       1.7614640000    -0.8283270000     1.1693350000
    7      O       2.4782020000    -1.3135050000     2.1363310000
    8      C       2.3422310000    -0.3814380000    -0.0713940000
    9      C       1.5495990000     0.1360770000    -1.0947750000
   10      C       0.1240320000     0.2758140000    -1.0361150000
   11      O      -0.5699040000     0.7493980000    -2.0270350000
   12      C       3.8364970000    -0.5037340000    -0.2272340000
   13      H      -2.2404190000     1.7836750000    -0.6846720000
   14      H      -3.5584340000     1.4683640000     0.4834740000
   15      H      -1.9771640000     2.0461780000     1.0518430000
   16      H      -2.1618850000    -0.3790440000     1.4647780000
   17      H      -2.5783860000    -0.6765680000    -1.5432030000
   18      H      -2.4292640000    -2.0119570000    -0.3854090000
   19      H      -3.8410410000    -0.9349290000    -0.2987110000
   20      H      -0.1328400000    -1.0008870000     2.1639060000
   21      H       2.0199860000     0.4665590000    -2.0230060000
   22      H       4.3665040000     0.0173050000     0.5827470000
   23      H       4.1685360000    -0.0934350000    -1.1896440000
   24      H       4.1648250000    -1.5519950000    -0.1609440000
 ----------------------------------------------------------------

   18    -538.8292885404      6.47e-09  Convergence criterion met
 Total energy in the final basis set =     -539.1292160463

                    Orbital Energies (a.u.)
 --------------------------------------------------------------

 Alpha MOs
 -- Occupied --
-19.0216 -19.0182 -10.1818 -10.1799 -10.1783 -10.1728 -10.1657 -10.1637
-10.1467 -10.1443 -10.1393 -10.1389  -0.9333  -0.9300  -0.8119  -0.7886
 -0.7397  -0.6890  -0.6818  -0.6475  -0.5874  -0.5725  -0.5146  -0.4736
 -0.4484  -0.4349  -0.4262  -0.4196  -0.4131  -0.4086  -0.3928  -0.3823
 -0.3637  -0.3561  -0.3558  -0.3407  -0.3347  -0.3272  -0.3215  -0.3104
 -0.2280  -0.2262  -0.1970  -0.1943  -0.1237

          Ground-State Mulliken Net Atomic Charges

     Atom                 Charge (a.u.)
  ----------------------------------------
      1 C                     0.091468
      2 C                     2.058957
      3 C                     0.074045
      4 C                    -0.421988
      5 C                    -0.690677
      6 C                    -2.305262
      7 O                    -0.384352
      8 C                     0.178804
      9 C                    -1.802503
     10 C                    -1.352248
     11 O                    -0.265344
     12 C                     1.117522
     13 H                     0.121549
     14 H                     0.369239
     15 H                     0.061253
     16 H                     0.198975
     17 H                     0.117135
     18 H                     0.080596
     19 H                     0.376451
     20 H                    -0.094744
     21 H                    -0.158641
     22 H                     0.176047
     23 H                     0.286565
     24 H                     0.167152
  ----------------------------------------
  Sum of atomic charges =    -2.000000

                    Cartesian Multipole Moments
 -----------------------------------------------------------------
    Charge (ESU x 10^10)
                -9.6064
    Dipole Moment (Debye)
         X      -8.8070      Y       2.7236      Z      -0.8370
       Tot       9.2565
    Quadrupole Moments (Debye-Ang)
        XX    -124.9230     XY      14.2334     YY     -95.9984
        XZ     -20.4674     YZ      16.2572     ZZ    -120.6594

 Total job time:  410.99s(wall), 3133.22s(cpu)
        *  Thank you very much for using Q-Chem.  Have a nice day.  *
