 Q-Chem 5.4, Q-Chem, Inc., Pleasanton, CA (2021)
 Q-Chem 5.4.0 for Intel X86 EM64T Linux

User input:
--------------------------------------------------------------
$molecule
0 1
Cl                -2.6534890000     -1.7599770000     -0.0109680000
C                 -1.2613270000     -0.7350280000     -0.0074700000
C                 -1.3594490000      0.5983880000     -0.0387160000
C                 -0.1638620000      1.4670400000     -0.0354430000
O                 -0.2721440000      2.6745540000     -0.0640700000
C                  1.1797990000      0.7962300000      0.0045820000
C                  1.2817800000     -0.5493760000      0.0361660000
Cl                 2.7917480000     -1.3764770000      0.0827690000
C                  0.0678830000     -1.4343060000      0.0328660000
O                  0.1571960000     -2.6369240000      0.0610980000
Cl                 2.5440610000      1.8442170000      0.0070890000
H                 -2.3121960000      1.1116590000     -0.0679020000
$end
$rem
MAX_SCF_CYCLES=200
BASIS  =  6-311++G(d,p)
GUI  =  2
JOB_TYPE  =  SP
METHOD  =  B3LYP
SOLVENT_METHOD = PCM
$end
$pcm
theory = CPCM
$end
$solvent
dielectric 37.219
opticaldielectric 1.43
$end

--------------------------------------------------------------

             Standard Nuclear Orientation (Angstroms)
    I     Atom           X                Y                Z
 ----------------------------------------------------------------
    1      Cl     -2.6534890000    -1.7599770000    -0.0109680000
    2      C      -1.2613270000    -0.7350280000    -0.0074700000
    3      C      -1.3594490000     0.5983880000    -0.0387160000
    4      C      -0.1638620000     1.4670400000    -0.0354430000
    5      O      -0.2721440000     2.6745540000    -0.0640700000
    6      C       1.1797990000     0.7962300000     0.0045820000
    7      C       1.2817800000    -0.5493760000     0.0361660000
    8      Cl      2.7917480000    -1.3764770000     0.0827690000
    9      C       0.0678830000    -1.4343060000     0.0328660000
   10      O       0.1571960000    -2.6369240000     0.0610980000
   11      Cl      2.5440610000     1.8442170000     0.0070890000
   12      H      -2.3121960000     1.1116590000    -0.0679020000
 ----------------------------------------------------------------

    9   -1760.4263476679      7.08e-06  Convergence criterion met
 Total energy in the final basis set =    -1760.4263476679

                    Orbital Energies (a.u.)
 --------------------------------------------------------------

 Alpha MOs
 -- Occupied --
********-101.5894-101.5859 -19.1684 -19.1624 -10.3227 -10.3150 -10.2900
-10.2888 -10.2867 -10.2306  -9.5041  -9.5038  -9.5003  -7.2690  -7.2687
 -7.2652  -7.2593  -7.2590  -7.2578  -7.2577  -7.2554  -7.2542  -1.1072
 -1.0974  -0.9450  -0.9188  -0.8900  -0.8422  -0.7733  -0.7233  -0.6454
 -0.6275  -0.5700  -0.5291  -0.5062  -0.4885  -0.4863  -0.4771  -0.4673
 -0.4499  -0.4467  -0.4135  -0.3850  -0.3675  -0.3599  -0.3475  -0.3380
 -0.3200  -0.3110  -0.3088  -0.2860

          Ground-State Mulliken Net Atomic Charges

     Atom                 Charge (a.u.)
  ----------------------------------------
      1 Cl                    0.329005
      2 C                     1.102268
      3 C                    -0.225920
      4 C                    -1.093282
      5 O                    -0.230404
      6 C                     0.424498
      7 C                     0.658535
      8 Cl                    0.405205
      9 C                    -1.902015
     10 O                    -0.167755
     11 Cl                    0.420114
     12 H                     0.279751
  ----------------------------------------
  Sum of atomic charges =     0.000000

                    Cartesian Multipole Moments
 -----------------------------------------------------------------
    Charge (ESU x 10^10)
                 0.0000
    Dipole Moment (Debye)
         X      -1.0740      Y       0.5137      Z      -0.0314
       Tot       1.1909
    Quadrupole Moments (Debye-Ang)
        XX     -77.7747     XY      -0.1104     YY    -101.2018
        XZ       0.0541     YZ       0.4534     ZZ     -80.5596

 Total job time:  11.93s(wall), 82.71s(cpu)
        *  Thank you very much for using Q-Chem.  Have a nice day.  *
