 Q-Chem 5.4, Q-Chem, Inc., Pleasanton, CA (2021)
 Q-Chem 5.4.0 for Intel X86 EM64T Linux

User input:
--------------------------------------------------------------
$molecule
-1 1
C                 -1.7942870000      1.9642040000     -5.1378580000
C                 -1.7405090000      0.6319020000     -5.5240270000
C                 -1.4321210000     -0.3594110000     -4.5850940000
C                 -1.5323200000      2.3238010000     -3.8096620000
C                 -1.2256790000      1.3339450000     -2.8728860000
C                 -1.1819610000     -0.0098180000     -3.2654250000
C                 -1.5977350000      3.7609100000     -3.4158050000
C                 -0.9610350000      1.6811550000     -1.4461400000
C                 -1.2454010000      4.1323220000     -2.0501650000
C                 -0.8738770000      3.1261270000     -1.0844580000
C                 -1.2273890000      5.5231940000     -1.6920930000
C                 -0.8289070000      5.8763290000     -0.3610550000
C                 -0.4311960000      4.9081610000      0.5189020000
C                 -0.4536870000      3.5442340000      0.1756630000
O                 -1.9356770000      4.5813130000     -4.2854480000
O                 -0.8299420000      0.7777260000     -0.6330130000
H                 -2.0369460000      2.7501320000     -5.8418190000
H                 -1.9394530000      0.3589330000     -6.5550110000
H                 -1.3910760000     -1.4003340000     -4.8876730000
H                 -0.9496560000     -0.7556390000     -2.5154200000
Br                 0.1647880000      2.3874120000      1.5828470000
N                 -1.5556120000      6.4976890000     -2.5534640000
S                 -0.9323170000      7.6079730000      0.2585300000
O                 -0.4849230000      8.4272230000     -0.9079700000
O                 -2.3663940000      7.7740340000      0.5784490000
O                 -0.0190660000      7.6423600000      1.4170290000
H                 -0.1038240000      5.2155920000      1.5037640000
H                 -1.8016050000      6.2291590000     -3.4967770000
H                 -1.3500820000      7.4569920000     -2.2705410000
$end

$rem
BASIS  =  6-311++G(d,p)
GUI  =  2
JOB_TYPE  =  SP
METHOD  =  B3LYP
SCF_CONVERGENCE  = 8
SOLVENT_METHOD = sm12
$end

$smx
solvent dimethylformamide
charges CM5
$end

--------------------------------------------------------------

             Standard Nuclear Orientation (Angstroms)
    I     Atom           X                Y                Z
 ----------------------------------------------------------------
    1      C      -1.7942870000     1.9642040000    -5.1378580000
    2      C      -1.7405090000     0.6319020000    -5.5240270000
    3      C      -1.4321210000    -0.3594110000    -4.5850940000
    4      C      -1.5323200000     2.3238010000    -3.8096620000
    5      C      -1.2256790000     1.3339450000    -2.8728860000
    6      C      -1.1819610000    -0.0098180000    -3.2654250000
    7      C      -1.5977350000     3.7609100000    -3.4158050000
    8      C      -0.9610350000     1.6811550000    -1.4461400000
    9      C      -1.2454010000     4.1323220000    -2.0501650000
   10      C      -0.8738770000     3.1261270000    -1.0844580000
   11      C      -1.2273890000     5.5231940000    -1.6920930000
   12      C      -0.8289070000     5.8763290000    -0.3610550000
   13      C      -0.4311960000     4.9081610000     0.5189020000
   14      C      -0.4536870000     3.5442340000     0.1756630000
   15      O      -1.9356770000     4.5813130000    -4.2854480000
   16      O      -0.8299420000     0.7777260000    -0.6330130000
   17      H      -2.0369460000     2.7501320000    -5.8418190000
   18      H      -1.9394530000     0.3589330000    -6.5550110000
   19      H      -1.3910760000    -1.4003340000    -4.8876730000
   20      H      -0.9496560000    -0.7556390000    -2.5154200000
   21      Br      0.1647880000     2.3874120000     1.5828470000
   22      N      -1.5556120000     6.4976890000    -2.5534640000
   23      S      -0.9323170000     7.6079730000     0.2585300000
   24      O      -0.4849230000     8.4272230000    -0.9079700000
   25      O      -2.3663940000     7.7740340000     0.5784490000
   26      O      -0.0190660000     7.6423600000     1.4170290000
   27      H      -0.1038240000     5.2155920000     1.5037640000
   28      H      -1.8016050000     6.2291590000    -3.4967770000
   29      H      -1.3500820000     7.4569920000    -2.2705410000
 ----------------------------------------------------------------

   16   -3941.2568632461      4.08e-09  Convergence criterion met
 Total energy in the final basis set =    -3941.3508839307

                    Orbital Energies (a.u.)
 --------------------------------------------------------------

 Alpha MOs
 -- Occupied --
******** -89.0469 -62.4869 -56.3075 -56.3037 -56.3032 -19.1265 -19.1245
-19.0905 -19.0903 -19.0877 -14.3328 -10.2823 -10.2785 -10.2592 -10.2499
-10.2246 -10.2156 -10.2124 -10.2085 -10.2063 -10.2055 -10.1970 -10.1964
-10.1954 -10.1946  -8.6956  -8.1055  -6.5274  -6.5145  -6.5130  -6.0682
 -6.0679  -6.0678  -2.6382  -2.6347  -2.6337  -2.6234  -2.6233  -1.1107
 -1.0625  -1.0560  -0.9779  -0.9730  -0.9502  -0.8927  -0.8823  -0.8232
 -0.8060  -0.7759  -0.7759  -0.7407  -0.6935  -0.6747  -0.6561  -0.6215
 -0.5947  -0.5870  -0.5777  -0.5485  -0.5348  -0.5101  -0.5004  -0.4978
 -0.4763  -0.4737  -0.4612  -0.4540  -0.4513  -0.4493  -0.4479  -0.4463
 -0.4347  -0.4198  -0.4179  -0.4093  -0.3933  -0.3810  -0.3732  -0.3659
 -0.3600  -0.3329  -0.3310  -0.3123  -0.3078  -0.3025  -0.2993  -0.2926
 -0.2821  -0.2778  -0.2759  -0.2734  -0.2587  -0.2537  -0.2276

          Ground-State Mulliken Net Atomic Charges

     Atom                 Charge (a.u.)
  ----------------------------------------
      1 C                     0.414695
      2 C                     1.060268
      3 C                     1.236962
      4 C                     0.421796
      5 C                     0.899571
      6 C                     0.614728
      7 C                    -1.059646
      8 C                    -1.414907
      9 C                    -0.899135
     10 C                     0.538616
     11 C                    -0.543452
     12 C                    -1.900548
     13 C                    -1.539876
     14 C                     0.920522
     15 O                    -0.227120
     16 O                    -0.107471
     17 H                     0.225962
     18 H                     0.366107
     19 H                     0.383129
     20 H                     0.223432
     21 Br                    0.004372
     22 N                    -0.465494
     23 S                    -0.039960
     24 O                    -0.368625
     25 O                    -0.336527
     26 O                    -0.268974
     27 H                     0.212149
     28 H                     0.400692
     29 H                     0.248733
  ----------------------------------------
  Sum of atomic charges =    -1.000000

                    Cartesian Multipole Moments
 -----------------------------------------------------------------
    Charge (ESU x 10^10)
                -4.8032
    Dipole Moment (Debye)
         X       4.6075      Y     -34.5093      Z      -3.1730
       Tot      34.9598
    Quadrupole Moments (Debye-Ang)
        XX    -163.3516     XY      35.5665     YY    -411.5343
        XZ       2.6998     YZ      -5.1469     ZZ    -146.7036

 Total job time:  872.07s(wall), 6715.04s(cpu)
        *  Thank you very much for using Q-Chem.  Have a nice day.  *
