 Q-Chem 5.4, Q-Chem, Inc., Pleasanton, CA (2021)
 Q-Chem 5.4.0 for Intel X86 EM64T Linux

User input:
--------------------------------------------------------------
$molecule
-1 2
C                 -1.0338830000      2.6347150000      0.5709650000
C                  0.2872950000      2.7739240000     -0.0225700000
C                  0.9462360000      1.7074730000     -0.5979590000
C                  0.3472150000      0.3785010000     -0.6379980000
C                 -0.9750040000      0.2409670000     -0.0426580000
C                 -1.6305330000      1.3080850000      0.5256750000
O                 -1.6441520000      3.6166940000      1.0879490000
O                  0.9404170000     -0.6164830000     -1.1480530000
O                 -2.9138740000      1.1294030000      0.9968550000
O                 -1.5567090000     -1.0073450000      0.0208620000
C                 -3.0857900000      1.3383120000      2.3958940000
C                 -1.8846960000     -1.5937490000     -1.2355800000
C                  2.3211180000      1.8439880000     -1.2076220000
C                  0.8882410000      4.1688250000      0.0268220000
C                  1.6698930000      4.4122800000      1.2937480000
C                  2.9182320000      4.8760430000      1.4434160000
C                  3.8333080000      5.2747120000      0.3116240000
C                  3.5234910000      5.0432090000      2.8179230000
H                 -2.7981470000      2.3540450000      2.6756210000
H                 -2.5001310000      0.6064980000      2.9685060000
H                 -4.1476690000      1.1814260000      2.6003740000
H                 -2.3091690000     -2.5758000000     -1.0132720000
H                 -0.9937300000     -1.7045600000     -1.8573190000
H                 -2.6388510000     -0.9887430000     -1.7568500000
H                  3.0351040000      2.2831070000     -0.5032010000
H                  2.3096160000      2.4849790000     -2.0990290000
H                  2.6775890000      0.8576000000     -1.5060120000
H                  0.0509350000      4.8758440000      0.0131620000
H                  1.4999760000      4.3531390000     -0.8584630000
H                  1.1123230000      4.1688490000      2.1961780000
H                  3.3907310000      5.1073220000     -0.6698690000
H                  4.7756110000      4.7132530000      0.3561560000
H                  4.1007560000      6.3376150000      0.3837590000
H                  2.8227260000      4.7495900000      3.6026130000
H                  3.8216400000      6.0848960000      2.9994880000
H                  4.4316060000      4.4353380000      2.9285250000
$end
$rem
MAX_SCF_CYCLES=200
BASIS  =  6-311++G(d,p)
GUI  =  2
JOB_TYPE  =  SP
METHOD  =  B3LYP
SOLVENT_METHOD = COSMO
$end
$solvent
dielectric 37.219
opticaldielectric 1.43
$end

--------------------------------------------------------------

             Standard Nuclear Orientation (Angstroms)
    I     Atom           X                Y                Z
 ----------------------------------------------------------------
    1      C       0.4263619941     1.1289560265     0.6132574194
    2      C      -0.4809436158    -0.0083117295     0.6376055405
    3      C      -0.0802366328    -1.2714410997     0.2548110967
    4      C       1.2816430801    -1.5299665752    -0.1980068389
    5      C       2.1881786849    -0.3901398586    -0.2224333429
    6      C       1.7857969491     0.8666920415     0.1647668746
    7      O       0.0618638687     2.2861010757     0.9767679651
    8      O       1.6659556553    -2.6780072625    -0.5672551305
    9      O       2.7149708433     1.8847577774     0.1976302809
   10      O       3.4641783728    -0.5569890109    -0.7170892875
   11      C       2.4591395416     2.9742717167    -0.6844229635
   12      C       4.3076422663    -1.4165219605     0.0443983300
   13      C      -1.0197635795    -2.4536826486     0.2696390793
   14      C      -1.8925607935     0.2850552067     1.1178109639
   15      C      -2.8039195543     0.7114193337    -0.0060175444
   16      C      -4.0117645270     0.2389443948    -0.3432190322
   17      C      -4.7395094997    -0.8675079689     0.3802480439
   18      C      -4.7654747729     0.8087516881    -1.5225378760
   19      H       1.4946319287     3.4359981955    -0.4625379916
   20      H       2.4874089073     2.6373997426    -1.7294831596
   21      H       3.2641817655     3.6950145663    -0.5217912917
   22      H       5.2611153822    -1.4592417412    -0.4876602933
   23      H       3.8770253446    -2.4173434499     0.1191264255
   24      H       4.4766064984    -0.9998588523     1.0465696624
   25      H      -1.9337294759    -2.2522549160    -0.2986070455
   26      H      -1.3248661842    -2.7187373129     1.2905536806
   27      H      -0.5136643889    -3.3158718536    -0.1657490655
   28      H      -1.8208666611     1.1219656117     1.8217887512
   29      H      -2.2998966780    -0.5737228665     1.6549316116
   30      H      -2.3943116613     1.5202535811    -0.6081233456
   31      H      -4.1600341509    -1.2898458165     1.2006512280
   32      H      -4.9915604648    -1.6838982974    -0.3090497103
   33      H      -5.6904269227    -0.5032132124     0.7920004737
   34      H      -4.2033030346     1.6094097080    -2.0082659587
   35      H      -5.7398693866     1.2135554258    -1.2164993947
   36      H      -4.9717279846     0.0343794471    -2.2736837029
 ----------------------------------------------------------------

   10    -845.4675616435      5.70e-06  Convergence criterion met
 Total energy in the final basis set =     -845.4675616435
    4    -845.5543110406      7.66e-06  Convergence criterion met
 Total energy in the final basis set =     -845.5543110406

                    Orbital Energies (a.u.)
 --------------------------------------------------------------

 Alpha MOs
 -- Occupied --
-19.1356 -19.1354 -19.0787 -19.0780 -10.2211 -10.2206 -10.2144 -10.2138
-10.2028 -10.2027 -10.1714 -10.1683 -10.1659 -10.1604 -10.1564 -10.1558
-10.1557 -10.1507  -1.0607  -1.0418  -0.9984  -0.9957  -0.8309  -0.8066
 -0.7716  -0.7360  -0.7049  -0.6973  -0.6863  -0.6663  -0.6434  -0.6249
 -0.5632  -0.5601  -0.5196  -0.5083  -0.4957  -0.4859  -0.4670  -0.4544
 -0.4439  -0.4406  -0.4367  -0.4350  -0.4260  -0.4160  -0.4120  -0.4108
 -0.3886  -0.3862  -0.3819  -0.3781  -0.3712  -0.3663  -0.3617  -0.3583
 -0.3543  -0.3455  -0.3379  -0.3267  -0.2909  -0.2870  -0.2675  -0.2432
 -0.2407  -0.2304  -0.2231  -0.1602

 Beta MOs
 -- Occupied --
-19.1355 -19.1352 -19.0720 -19.0716 -10.2193 -10.2188 -10.2135 -10.2129
-10.2027 -10.2027 -10.1714 -10.1672 -10.1650 -10.1605 -10.1564 -10.1557
-10.1557 -10.1508  -1.0596  -1.0406  -0.9871  -0.9846  -0.8266  -0.8053
 -0.7700  -0.7339  -0.7024  -0.6958  -0.6863  -0.6637  -0.6378  -0.6235
 -0.5604  -0.5566  -0.5185  -0.5077  -0.4936  -0.4842  -0.4634  -0.4538
 -0.4424  -0.4382  -0.4358  -0.4328  -0.4258  -0.4140  -0.4064  -0.4052
 -0.3870  -0.3824  -0.3784  -0.3727  -0.3655  -0.3628  -0.3566  -0.3538
 -0.3456  -0.3406  -0.3337  -0.3259  -0.2880  -0.2834  -0.2439  -0.2373
 -0.2354  -0.2268  -0.2177

          Ground-State Mulliken Net Atomic Charges

     Atom                 Charge (a.u.)    Spin (a.u.)
  --------------------------------------------------------
      1 C                    -0.459295       0.098136
      2 C                     0.829657       0.071699
      3 C                     0.636325       0.084842
      4 C                    -0.647821       0.093683
      5 C                    -0.304973       0.074645
      6 C                    -0.157085       0.073167
      7 O                    -0.498581       0.234887
      8 O                    -0.520040       0.239164
      9 O                    -0.212842       0.000605
     10 O                    -0.208106       0.000578
     11 C                    -0.268517       0.001620
     12 C                    -0.282464       0.002029
     13 C                    -0.644802       0.002158
     14 C                     0.330832       0.012721
     15 C                    -0.710117      -0.007638
     16 C                     0.443483       0.009015
     17 C                    -0.696986      -0.001384
     18 C                    -0.638712       0.001482
     19 H                     0.168095      -0.000352
     20 H                     0.147968       0.000773
     21 H                     0.166052       0.000635
     22 H                     0.166953       0.000730
     23 H                     0.172836      -0.000380
     24 H                     0.147424       0.000562
     25 H                     0.178382       0.003639
     26 H                     0.179800       0.004605
     27 H                     0.183684      -0.001806
     28 H                     0.199397       0.001993
     29 H                     0.182822       0.000016
     30 H                     0.207012      -0.002495
     31 H                     0.127941       0.000285
     32 H                     0.158434       0.000136
     33 H                     0.157467      -0.000115
     34 H                     0.157822       0.000127
     35 H                     0.150463      -0.000019
     36 H                     0.157492       0.000259
  --------------------------------------------------------
  Sum of atomic charges =    -1.000000

                    Cartesian Multipole Moments
 -----------------------------------------------------------------
    Charge (ESU x 10^10)
                -4.8032
    Dipole Moment (Debye)
         X      -6.2020      Y      -0.0183      Z      -0.5209
       Tot       6.2239
    Quadrupole Moments (Debye-Ang)
        XX    -119.3617     XY       9.1902     YY    -138.8789
        XZ       4.4557     YZ     -15.2926     ZZ    -116.5006

 Total job time:  125.87s(wall), 919.96s(cpu)
        *  Thank you very much for using Q-Chem.  Have a nice day.  *
