 Q-Chem 5.4, Q-Chem, Inc., Pleasanton, CA (2021)
 Q-Chem 5.4.0 for Intel X86 EM64T Linux

User input:
--------------------------------------------------------------
$molecule
-2 1
C                 -1.1654240000      3.0059300000     -0.5479510000
C                 -2.4819670000      2.5948280000     -0.3656980000
C                 -2.7653610000      1.2817380000      0.0552350000
C                 -0.0979450000      2.1139170000     -0.3109150000
C                 -0.3885290000      0.7835500000      0.1107430000
C                 -1.7351490000      0.3849010000      0.2764290000
C                  1.2823200000      2.5885680000     -0.5023650000
C                  2.3017420000      1.6143190000     -0.2195520000
C                  1.9574780000      0.2820210000      0.2230190000
C                  0.6579670000     -0.1788490000      0.4169140000
O                  1.4415050000      3.7935360000     -0.8722040000
O                  0.3043620000     -1.3563020000      0.8444110000
H                 -3.7962250000      0.9679580000      0.1937920000
H                  2.7645850000     -0.4059650000      0.4388560000
C                 -2.0502520000     -1.0228520000      0.6912300000
O                 -2.5297360000     -1.3508110000      1.7606180000
O                 -2.0703260000     -1.8649110000     -0.3986210000
C                 -1.9681800000     -3.2462470000     -0.0709870000
H                 -3.2939380000      3.2877420000     -0.5644610000
H                 -1.9819560000     -3.7847340000     -1.0215400000
H                 -2.8024060000     -3.5741770000      0.5582740000
H                 -1.0192480000     -3.4085900000      0.4468990000
C                  3.6930670000      1.9885260000     -0.3633060000
O                  4.1987280000      3.0599730000     -0.6645730000
O                  4.5691040000      0.9034070000     -0.0962410000
C                 -0.9753450000      4.4239970000     -1.0346470000
O                 -1.2524480000      4.7734580000     -2.1609570000
O                 -0.8182720000      5.4105770000     -0.0920390000
C                 -0.2625700000      5.0824080000      1.1854720000
C                  5.9421600000      1.2120350000     -0.2076020000
H                 -0.3317640000      5.9985710000      1.7774040000
H                  0.7774580000      4.7791750000      1.0578430000
H                 -0.8293730000      4.2865700000      1.6769480000
H                  6.4781950000      0.2872270000      0.0254470000
H                  6.2438790000      2.0004970000      0.4921500000
H                  6.2065930000      1.5486170000     -1.2169540000
$end

$rem
BASIS  =  6-311++G(d,p)
GUI  =  2
JOB_TYPE  =  SP
METHOD  =  B3LYP
SCF_CONVERGENCE  = 8
SOLVENT_METHOD = sm12
$end

$smx
solvent dimethylformamide
charges CM5
$end

--------------------------------------------------------------

             Standard Nuclear Orientation (Angstroms)
    I     Atom           X                Y                Z
 ----------------------------------------------------------------
    1      C      -1.1654240000     3.0059300000    -0.5479510000
    2      C      -2.4819670000     2.5948280000    -0.3656980000
    3      C      -2.7653610000     1.2817380000     0.0552350000
    4      C      -0.0979450000     2.1139170000    -0.3109150000
    5      C      -0.3885290000     0.7835500000     0.1107430000
    6      C      -1.7351490000     0.3849010000     0.2764290000
    7      C       1.2823200000     2.5885680000    -0.5023650000
    8      C       2.3017420000     1.6143190000    -0.2195520000
    9      C       1.9574780000     0.2820210000     0.2230190000
   10      C       0.6579670000    -0.1788490000     0.4169140000
   11      O       1.4415050000     3.7935360000    -0.8722040000
   12      O       0.3043620000    -1.3563020000     0.8444110000
   13      H      -3.7962250000     0.9679580000     0.1937920000
   14      H       2.7645850000    -0.4059650000     0.4388560000
   15      C      -2.0502520000    -1.0228520000     0.6912300000
   16      O      -2.5297360000    -1.3508110000     1.7606180000
   17      O      -2.0703260000    -1.8649110000    -0.3986210000
   18      C      -1.9681800000    -3.2462470000    -0.0709870000
   19      H      -3.2939380000     3.2877420000    -0.5644610000
   20      H      -1.9819560000    -3.7847340000    -1.0215400000
   21      H      -2.8024060000    -3.5741770000     0.5582740000
   22      H      -1.0192480000    -3.4085900000     0.4468990000
   23      C       3.6930670000     1.9885260000    -0.3633060000
   24      O       4.1987280000     3.0599730000    -0.6645730000
   25      O       4.5691040000     0.9034070000    -0.0962410000
   26      C      -0.9753450000     4.4239970000    -1.0346470000
   27      O      -1.2524480000     4.7734580000    -2.1609570000
   28      O      -0.8182720000     5.4105770000    -0.0920390000
   29      C      -0.2625700000     5.0824080000     1.1854720000
   30      C       5.9421600000     1.2120350000    -0.2076020000
   31      H      -0.3317640000     5.9985710000     1.7774040000
   32      H       0.7774580000     4.7791750000     1.0578430000
   33      H      -0.8293730000     4.2865700000     1.6769480000
   34      H       6.4781950000     0.2872270000     0.0254470000
   35      H       6.2438790000     2.0004970000     0.4921500000
   36      H       6.2065930000     1.5486170000    -1.2169540000
 ----------------------------------------------------------------

   17   -1219.0890280744      5.35e-09  Convergence criterion met
 Total energy in the final basis set =    -1219.3392231215

                    Orbital Energies (a.u.)
 --------------------------------------------------------------

 Alpha MOs
 -- Occupied --
-19.1502 -19.1423 -19.1331 -19.0966 -19.0952 -19.0797 -19.0411 -19.0228
-10.2982 -10.2947 -10.2681 -10.2123 -10.2095 -10.2081 -10.2033 -10.1895
-10.1835 -10.1827 -10.1810 -10.1808 -10.1696 -10.1681 -10.1475 -10.1305
 -1.0852  -1.0833  -1.0675  -1.0075  -1.0007  -0.9849  -0.9654  -0.9375
 -0.8608  -0.7908  -0.7770  -0.7457  -0.7153  -0.7084  -0.6964  -0.6665
 -0.6448  -0.6209  -0.5898  -0.5709  -0.5483  -0.5362  -0.5166  -0.5001
 -0.4957  -0.4779  -0.4665  -0.4663  -0.4637  -0.4592  -0.4580  -0.4524
 -0.4434  -0.4354  -0.4236  -0.4131  -0.4066  -0.3997  -0.3954  -0.3875
 -0.3802  -0.3743  -0.3708  -0.3693  -0.3495  -0.3467  -0.3448  -0.3399
 -0.3328  -0.3298  -0.3249  -0.2876  -0.2834  -0.2812  -0.2759  -0.2709
 -0.2588  -0.2459  -0.2412  -0.2314  -0.2095  -0.2021  -0.1322

          Ground-State Mulliken Net Atomic Charges

     Atom                 Charge (a.u.)
  ----------------------------------------
      1 C                    -0.853682
      2 C                     1.502622
      3 C                     1.513310
      4 C                    -0.486821
      5 C                    -0.846037
      6 C                    -0.771030
      7 C                    -2.184039
      8 C                    -1.369204
      9 C                    -1.020140
     10 C                    -2.083857
     11 O                    -0.223724
     12 O                    -0.342568
     13 H                     0.334011
     14 H                    -0.002669
     15 C                     0.452637
     16 O                    -0.145724
     17 O                     0.049323
     18 C                     0.187481
     19 H                     0.338254
     20 H                     0.263818
     21 H                     0.182961
     22 H                     0.100360
     23 C                     1.863102
     24 O                    -0.264126
     25 O                    -0.130551
     26 C                     0.584280
     27 O                    -0.233843
     28 O                     0.036777
     29 C                     0.028537
     30 C                     0.366696
     31 H                     0.353184
     32 H                     0.078497
     33 H                     0.052648
     34 H                     0.286466
     35 H                     0.192815
     36 H                     0.190237
  ----------------------------------------
  Sum of atomic charges =    -2.000000

                    Cartesian Multipole Moments
 -----------------------------------------------------------------
    Charge (ESU x 10^10)
                -9.6064
    Dipole Moment (Debye)
         X      -4.8223      Y     -15.6194      Z       2.6634
       Tot      16.5624
    Quadrupole Moments (Debye-Ang)
        XX    -189.1905     XY     -20.5714     YY    -238.1095
        XZ       7.3890     YZ      40.3757     ZZ    -167.0393

 Total job time:  1506.27s(wall), 11163.37s(cpu)
        *  Thank you very much for using Q-Chem.  Have a nice day.  *
