 Gaussian 16, Revision A.03,
 Gaussian 16:  ES64L-G16RevA.03 25-Dec-2016

 ----------------------------------------------------------------------
 #P UB3LYP/6-311++G(d,p) nosym opt freq SCRF=(PCM,Solvent=n,n-DiMethylF
 ormamide)
 ----------------------------------------------------------------------

 -------
 Radical
 -------
 Symbolic Z-matrix:
 Charge = -2 Multiplicity = 2

 SCF Done:  E(UB3LYP) =  -1367.94418470     A.U. after   20 cycles
 SCF Done:  E(UB3LYP) =  -1367.94473795     A.U. after   16 cycles
 SCF Done:  E(UB3LYP) =  -1367.94496628     A.U. after   15 cycles
 SCF Done:  E(UB3LYP) =  -1367.94513506     A.U. after   14 cycles
 SCF Done:  E(UB3LYP) =  -1367.94514794     A.U. after   12 cycles
 SCF Done:  E(UB3LYP) =  -1367.94515101     A.U. after   11 cycles
 SCF Done:  E(UB3LYP) =  -1367.94515305     A.U. after   12 cycles
 SCF Done:  E(UB3LYP) =  -1367.94515395     A.U. after   10 cycles
 SCF Done:  E(UB3LYP) =  -1367.94515437     A.U. after   10 cycles
 SCF Done:  E(UB3LYP) =  -1367.94515447     A.U. after    9 cycles
 SCF Done:  E(UB3LYP) =  -1367.94515451     A.U. after    9 cycles
 Optimization completed.
    -- Stationary point found.
 Normal termination of Gaussian 16 at Sat Feb 10 23:12:20 2024.

 ----------------------------------------------------------------------
 #P Geom=AllCheck Guess=TCheck SCRF=Check GenChk UB3LYP/6-311++G(d,p) F
 req
 ----------------------------------------------------------------------

 Structure from the checkpoint file:  "157-rad.chk"
 -------
 Radical
 -------
 Charge = -2 Multiplicity = 2

                          Input orientation:
 ---------------------------------------------------------------------
 Center     Atomic      Atomic             Coordinates (Angstroms)
 Number     Number       Type             X           Y           Z
 ---------------------------------------------------------------------
      1          6           0       -1.724319    1.893127   -5.153415
      2          6           0       -1.619943    0.570644   -5.539395
      3          6           0       -1.259667   -0.411398   -4.592731
      4          6           0       -1.475011    2.289440   -3.820615
      5          6           0       -1.113832    1.299939   -2.867443
      6          6           0       -1.013437   -0.047598   -3.283832
      7          6           0       -1.594567    3.704547   -3.460513
      8          6           0       -0.853949    1.655402   -1.478408
      9          6           0       -1.315379    4.073170   -2.080527
     10          6           0       -0.970786    3.066924   -1.119886
     11          6           0       -1.400479    5.451620   -1.647569
     12          6           0       -1.165875    5.751915   -0.287735
     13          6           0       -0.839904    4.740183    0.627865
     14          6           0       -0.740162    3.426641    0.224476
     15          8           0       -1.935797    4.545011   -4.353145
     16          8           0       -0.543615    0.778356   -0.620349
     17          7           0       -1.675671    6.438256   -2.551163
     18          1           0       -1.999765    2.658983   -5.867689
     19          1           0       -1.813865    0.286605   -6.568058
     20          1           0       -1.177202   -1.450084   -4.894449
     21          1           0       -0.737307   -0.789077   -2.544139
     22         16           0       -1.144551    7.455342    0.309892
     23          1           0       -0.671643    5.013484    1.662115
     24          1           0       -1.965035    6.105770   -3.467837
     25          1           0       -2.018267    7.316447   -2.181438
     26          1           0       -0.487436    2.645938    0.929236
     27          8           0       -2.282944    8.158028   -0.369880
     28          8           0       -1.318803    7.379731    1.787649
     29          8           0        0.176221    8.034918   -0.082263
 ---------------------------------------------------------------------

 SCF Done:  E(UB3LYP) =  -1367.94515451     A.U. after    2 cycles

 Alpha  occ. eigenvalues --  -89.03950 -19.08439 -19.08419 -19.08220 -19.07776
 Alpha  occ. eigenvalues --  -19.07149 -14.30090 -10.22865 -10.22568 -10.21964
 Alpha  occ. eigenvalues --  -10.18201 -10.17448 -10.17229 -10.17220 -10.17214
 Alpha  occ. eigenvalues --  -10.17191 -10.17117 -10.17111 -10.16896 -10.16883
 Alpha  occ. eigenvalues --  -10.15595  -8.09838  -6.06127  -6.06102  -6.05990
 Alpha  occ. eigenvalues --   -1.10064  -1.00321  -0.99429  -0.96564  -0.96134
 Alpha  occ. eigenvalues --   -0.91543  -0.85742  -0.83779  -0.78669  -0.74939
 Alpha  occ. eigenvalues --   -0.74475  -0.72993  -0.67126  -0.64649  -0.62601
 Alpha  occ. eigenvalues --   -0.59729  -0.57634  -0.55840  -0.54515  -0.51933
 Alpha  occ. eigenvalues --   -0.49809  -0.48239  -0.47757  -0.46802  -0.45115
 Alpha  occ. eigenvalues --   -0.44523  -0.44314  -0.43694  -0.42382  -0.42257
 Alpha  occ. eigenvalues --   -0.41908  -0.41066  -0.39958  -0.38438  -0.38264
 Alpha  occ. eigenvalues --   -0.37530  -0.36079  -0.35083  -0.34549  -0.33526
 Alpha  occ. eigenvalues --   -0.32884  -0.32725  -0.30869  -0.29466  -0.29077
 Alpha  occ. eigenvalues --   -0.28507  -0.26497  -0.25537  -0.24999  -0.24616
 Alpha  occ. eigenvalues --   -0.24498  -0.23570  -0.20979  -0.14014
 Alpha virt. eigenvalues --   -0.04798  -0.02358  -0.00038   0.00428   0.00848
 Alpha virt. eigenvalues --    0.01403   0.02327   0.02612   0.04306   0.04323
 Alpha virt. eigenvalues --    0.04471   0.04719   0.04799   0.05364   0.06247

  Beta  occ. eigenvalues --  -89.03952 -19.08433 -19.08419 -19.08207 -19.07296
  Beta  occ. eigenvalues --  -19.06579 -14.30085 -10.22694 -10.22585 -10.21771
  Beta  occ. eigenvalues --  -10.18083 -10.17431 -10.17166 -10.17161 -10.17146
  Beta  occ. eigenvalues --  -10.17119 -10.17061 -10.17054 -10.16905 -10.16865
  Beta  occ. eigenvalues --  -10.15556  -8.09839  -6.06129  -6.06103  -6.05994
  Beta  occ. eigenvalues --   -1.10053  -0.99490  -0.98415  -0.96559  -0.96111
  Beta  occ. eigenvalues --   -0.91484  -0.85513  -0.83614  -0.78285  -0.74723
  Beta  occ. eigenvalues --   -0.74280  -0.72795  -0.66491  -0.64427  -0.62376
  Beta  occ. eigenvalues --   -0.59636  -0.57542  -0.55630  -0.54329  -0.51830
  Beta  occ. eigenvalues --   -0.49693  -0.48132  -0.47561  -0.46590  -0.45075
  Beta  occ. eigenvalues --   -0.44478  -0.44229  -0.43604  -0.42309  -0.41805
  Beta  occ. eigenvalues --   -0.41206  -0.40604  -0.39708  -0.38150  -0.37706
  Beta  occ. eigenvalues --   -0.35983  -0.35608  -0.34946  -0.33648  -0.33369
  Beta  occ. eigenvalues --   -0.32821  -0.32693  -0.30310  -0.29146  -0.29020
  Beta  occ. eigenvalues --   -0.28439  -0.24962  -0.24896  -0.24621  -0.24135
  Beta  occ. eigenvalues --   -0.24028  -0.23079  -0.20218
  Beta virt. eigenvalues --   -0.08347  -0.03841  -0.01322  -0.00023   0.00696
  Beta virt. eigenvalues --    0.00850   0.01413   0.02340   0.02612   0.04343
  Beta virt. eigenvalues --    0.04355   0.04514   0.04728   0.05471   0.05523

 Mulliken charges and spin densities:
               1          2
     1  C    0.115438   0.015458
     2  C   -0.524413   0.046691
     3  C   -0.432672   0.022321
     4  C    0.196648   0.033204
     5  C    0.097075   0.017159
     6  C    0.045614   0.041676
     7  C   -0.452609   0.095963
     8  C   -0.508908   0.111913
     9  C    0.223925   0.006916
    10  C    0.541804   0.060030
    11  C    0.362773   0.001680
    12  C   -1.280460   0.070254
    13  C   -0.123315   0.041613
    14  C   -0.069940   0.054281
    15  O   -0.447413   0.175685
    16  O   -0.464432   0.213474
    17  N   -0.439665   0.004421
    18  H    0.166384  -0.000371
    19  H    0.180820  -0.003691
    20  H    0.181379  -0.001923
    21  H    0.161433  -0.002533
    22  S    0.676801  -0.001669
    23  H    0.216443  -0.003122
    24  H    0.344733  -0.002159
    25  H    0.271725  -0.000791
    26  H    0.157066  -0.003748
    27  O   -0.448429   0.003184
    28  O   -0.371561   0.000166
    29  O   -0.376246   0.003916
 Sum of Mulliken charges =  -2.00000   1.00000

 Dipole moment (field-independent basis, Debye):
    X=             10.1540    Y=            -52.2852    Z=              7.1394  Tot=             53.7384
 Quadrupole moment (field-independent basis, Debye-Ang):
   XX=           -157.6898   YY=           -504.8274   ZZ=           -176.3156
   XY=             58.0078   XZ=            -10.0529   YZ=             19.1617

  Exact polarizability: 188.332 -23.399 503.878  49.785  83.405 449.859
 Approx polarizability: 219.788 -33.485 519.390  60.233  37.005 500.806

                      1                      2                      3
                      A                      A                      A
 Frequencies --     30.4227                38.2660                80.9053
 Red. masses --     11.8989                 8.7659                 8.8956
 Frc consts  --      0.0065                 0.0076                 0.0343
 IR Inten    --      0.6432                 0.1918                15.2636

                      4                      5                      6
                      A                      A                      A
 Frequencies --     91.3728               132.6097               138.6401
 Red. masses --      5.8802                 5.3402                 8.4231
 Frc consts  --      0.0289                 0.0553                 0.0954
 IR Inten    --      2.0285                 0.8332                 2.3122

                      7                      8                      9
                      A                      A                      A
 Frequencies --    174.5967               193.1818               223.3087
 Red. masses --      8.8455                 6.9061                11.8804
 Frc consts  --      0.1589                 0.1519                 0.3491
 IR Inten    --      1.1807                 0.5247                 3.5241

                     10                     11                     12
                      A                      A                      A
 Frequencies --    245.6492               269.6797               303.9559
 Red. masses --      7.1849                 5.1231                 9.8933
 Frc consts  --      0.2554                 0.2195                 0.5385
 IR Inten    --     10.9564                 1.4020                 3.5945

                     13                     14                     15
                      A                      A                      A
 Frequencies --    348.4708               358.5635               390.9055
 Red. masses --      5.5711                 7.8328                 7.7168
 Frc consts  --      0.3986                 0.5933                 0.6948
 IR Inten    --      5.4375                 4.1241                21.4072

                     16                     17                     18
                      A                      A                      A
 Frequencies --    401.2805               432.7896               435.7246
 Red. masses --      7.1233                 6.2803                 7.5125
 Frc consts  --      0.6758                 0.6931                 0.8403
 IR Inten    --      9.7059                 9.6054                34.7460

                     19                     20                     21
                      A                      A                      A
 Frequencies --    440.3814               472.4708               488.4001
 Red. masses --      3.5400                 5.8410                 6.3701
 Frc consts  --      0.4045                 0.7682                 0.8953
 IR Inten    --      2.6468                15.1464                11.2971

                     22                     23                     24
                      A                      A                      A
 Frequencies --    495.5670               518.5338               536.2081
 Red. masses --      4.1854                 6.7910                 1.8791
 Frc consts  --      0.6056                 1.0758                 0.3183
 IR Inten    --    144.2009                58.8645               199.6092

                     25                     26                     27
                      A                      A                      A
 Frequencies --    539.7918               574.7358               580.1831
 Red. masses --      5.3502                 5.4412                 6.5978
 Frc consts  --      0.9185                 1.0590                 1.3085
 IR Inten    --    138.5621                85.7667               136.7721

                     28                     29                     30
                      A                      A                      A
 Frequencies --    605.1200               660.2287               665.9435
 Red. masses --      7.2366                 5.4445                 4.8837
 Frc consts  --      1.5612                 1.3983                 1.2761
 IR Inten    --    210.1096                36.7858                 9.8527

                     31                     32                     33
                      A                      A                      A
 Frequencies --    671.9778               704.3675               708.6071
 Red. masses --      5.3964                 4.4170                 1.9401
 Frc consts  --      1.4357                 1.2912                 0.5740
 IR Inten    --    165.1049                15.4204                20.1074

                     34                     35                     36
                      A                      A                      A
 Frequencies --    719.1381               750.1745               784.9439
 Red. masses --      1.5281                 5.6426                 1.6556
 Frc consts  --      0.4656                 1.8709                 0.6010
 IR Inten    --    104.3389                38.8569                13.0022

                     37                     38                     39
                      A                      A                      A
 Frequencies --    799.6394               805.3813               828.0797
 Red. masses --      4.3611                 5.8049                 1.7790
 Frc consts  --      1.6430                 2.2184                 0.7187
 IR Inten    --      5.1423                 7.3089                43.6470

                     40                     41                     42
                      A                      A                      A
 Frequencies --    886.0914               893.2359               940.5099
 Red. masses --      1.4656                 6.9967                 8.4153
 Frc consts  --      0.6780                 3.2891                 4.3858
 IR Inten    --      0.1327                72.7437                67.9024

                     43                     44                     45
                      A                      A                      A
 Frequencies --    967.8611               972.7586               989.9705
 Red. masses --      6.5530                 1.3376                 1.3652
 Frc consts  --      3.6167                 0.7457                 0.7883
 IR Inten    --    553.4724                23.9342                 2.7288

                     46                     47                     48
                      A                      A                      A
 Frequencies --   1001.7062              1029.1737              1045.2740
 Red. masses --      1.2860                 3.5948                 2.0791
 Frc consts  --      0.7603                 2.2434                 1.3384
 IR Inten    --      0.0278                53.2737                46.5448

                     49                     50                     51
                      A                      A                      A
 Frequencies --   1082.0011              1109.4924              1113.5761
 Red. masses --     12.2972                 5.1515                 2.5910
 Frc consts  --      8.4822                 3.7362                 1.8931
 IR Inten    --    468.7039               202.4441               201.9174

                     52                     53                     54
                      A                      A                      A
 Frequencies --   1124.2719              1148.7312              1169.3917
 Red. masses --      3.0535                 1.3871                 1.3382
 Frc consts  --      2.2740                 1.0785                 1.0782
 IR Inten    --    375.0823                46.9736                67.5276

                     55                     56                     57
                      A                      A                      A
 Frequencies --   1180.5291              1207.1267              1233.1189
 Red. masses --      3.3958                 1.9421                 3.4261
 Frc consts  --      2.7883                 1.6674                 3.0694
 IR Inten    --      7.4933                 5.7422                36.8912

                     58                     59                     60
                      A                      A                      A
 Frequencies --   1248.0504              1295.4322              1349.6456
 Red. masses --      2.0076                 2.5221                 6.5993
 Frc consts  --      1.8425                 2.4937                 7.0825
 IR Inten    --    368.3423                24.2799                26.6844

                     61                     62                     63
                      A                      A                      A
 Frequencies --   1362.0699              1372.5971              1393.9260
 Red. masses --      7.5536                 3.5880                 3.0827
 Frc consts  --      8.2566                 3.9828                 3.5290
 IR Inten    --     14.1120                 7.9498               418.8920

                     64                     65                     66
                      A                      A                      A
 Frequencies --   1434.4412              1465.5096              1474.6678
 Red. masses --      3.2445                 5.0383                 2.9979
 Frc consts  --      3.9334                 6.3754                 3.8411
 IR Inten    --    184.6235               822.7781               233.8140

                     67                     68                     69
                      A                      A                      A
 Frequencies --   1501.3491              1509.0360              1555.4873
 Red. masses --      4.3052                 3.5607                 4.8042
 Frc consts  --      5.7175                 4.7773                 6.8486
 IR Inten    --   1201.1273                78.2243               117.6565

                     70                     71                     72
                      A                      A                      A
 Frequencies --   1587.8980              1594.6262              1607.7711
 Red. masses --      6.0425                 1.3466                 7.8298
 Frc consts  --      8.9767                 2.0175                11.9248
 IR Inten    --    249.4547               210.9790                35.4407

                     73                     74                     75
                      A                      A                      A
 Frequencies --   1626.6436              3159.2667              3173.7265
 Red. masses --      5.7648                 1.0861                 1.0908
 Frc consts  --      8.9871                 6.3870                 6.4736
 IR Inten    --      2.3960                13.9855                26.6441

                     76                     77                     78
                      A                      A                      A
 Frequencies --   3188.1408              3191.1760              3196.8828
 Red. masses --      1.0870                 1.0925                 1.0929
 Frc consts  --      6.5093                 6.5549                 6.5807
 IR Inten    --      5.6584                22.6810                36.8564

                     79                     80                     81
                      A                      A                      A
 Frequencies --   3205.7076              3414.3518              3566.7046
 Red. masses --      1.0931                 1.0530                 1.0999
 Frc consts  --      6.6185                 7.2324                 8.2438
 IR Inten    --     11.0862               131.9957               497.0574

 - Thermochemistry -
 -------------------
 Temperature   298.150 Kelvin.  Pressure   1.00000 Atm.
 Atom     1 has atomic number  6 and mass  12.00000

 Molecular mass:   302.01232 amu.
 Principal axes and moments of inertia in atomic units:
                           1         2         3
     Eigenvalues --  2387.49748********************
           X            0.01872   0.25189   0.96758
           Y            0.84011  -0.52867   0.12137
           Z            0.54210   0.81059  -0.22151
 This molecule is an asymmetric top.
 Rotational symmetry number  1.
 Warning -- assumption of classical behavior for rotation
           may cause significant error
 Rotational temperatures (Kelvin)      0.03628     0.00781     0.00660
 Rotational constants (GHZ):           0.75591     0.16277     0.13754
 Zero-point vibrational energy     515651.1 (Joules/Mol)
                                  123.24356 (Kcal/Mol)
 Warning -- explicit consideration of  28 degrees of freedom as
           vibrations may cause significant error
 Vibrational temperatures:     43.77    55.06   116.40   131.47   190.80
          (Kelvin)            199.47   251.21   277.95   321.29   353.43
                              388.01   437.32   501.37   515.89   562.43
                              577.35   622.69   626.91   633.61   679.78
                              702.70   713.01   746.05   771.48   776.64
                              826.92   834.75   870.63   949.92   958.14
                              966.83  1013.43  1019.53  1034.68  1079.33
                             1129.36  1150.50  1158.76  1191.42  1274.89
                             1285.17  1353.18  1392.54  1399.58  1424.35
                             1441.23  1480.75  1503.92  1556.76  1596.31
                             1602.19  1617.58  1652.77  1682.49  1698.52
                             1736.79  1774.18  1795.67  1863.84  1941.84
                             1959.71  1974.86  2005.55  2063.84  2108.54
                             2121.72  2160.11  2171.17  2238.00  2284.63
                             2294.31  2313.22  2340.38  4545.48  4566.28
                             4587.02  4591.39  4599.60  4612.30  4912.49
                             5131.69

 Zero-point correction=                           0.196401 (Hartree/Particle)
 Thermal correction to Energy=                    0.212656
 Thermal correction to Enthalpy=                  0.213601
 Thermal correction to Gibbs Free Energy=         0.151379
 Sum of electronic and zero-point Energies=          -1367.748753
 Sum of electronic and thermal Energies=             -1367.732498
 Sum of electronic and thermal Enthalpies=           -1367.731554
 Sum of electronic and thermal Free Energies=        -1367.793775

                     E (Thermal)             CV                S
                      KCal/Mol        Cal/Mol-Kelvin    Cal/Mol-Kelvin
 Total                  133.444             65.009            130.955
 Electronic               0.000              0.000              1.377
 Translational            0.889              2.981             43.013
 Rotational               0.889              2.981             34.206
 Vibrational            131.666             59.047             52.359
 Vibration     1          0.594              1.984              5.802
 Vibration     2          0.594              1.982              5.347
 Vibration     3          0.600              1.962              3.869
 Vibration     4          0.602              1.955              3.630
 Vibration     5          0.613              1.921              2.908
 Vibration     6          0.614              1.915              2.823
 Vibration     7          0.627              1.874              2.385
 Vibration     8          0.635              1.849              2.197
 Vibration     9          0.649              1.806              1.932
 Vibration    10          0.660              1.770              1.762
 Vibration    11          0.674              1.729              1.598
 Vibration    12          0.695              1.666              1.395
 Vibration    13          0.726              1.578              1.173
 Vibration    14          0.733              1.558              1.128
 Vibration    15          0.759              1.490              0.997
 Vibration    16          0.767              1.467              0.958
 Vibration    17          0.794              1.399              0.850
 Vibration    18          0.796              1.392              0.840
 Vibration    19          0.800              1.382              0.825
 Vibration    20          0.829              1.311              0.731
 Vibration    21          0.844              1.276              0.688
 Vibration    22          0.851              1.260              0.669
 Vibration    23          0.874              1.209              0.613
 Vibration    24          0.891              1.170              0.573
 Vibration    25          0.895              1.162              0.566
 Vibration    26          0.931              1.086              0.495
 Vibration    27          0.937              1.074              0.485
 Vibration    28          0.964              1.021              0.441

                           ! Non-Optimized Parameters !
 Normal termination of Gaussian 16 at Sun Feb 11 01:23:12 2024.
