 Q-Chem 5.4, Q-Chem, Inc., Pleasanton, CA (2021)
 Q-Chem 5.4.0 for Intel X86 EM64T Linux

User input:
--------------------------------------------------------------
$molecule
0 1
O                  1.5152390000     -3.0271490000      0.0814600000
C                  1.3033730000     -1.8252150000      0.0436020000
C                  2.4168630000     -0.8482070000     -0.0072290000
C                  3.7398600000     -1.3009190000     -0.0115660000
C                  4.7851530000     -0.3869550000     -0.0592270000
C                  4.5129650000      0.9835660000     -0.1028330000
C                  3.1990920000      1.4373160000     -0.0986880000
C                  2.1405870000      0.5240620000     -0.0507530000
C                  0.7374630000      1.0506870000     -0.0476370000
O                  0.5700650000      2.2608490000     -0.0885850000
C                 -0.3950640000      0.0706920000      0.0036300000
C                 -1.7773950000      0.4909910000      0.0102350000
C                 -2.2084370000      1.8481510000     -0.0293330000
C                 -3.5465350000      2.1711030000     -0.0199380000
C                 -4.5403350000      1.1714600000      0.0290810000
C                 -4.1670360000     -0.1484160000      0.0682740000
C                 -2.7980230000     -0.5191590000      0.0601690000
C                 -2.4353430000     -1.8883940000      0.1014710000
C                 -1.1225280000     -2.2680610000      0.0948260000
C                 -0.0978470000     -1.2955820000      0.0461120000
H                  3.9222820000     -2.3677710000      0.0227870000
H                  5.8111910000     -0.7367940000     -0.0626130000
H                  5.3289110000      1.6964860000     -0.1400570000
H                  2.9694680000      2.4946230000     -0.1320580000
H                 -1.4687280000      2.6296370000     -0.0671460000
H                 -3.8387050000      3.2148550000     -0.0509210000
H                 -5.5889430000      1.4464150000      0.0356420000
H                 -4.9143800000     -0.9337310000      0.1063080000
H                 -3.2219080000     -2.6349020000      0.1387660000
H                 -0.8313090000     -3.3096380000      0.1262240000
$end

$rem
BASIS  =  6-311++G(d,p)
GUI  =  2
JOB_TYPE  =  SP
METHOD  =  B3LYP
SCF_CONVERGENCE  = 8
SOLVENT_METHOD = sm12
$end

$smx
solvent dimethylformamide
charges CM5
$end

--------------------------------------------------------------

             Standard Nuclear Orientation (Angstroms)
    I     Atom           X                Y                Z
 ----------------------------------------------------------------
    1      O       1.5152390000    -3.0271490000     0.0814600000
    2      C       1.3033730000    -1.8252150000     0.0436020000
    3      C       2.4168630000    -0.8482070000    -0.0072290000
    4      C       3.7398600000    -1.3009190000    -0.0115660000
    5      C       4.7851530000    -0.3869550000    -0.0592270000
    6      C       4.5129650000     0.9835660000    -0.1028330000
    7      C       3.1990920000     1.4373160000    -0.0986880000
    8      C       2.1405870000     0.5240620000    -0.0507530000
    9      C       0.7374630000     1.0506870000    -0.0476370000
   10      O       0.5700650000     2.2608490000    -0.0885850000
   11      C      -0.3950640000     0.0706920000     0.0036300000
   12      C      -1.7773950000     0.4909910000     0.0102350000
   13      C      -2.2084370000     1.8481510000    -0.0293330000
   14      C      -3.5465350000     2.1711030000    -0.0199380000
   15      C      -4.5403350000     1.1714600000     0.0290810000
   16      C      -4.1670360000    -0.1484160000     0.0682740000
   17      C      -2.7980230000    -0.5191590000     0.0601690000
   18      C      -2.4353430000    -1.8883940000     0.1014710000
   19      C      -1.1225280000    -2.2680610000     0.0948260000
   20      C      -0.0978470000    -1.2955820000     0.0461120000
   21      H       3.9222820000    -2.3677710000     0.0227870000
   22      H       5.8111910000    -0.7367940000    -0.0626130000
   23      H       5.3289110000     1.6964860000    -0.1400570000
   24      H       2.9694680000     2.4946230000    -0.1320580000
   25      H      -1.4687280000     2.6296370000    -0.0671460000
   26      H      -3.8387050000     3.2148550000    -0.0509210000
   27      H      -5.5889430000     1.4464150000     0.0356420000
   28      H      -4.9143800000    -0.9337310000     0.1063080000
   29      H      -3.2219080000    -2.6349020000     0.1387660000
   30      H      -0.8313090000    -3.3096380000     0.1262240000
 ----------------------------------------------------------------

   15    -842.6237754306      3.40e-09  Convergence criterion met
 Total energy in the final basis set =     -842.6479132037

                    Orbital Energies (a.u.)
 --------------------------------------------------------------

 Alpha MOs
 -- Occupied --
-19.1306 -19.1289 -10.2848 -10.2817 -10.2191 -10.2142 -10.2130 -10.2079
-10.2071 -10.2063 -10.2000 -10.1971 -10.1968 -10.1963 -10.1955 -10.1932
-10.1909 -10.1899 -10.1891 -10.1840  -1.0661  -1.0644  -0.9009  -0.8872
 -0.8515  -0.8123  -0.7876  -0.7769  -0.7674  -0.7454  -0.6928  -0.6654
 -0.6507  -0.6292  -0.6176  -0.5861  -0.5700  -0.5494  -0.5247  -0.5160
 -0.4998  -0.4903  -0.4766  -0.4644  -0.4595  -0.4577  -0.4518  -0.4499
 -0.4352  -0.4294  -0.4234  -0.4202  -0.4083  -0.3989  -0.3804  -0.3777
 -0.3694  -0.3644  -0.3586  -0.3458  -0.3080  -0.2853  -0.2841  -0.2771
 -0.2710  -0.2696  -0.2438

          Ground-State Mulliken Net Atomic Charges

     Atom                 Charge (a.u.)
  ----------------------------------------
      1 O                    -0.235501
      2 C                    -1.639991
      3 C                    -0.199299
      4 C                     0.173277
      5 C                     0.494147
      6 C                     0.411514
      7 C                     0.155615
      8 C                    -0.228678
      9 C                    -1.179770
     10 O                    -0.214333
     11 C                    -0.078194
     12 C                     0.096158
     13 C                    -0.896741
     14 C                    -0.173726
     15 C                     0.354452
     16 C                     0.197945
     17 C                     0.201887
     18 C                     0.297231
     19 C                     0.035251
     20 C                    -0.131260
     21 H                     0.194442
     22 H                     0.328458
     23 H                     0.328828
     24 H                     0.194947
     25 H                     0.115961
     26 H                     0.270799
     27 H                     0.318800
     28 H                     0.262617
     29 H                     0.332388
     30 H                     0.212774
  ----------------------------------------
  Sum of atomic charges =     0.000000

                    Cartesian Multipole Moments
 -----------------------------------------------------------------
    Charge (ESU x 10^10)
                 0.0000
    Dipole Moment (Debye)
         X      -0.6018      Y       0.4655      Z      -0.0040
       Tot       0.7608
    Quadrupole Moments (Debye-Ang)
        XX     -77.9253     XY       5.5502     YY    -119.3171
        XZ      -0.8163     YZ      -0.0698     ZZ    -119.1786

 Total job time:  765.95s(wall), 6009.67s(cpu)
        *  Thank you very much for using Q-Chem.  Have a nice day.  *
