 Gaussian 16, Revision A.03,
 Gaussian 16:  ES64L-G16RevA.03 25-Dec-2016

 ----------------------------------------------------------------
 #P UB3LYP/6-311++G(d,p) SCRF=(PCM,Solvent=n,n-DiMethylFormamide)
 ----------------------------------------------------------------

 ------------------
 Quinone PCM in DMF
 ------------------
 Symbolic Z-matrix:
 Charge =  0 Multiplicity = 1

                         Standard orientation:
 ---------------------------------------------------------------------
 Center     Atomic      Atomic             Coordinates (Angstroms)
 Number     Number       Type             X           Y           Z
 ---------------------------------------------------------------------
      1          6           0       -0.997092   -1.491582    0.000167
      2          6           0        0.237428   -0.668711    0.000223
      3          6           0        0.141089    0.675376    0.000146
      4          6           0       -1.211111    1.373409    0.000649
      5          6           0       -2.436445    0.553478   -0.000401
      6          6           0       -2.317279   -0.791014   -0.000197
      7          8           0       -0.996567   -2.709913    0.000293
      8          8           0       -1.265169    2.586984    0.001875
      9          8           0       -3.371464   -1.619451   -0.000442
     10          6           0       -3.752956    1.270097   -0.000672
     11         35           0        1.861543   -1.633106    0.000120
     12         35           0        1.634209    1.820022   -0.000438
     13          1           0       -3.838222    1.914817    0.878227
     14          1           0       -4.579445    0.561429   -0.005177
     15          1           0       -3.834127    1.921667   -0.874824
     16          1           0       -3.015711   -2.527235   -0.000372
 ---------------------------------------------------------------------

 SCF Done:  E(UB3LYP) =  -5643.23507761     A.U. after   16 cycles

 The electronic state is 1-A.
 Alpha  occ. eigenvalues -- -482.86057-482.85980 -62.51320 -62.51242 -56.33371
 Alpha  occ. eigenvalues --  -56.33300 -56.32987 -56.32927 -56.32899 -56.32853
 Alpha  occ. eigenvalues --  -19.18820 -19.16933 -19.15027 -10.31649 -10.30407
 Alpha  occ. eigenvalues --  -10.28148 -10.28046 -10.27802 -10.21762 -10.18053
 Alpha  occ. eigenvalues --   -8.72291  -8.72211  -6.55478  -6.55414  -6.54187
 Alpha  occ. eigenvalues --   -6.54076  -6.54011  -6.53943  -2.66570  -2.66499
 Alpha  occ. eigenvalues --   -2.66228  -2.66137  -2.66094  -2.66037  -2.65066
 Alpha  occ. eigenvalues --   -2.65062  -2.64971  -2.64970  -1.12336  -1.08658
 Alpha  occ. eigenvalues --   -1.08544  -0.90636  -0.84737  -0.82950  -0.77796
 Alpha  occ. eigenvalues --   -0.72881  -0.69622  -0.64248  -0.61589  -0.58481
 Alpha  occ. eigenvalues --   -0.54577  -0.50186  -0.49056  -0.48343  -0.46014
 Alpha  occ. eigenvalues --   -0.44845  -0.44439  -0.43754  -0.42941  -0.40571
 Alpha  occ. eigenvalues --   -0.40517  -0.39629  -0.37739  -0.33185  -0.33127
 Alpha  occ. eigenvalues --   -0.32282  -0.30924  -0.29430  -0.29313  -0.26437
 Alpha virt. eigenvalues --   -0.14811  -0.05461  -0.03483  -0.01446  -0.01052
 Alpha virt. eigenvalues --   -0.00559   0.00940   0.01112   0.03148   0.03407
 Alpha virt. eigenvalues --    0.03892   0.04398   0.04679   0.05689   0.06006

  Beta  occ. eigenvalues -- -482.86057-482.85980 -62.51320 -62.51242 -56.33371
  Beta  occ. eigenvalues --  -56.33300 -56.32987 -56.32927 -56.32899 -56.32853
  Beta  occ. eigenvalues --  -19.18820 -19.16933 -19.15027 -10.31649 -10.30407
  Beta  occ. eigenvalues --  -10.28148 -10.28046 -10.27802 -10.21762 -10.18053
  Beta  occ. eigenvalues --   -8.72291  -8.72211  -6.55478  -6.55414  -6.54187
  Beta  occ. eigenvalues --   -6.54076  -6.54011  -6.53943  -2.66570  -2.66499
  Beta  occ. eigenvalues --   -2.66228  -2.66137  -2.66094  -2.66037  -2.65066
  Beta  occ. eigenvalues --   -2.65062  -2.64971  -2.64970  -1.12336  -1.08658
  Beta  occ. eigenvalues --   -1.08544  -0.90636  -0.84737  -0.82950  -0.77796
  Beta  occ. eigenvalues --   -0.72881  -0.69622  -0.64248  -0.61589  -0.58481
  Beta  occ. eigenvalues --   -0.54577  -0.50186  -0.49056  -0.48343  -0.46014
  Beta  occ. eigenvalues --   -0.44845  -0.44439  -0.43754  -0.42941  -0.40571
  Beta  occ. eigenvalues --   -0.40517  -0.39629  -0.37739  -0.33185  -0.33127
  Beta  occ. eigenvalues --   -0.32282  -0.30924  -0.29430  -0.29313  -0.26437
  Beta virt. eigenvalues --   -0.14811  -0.05461  -0.03483  -0.01446  -0.01052
  Beta virt. eigenvalues --   -0.00559   0.00940   0.01112   0.03148   0.03407
  Beta virt. eigenvalues --    0.03892   0.04398   0.04679   0.05689   0.06006

 Mulliken charges and spin densities:
               1          2
     1  C   -0.330038  -0.000000
     2  C    0.605606  -0.000000
     3  C    0.636449   0.000000
     4  C   -1.732786   0.000000
     5  C    2.669460   0.000000
     6  C   -1.886711  -0.000000
     7  O   -0.240486  -0.000000
     8  O   -0.199417  -0.000000
     9  O   -0.223302   0.000000
    10  C   -0.149006   0.000000
    11  Br  -0.019673  -0.000000
    12  Br  -0.012280  -0.000000
    13  H    0.190351   0.000000
    14  H    0.190996   0.000000
    15  H    0.190010   0.000000
    16  H    0.310828   0.000000
 Sum of Mulliken charges =  -0.00000   0.00000

 Dipole moment (field-independent basis, Debye):
    X=             -0.8894    Y=             -1.2457    Z=             -0.0027  Tot=              1.5306
 Quadrupole moment (field-independent basis, Debye-Ang):
   XX=            -87.0943   YY=           -104.9831   ZZ=            -92.2951
   XY=              2.5751   XZ=              0.0018   YZ=             -0.0083

 Normal termination of Gaussian 16 at Sun Jan 28 16:45:35 2024.
