 Gaussian 16, Revision A.03,
 Gaussian 16:  ES64L-G16RevA.03 25-Dec-2016

 ----------------------------------------------------------------
 #P UB3LYP/6-311++G(d,p) SCRF=(PCM,Solvent=n,n-DiMethylFormamide)
 ----------------------------------------------------------------

 ------------------
 Radical PCM in DMF
 ------------------
 Symbolic Z-matrix:
 Charge = -1 Multiplicity = 2

                         Standard orientation:
 ---------------------------------------------------------------------
 Center     Atomic      Atomic             Coordinates (Angstroms)
 Number     Number       Type             X           Y           Z
 ---------------------------------------------------------------------
      1          6           0        5.156624   -0.583765    0.980678
      2          6           0        4.429584   -0.591490   -0.376273
      3          6           0        3.017043   -0.053160   -0.303897
      4          6           0        2.785962    1.345416   -0.251534
      5          6           0        1.504620    1.845396   -0.153431
      6          6           0        0.383394    0.988391   -0.101057
      7          6           0       -0.957533    1.564958    0.002672
      8          8           0       -1.147623    2.806269    0.051247
      9          6           0       -2.065450    0.607889    0.046416
     10          6           0       -3.389228    1.090094    0.146799
     11          6           0       -4.465410    0.226532    0.190929
     12          6           0       -4.250452   -1.168856    0.135420
     13          6           0       -2.965676   -1.663937    0.037049
     14          6           0       -1.848234   -0.800596   -0.009746
     15          6           0       -0.505650   -1.375163   -0.114709
     16          8           0       -0.314926   -2.617166   -0.164894
     17          6           0        0.600990   -0.418179   -0.156860
     18          6           0        1.925213   -0.900458   -0.258749
     19          1           0        4.622545   -1.202902    1.706897
     20          1           0        6.178293   -0.969457    0.886931
     21          1           0        5.212985    0.429200    1.389894
     22          1           0        5.012390    0.000173   -1.093999
     23          1           0        4.405566   -1.615446   -0.763404
     24          1           0        3.630833    2.028784   -0.296396
     25          1           0        1.316970    2.912594   -0.117914
     26          1           0       -3.523785    2.165018    0.187505
     27          1           0       -5.475859    0.617329    0.268235
     28          1           0       -5.096042   -1.849725    0.170009
     29          1           0       -2.771390   -2.729500   -0.007522
     30          1           0        2.053102   -1.977334   -0.303290
 ---------------------------------------------------------------------

 SCF Done:  E(UB3LYP) =  -767.746109409     A.U. after   18 cycles

 The electronic state is 2-A.
 Alpha  occ. eigenvalues --  -19.07472 -19.07430 -10.22276 -10.22173 -10.17780
 Alpha  occ. eigenvalues --  -10.17221 -10.17172 -10.17156 -10.17112 -10.17062
 Alpha  occ. eigenvalues --  -10.16940 -10.16936 -10.16924 -10.16910 -10.16894
 Alpha  occ. eigenvalues --  -10.16833 -10.16464 -10.15888  -1.00184  -0.99928
 Alpha  occ. eigenvalues --   -0.86129  -0.85146  -0.79636  -0.76622  -0.74989
 Alpha  occ. eigenvalues --   -0.74419  -0.72346  -0.66591  -0.64254  -0.62414
 Alpha  occ. eigenvalues --   -0.59570  -0.58370  -0.55441  -0.52955  -0.51570
 Alpha  occ. eigenvalues --   -0.47265  -0.46734  -0.45702  -0.45031  -0.43169
 Alpha  occ. eigenvalues --   -0.42420  -0.42175  -0.41930  -0.41526  -0.40980
 Alpha  occ. eigenvalues --   -0.40027  -0.39496  -0.37952  -0.37807  -0.36140
 Alpha  occ. eigenvalues --   -0.35833  -0.34882  -0.33858  -0.33493  -0.33176
 Alpha  occ. eigenvalues --   -0.32687  -0.26491  -0.25714  -0.25313  -0.24548
 Alpha  occ. eigenvalues --   -0.24236  -0.23586  -0.14007
 Alpha virt. eigenvalues --   -0.05225  -0.02041  -0.00427  -0.00211   0.00306
 Alpha virt. eigenvalues --    0.01192   0.01719   0.02051   0.02195   0.03665
 Alpha virt. eigenvalues --    0.04025   0.04335   0.04682   0.05193   0.05548

  Beta  occ. eigenvalues --  -19.06936 -19.06875 -10.22101 -10.21986 -10.17732
  Beta  occ. eigenvalues --  -10.17173 -10.17121 -10.17077 -10.17031 -10.16985
  Beta  occ. eigenvalues --  -10.16940 -10.16910 -10.16902 -10.16888 -10.16866
  Beta  occ. eigenvalues --  -10.16819 -10.16453 -10.15883  -0.99233  -0.98945
  Beta  occ. eigenvalues --   -0.85881  -0.85023  -0.79374  -0.76403  -0.74757
  Beta  occ. eigenvalues --   -0.74247  -0.72203  -0.65906  -0.64084  -0.62231
  Beta  occ. eigenvalues --   -0.59410  -0.58301  -0.55189  -0.52749  -0.51398
  Beta  occ. eigenvalues --   -0.47086  -0.46530  -0.45544  -0.44973  -0.43091
  Beta  occ. eigenvalues --   -0.42349  -0.41917  -0.41512  -0.40710  -0.40498
  Beta  occ. eigenvalues --   -0.39846  -0.39261  -0.37688  -0.36031  -0.35642
  Beta  occ. eigenvalues --   -0.35450  -0.34817  -0.33789  -0.33385  -0.32590
  Beta  occ. eigenvalues --   -0.32064  -0.25310  -0.24527  -0.24409  -0.24046
  Beta  occ. eigenvalues --   -0.23644  -0.23083
  Beta virt. eigenvalues --   -0.08131  -0.04289  -0.01096  -0.00340  -0.00026
  Beta virt. eigenvalues --    0.00348   0.01200   0.01732   0.02086   0.02191
  Beta virt. eigenvalues --    0.03688   0.04032   0.04354   0.04856   0.05519

 Mulliken charges and spin densities:
               1          2
     1  C   -0.652111  -0.001081
     2  C   -0.139414  -0.000541
     3  C    0.654788   0.033614
     4  C   -0.490200   0.037331
     5  C    0.041118   0.025083
     6  C    0.177523   0.027176
     7  C   -0.670701   0.098319
     8  O   -0.460641   0.198864
     9  C    0.154261   0.036715
    10  C    0.097340   0.025249
    11  C   -0.464988   0.042137
    12  C   -0.463109   0.035214
    13  C    0.052784   0.029164
    14  C    0.358360   0.036361
    15  C   -0.605480   0.107108
    16  O   -0.459084   0.206830
    17  C    0.235422   0.049449
    18  C   -0.309987   0.026299
    19  H    0.141700   0.000819
    20  H    0.142181   0.000216
    21  H    0.143855  -0.000473
    22  H    0.150980   0.001988
    23  H    0.170270  -0.000046
    24  H    0.185995  -0.002939
    25  H    0.167430  -0.001396
    26  H    0.164021  -0.001264
    27  H    0.180466  -0.003416
    28  H    0.181515  -0.003017
    29  H    0.161150  -0.001667
    30  H    0.154555  -0.002096
 Sum of Mulliken charges =  -1.00000   1.00000

 Dipole moment (field-independent basis, Debye):
    X=              4.2450    Y=             -0.5203    Z=              0.2575  Tot=              4.2845
 Quadrupole moment (field-independent basis, Debye-Ang):
   XX=           -104.3040   YY=           -141.6143   ZZ=           -113.3088
   XY=              5.9194   XZ=             -0.8915   YZ=             -1.2608

 Normal termination of Gaussian 16 at Sun Jan 14 01:18:22 2024.
