 Gaussian 16, Revision A.03,
 Gaussian 16:  ES64L-G16RevA.03 25-Dec-2016

 --------------------------------------
 #P UB3LYP/6-311++G(d,p) nosym opt freq
 --------------------------------------

 -------
 Radical
 -------
 Symbolic Z-matrix:
 Charge = -1 Multiplicity = 2

 SCF Done:  E(UB3LYP) =  -1080.05950469     A.U. after   24 cycles
 Optimization completed.
    -- Stationary point found.
 Normal termination of Gaussian 16 at Mon Jan  8 21:57:12 2024.

 ----------------------------------------------------------------------
 #P Geom=AllCheck Guess=TCheck SCRF=Check GenChk UB3LYP/6-311++G(d,p) F
 req
 ----------------------------------------------------------------------

 Structure from the checkpoint file:  "296-rad.chk"
 -------
 Radical
 -------
 Charge = -1 Multiplicity = 2

                          Input orientation:
 ---------------------------------------------------------------------
 Center     Atomic      Atomic             Coordinates (Angstroms)
 Number     Number       Type             X           Y           Z
 ---------------------------------------------------------------------
      1          6           0       -1.621540    3.389464   -0.336454
      2          6           0       -2.619365    3.437275    0.619025
      3          6           0       -2.626137    2.507883    1.678779
      4          6           0       -0.600785    2.416602   -0.266886
      5          6           0       -0.605264    1.477050    0.802133
      6          6           0       -1.631315    1.547092    1.760871
      7          6           0        0.444393    2.365038   -1.264809
      8          6           0        1.446856    1.335900   -1.109232
      9          6           0        1.476732    0.405677   -0.088550
     10          6           0        0.438761    0.436589    0.926144
     11          8           0        0.547066    3.153425   -2.261788
     12          8           0        0.410327   -0.380826    1.882829
     13          8           0        2.392778    1.363460   -2.094646
     14          6           0        2.556598   -0.649178    0.026826
     15          6           0        2.568650   -1.644954   -1.167764
     16          6           0        3.972193   -0.074382    0.231299
     17          6           0        4.975435   -1.185391    0.614622
     18          6           0        4.678445   -2.557383   -0.055529
     19          6           0        3.948060   -2.305535   -1.386550
     20          6           0        5.954954   -3.426012   -0.187609
     21          6           0        5.683230   -4.814645   -0.803072
     22          6           0        6.673798   -3.606323    1.166622
     23          6           0        7.944186   -4.462801    1.061892
     24          6           0        7.656663   -5.833268    0.437373
     25          6           0        6.949900   -5.676968   -0.914292
     26          1           0       -1.594197    4.092973   -1.160919
     27          1           0       -3.398869    4.190957    0.554012
     28          1           0       -3.410226    2.545962    2.429120
     29          1           0       -1.612048    0.820319    2.564921
     30          1           0        2.086442    2.120717   -2.644059
     31          1           0        2.303346   -1.208221    0.932114
     32          1           0        2.274608   -1.129881   -2.084387
     33          1           0        1.815929   -2.419185   -0.980455
     34          1           0        3.950878    0.686440    1.017185
     35          1           0        4.291232    0.434130   -0.682351
     36          1           0        4.978812   -1.309054    1.702435
     37          1           0        5.988295   -0.862808    0.337330
     38          1           0        3.984882   -3.109597    0.595690
     39          1           0        3.811079   -3.232417   -1.950198
     40          1           0        4.575845   -1.656821   -2.011535
     41          1           0        6.645244   -2.892563   -0.861489
     42          1           0        5.233357   -4.711815   -1.793270
     43          1           0        4.943872   -5.336959   -0.179390
     44          1           0        5.976251   -4.080463    1.871822
     45          1           0        6.927373   -2.632954    1.593066
     46          1           0        8.397318   -4.583547    2.052717
     47          1           0        8.684271   -3.935333    0.444785
     48          1           0        7.014451   -6.411080    1.115657
     49          1           0        8.584423   -6.405764    0.321623
     50          1           0        6.697534   -6.660365   -1.327707
     51          1           0        7.641365   -5.209069   -1.628195
 ---------------------------------------------------------------------

 SCF Done:  E(UB3LYP) =  -1080.05950469     A.U. after    1 cycles

 Alpha  occ. eigenvalues --  -19.01925 -18.95744 -18.94464 -10.10031 -10.09863
 Alpha  occ. eigenvalues --  -10.09808 -10.09763 -10.09701 -10.09326 -10.09189
 Alpha  occ. eigenvalues --  -10.08916 -10.08837 -10.07909 -10.06686 -10.06497
 Alpha  occ. eigenvalues --  -10.05945 -10.05758 -10.05339 -10.05226 -10.05141
 Alpha  occ. eigenvalues --  -10.05135 -10.05079 -10.05055 -10.05019 -10.03959
 Alpha  occ. eigenvalues --   -0.93906  -0.87031  -0.86695  -0.76666  -0.73866
 Alpha  occ. eigenvalues --   -0.73117  -0.69216  -0.67240  -0.67112  -0.63668
 Alpha  occ. eigenvalues --   -0.63416  -0.63143  -0.60098  -0.55458  -0.54271
 Alpha  occ. eigenvalues --   -0.53665  -0.50736  -0.50423  -0.49695  -0.48256
 Alpha  occ. eigenvalues --   -0.47517  -0.44900  -0.43058  -0.41184  -0.40938
 Alpha  occ. eigenvalues --   -0.38884  -0.38646  -0.37339  -0.36831  -0.35929
 Alpha  occ. eigenvalues --   -0.35519  -0.34256  -0.33891  -0.33098  -0.32334
 Alpha  occ. eigenvalues --   -0.31402  -0.31069  -0.30727  -0.30529  -0.30000
 Alpha  occ. eigenvalues --   -0.28849  -0.28082  -0.27839  -0.27564  -0.27017
 Alpha  occ. eigenvalues --   -0.26824  -0.26470  -0.26243  -0.26156  -0.24963
 Alpha  occ. eigenvalues --   -0.24780  -0.24253  -0.24046  -0.23563  -0.22763
 Alpha  occ. eigenvalues --   -0.22457  -0.21813  -0.21702  -0.19636  -0.19425
 Alpha  occ. eigenvalues --   -0.18616  -0.14383  -0.13709  -0.13166  -0.10927
 Alpha  occ. eigenvalues --   -0.10562  -0.02410
 Alpha virt. eigenvalues --    0.04821   0.06343   0.06594   0.07396   0.08194
 Alpha virt. eigenvalues --    0.08721   0.09156   0.09252   0.09510   0.09583
 Alpha virt. eigenvalues --    0.09785   0.10142   0.10895   0.11167   0.11869

  Beta  occ. eigenvalues --  -19.01883 -18.95080 -18.93890 -10.10031 -10.09863
  Beta  occ. eigenvalues --  -10.09808 -10.09670 -10.09607 -10.09189 -10.09061
  Beta  occ. eigenvalues --  -10.08916 -10.08837 -10.07909 -10.06686 -10.06497
  Beta  occ. eigenvalues --  -10.05943 -10.05659 -10.05298 -10.05196 -10.05183
  Beta  occ. eigenvalues --  -10.05128 -10.05084 -10.05050 -10.04890 -10.03873
  Beta  occ. eigenvalues --   -0.93707  -0.86052  -0.85577  -0.76666  -0.73641
  Beta  occ. eigenvalues --   -0.73100  -0.69058  -0.67240  -0.66845  -0.63527
  Beta  occ. eigenvalues --   -0.63399  -0.62956  -0.59969  -0.54960  -0.54266
  Beta  occ. eigenvalues --   -0.53266  -0.50694  -0.50359  -0.49544  -0.48223
  Beta  occ. eigenvalues --   -0.47339  -0.44674  -0.42967  -0.41105  -0.40898
  Beta  occ. eigenvalues --   -0.38870  -0.38462  -0.37317  -0.36824  -0.35789
  Beta  occ. eigenvalues --   -0.35333  -0.34224  -0.33778  -0.33074  -0.32239
  Beta  occ. eigenvalues --   -0.31195  -0.31051  -0.30676  -0.29996  -0.29574
  Beta  occ. eigenvalues --   -0.28519  -0.27864  -0.27673  -0.27525  -0.26973
  Beta  occ. eigenvalues --   -0.26605  -0.26167  -0.25927  -0.25749  -0.24824
  Beta  occ. eigenvalues --   -0.24612  -0.24182  -0.23670  -0.23032  -0.22402
  Beta  occ. eigenvalues --   -0.21903  -0.21636  -0.20160  -0.19549  -0.19312
  Beta  occ. eigenvalues --   -0.18572  -0.13038  -0.12571  -0.12320  -0.10390
  Beta  occ. eigenvalues --   -0.09489
  Beta virt. eigenvalues --    0.04160   0.04821   0.06343   0.06594   0.07396
  Beta virt. eigenvalues --    0.08187   0.09156   0.09252   0.09351   0.09512
  Beta virt. eigenvalues --    0.09589   0.09789   0.10136   0.11176   0.11762

 Mulliken charges and spin densities:
               1          2
     1  C    0.001575   0.069680
     2  C   -0.341198   0.003466
     3  C   -0.459425   0.078848
     4  C    0.581769   0.012952
     5  C    0.364066   0.068967
     6  C   -0.014112  -0.013261
     7  C   -0.795937   0.155490
     8  C   -0.330539   0.046896
     9  C    0.732333   0.069103
    10  C   -0.653953   0.052286
    11  O   -0.444045   0.244855
    12  O   -0.361116   0.214312
    13  O   -0.234391   0.015266
    14  C    0.886128   0.005276
    15  C   -0.916009  -0.012430
    16  C   -1.232437  -0.003918
    17  C   -0.288489   0.001173
    18  C    0.507341  -0.000144
    19  C   -0.594005   0.006013
    20  C    0.164077   0.000018
    21  C   -0.308900  -0.000127
    22  C   -0.236069  -0.000126
    23  C   -0.352287  -0.000234
    24  C   -0.387584   0.000013
    25  C   -0.465207   0.000137
    26  H    0.155348  -0.003755
    27  H    0.120501  -0.000557
    28  H    0.125336  -0.006144
    29  H    0.163874   0.000418
    30  H    0.273153  -0.004742
    31  H    0.278081  -0.002901
    32  H    0.196545   0.002039
    33  H    0.169760  -0.000781
    34  H    0.187838  -0.000361
    35  H    0.187440   0.002784
    36  H    0.128365   0.000001
    37  H    0.143109  -0.000018
    38  H    0.157205   0.000061
    39  H    0.107809  -0.000071
    40  H    0.167407  -0.000129
    41  H    0.148483  -0.000022
    42  H    0.134055  -0.000283
    43  H    0.161239  -0.000015
    44  H    0.163938  -0.000006
    45  H    0.162284  -0.000021
    46  H    0.159154   0.000025
    47  H    0.131782  -0.000032
    48  H    0.114400  -0.000001
    49  H    0.157536   0.000001
    50  H    0.158621  -0.000005
    51  H    0.125147   0.000005
 Sum of Mulliken charges =  -1.00000   1.00000

 Dipole moment (field-independent basis, Debye):
    X=             -3.7165    Y=             -5.0273    Z=              0.5196  Tot=              6.2734
 Quadrupole moment (field-independent basis, Debye-Ang):
   XX=           -181.6310   YY=           -187.7737   ZZ=           -175.5676
   XY=             10.6786   XZ=              2.9511   YZ=             11.5902

  Exact polarizability: 329.666 -93.692 298.079 -32.817 -23.474 260.220
 Approx polarizability: 440.628 -64.600 429.290 -67.468 -80.025 457.213

                      1                      2                      3
                      A                      A                      A
 Frequencies --     17.7141                30.6800                35.4606
 Red. masses --      4.3020                 3.8599                 5.0528
 Frc consts  --      0.0008                 0.0021                 0.0037
 IR Inten    --      0.1123                 0.3903                 0.7042

                      4                      5                      6
                      A                      A                      A
 Frequencies --     60.7729                77.8169                90.8510
 Red. masses --      2.9996                 3.6558                 6.2572
 Frc consts  --      0.0065                 0.0130                 0.0304
 IR Inten    --      0.2552                 1.4019                 3.8640

                      7                      8                      9
                      A                      A                      A
 Frequencies --    117.5382               134.4888               148.3770
 Red. masses --      4.6591                 3.9742                 4.9947
 Frc consts  --      0.0379                 0.0424                 0.0648
 IR Inten    --      0.1447                 2.1788                 0.1971

                     10                     11                     12
                      A                      A                      A
 Frequencies --    157.5377               173.2442               194.5813
 Red. masses --      3.3741                 6.0102                 2.1705
 Frc consts  --      0.0493                 0.1063                 0.0484
 IR Inten    --      0.8398                 1.1536                 0.3890

                     13                     14                     15
                      A                      A                      A
 Frequencies --    212.9330               215.6311               230.7359
 Red. masses --      3.1062                 2.8281                 1.8934
 Frc consts  --      0.0830                 0.0775                 0.0594
 IR Inten    --      0.9398                 1.2290                 0.0687

                     16                     17                     18
                      A                      A                      A
 Frequencies --    268.2631               305.9568               324.1749
 Red. masses --      5.7056                 2.1234                 3.5167
 Frc consts  --      0.2419                 0.1171                 0.2177
 IR Inten    --      0.5592                 0.3783                 1.4722

                     19                     20                     21
                      A                      A                      A
 Frequencies --    349.3132               359.7411               379.1058
 Red. masses --      4.5794                 5.2755                 3.2358
 Frc consts  --      0.3292                 0.4022                 0.2740
 IR Inten    --      0.1233                12.7919                 0.4167

                     22                     23                     24
                      A                      A                      A
 Frequencies --    381.6420               393.2348               423.9968
 Red. masses --      9.6493                 1.9676                 6.3195
 Frc consts  --      0.8281                 0.1793                 0.6694
 IR Inten    --     12.2124                 0.3618                 1.8291

                     25                     26                     27
                      A                      A                      A
 Frequencies --    433.7584               441.3864               448.4457
 Red. masses --      4.8515                 3.3165                 2.7407
 Frc consts  --      0.5378                 0.3807                 0.3247
 IR Inten    --      0.3738                 0.1498                 0.6033

                     28                     29                     30
                      A                      A                      A
 Frequencies --    466.4076               472.3806               485.1801
 Red. masses --      3.4257                 3.4889                 3.4557
 Frc consts  --      0.4391                 0.4587                 0.4793
 IR Inten    --      2.9699                 2.0866                 1.0325

                     31                     32                     33
                      A                      A                      A
 Frequencies --    505.7171               507.2714               550.7127
 Red. masses --      3.2903                 2.6463                 5.1415
 Frc consts  --      0.4958                 0.4012                 0.9187
 IR Inten    --      0.7214                 0.4943                 0.4262

                     34                     35                     36
                      A                      A                      A
 Frequencies --    572.8480               604.9904               662.8844
 Red. masses --      5.2288                 2.4739                 5.3275
 Frc consts  --      1.0110                 0.5335                 1.3793
 IR Inten    --      0.8937                 2.2104                14.0436

                     37                     38                     39
                      A                      A                      A
 Frequencies --    683.8071               703.6634               708.6583
 Red. masses --      2.9779                 2.9067                 6.1236
 Frc consts  --      0.8204                 0.8480                 1.8119
 IR Inten    --      7.0615                27.0089                 2.8598

                     40                     41                     42
                      A                      A                      A
 Frequencies --    724.9401               752.7505               764.9388
 Red. masses --      5.5702                 1.1486                 2.1647
 Frc consts  --      1.7247                 0.3835                 0.7463
 IR Inten    --      0.7069               114.1739                 1.6016

                     43                     44                     45
                      A                      A                      A
 Frequencies --    781.8511               782.6110               788.4107
 Red. masses --      2.6473                 2.0383                 2.6863
 Frc consts  --      0.9535                 0.7355                 0.9838
 IR Inten    --      3.8150                 3.7087                 8.3279

                     46                     47                     48
                      A                      A                      A
 Frequencies --    791.9936               811.9987               851.2225
 Red. masses --      1.5163                 2.5716                 1.8853
 Frc consts  --      0.5604                 0.9990                 0.8048
 IR Inten    --      0.2211                11.8530                 2.2466

                     49                     50                     51
                      A                      A                      A
 Frequencies --    864.0724               866.7691               881.4272
 Red. masses --      1.4074                 2.5600                 2.3313
 Frc consts  --      0.6191                 1.1332                 1.0671
 IR Inten    --      0.0670                 9.2950                 7.5236

                     52                     53                     54
                      A                      A                      A
 Frequencies --    897.3912               915.8042               923.1201
 Red. masses --      1.9427                 1.8569                 1.8810
 Frc consts  --      0.9218                 0.9176                 0.9444
 IR Inten    --      4.3936                 4.4281                 4.0489

                     55                     56                     57
                      A                      A                      A
 Frequencies --    926.5889               932.5176               955.1058
 Red. masses --      1.8991                 1.9125                 2.4114
 Frc consts  --      0.9607                 0.9798                 1.2961
 IR Inten    --      7.9856                 3.9500                 3.8704

                     58                     59                     60
                      A                      A                      A
 Frequencies --    967.0080               970.3808               979.7646
 Red. masses --      4.2844                 1.3177                 1.2935
 Frc consts  --      2.3605                 0.7311                 0.7316
 IR Inten    --     10.5736                 1.3653                 0.9024

                     61                     62                     63
                      A                      A                      A
 Frequencies --    984.9789              1032.8819              1040.0245
 Red. masses --      2.4155                 2.3290                 1.9159
 Frc consts  --      1.3807                 1.4639                 1.2210
 IR Inten    --      5.8078                24.3950                 6.0402

                     64                     65                     66
                      A                      A                      A
 Frequencies --   1044.2059              1056.3298              1083.3598
 Red. masses --      1.9876                 1.6936                 2.1453
 Frc consts  --      1.2769                 1.1134                 1.4835
 IR Inten    --      0.4291                 0.3935                 1.5614

                     67                     68                     69
                      A                      A                      A
 Frequencies --   1088.4538              1089.8493              1096.2752
 Red. masses --      2.0041                 3.4689                 2.0402
 Frc consts  --      1.3989                 2.4276                 1.4446
 IR Inten    --      1.3331                39.4769                 0.1364

                     70                     71                     72
                      A                      A                      A
 Frequencies --   1105.8132              1108.8273              1115.5098
 Red. masses --      2.1302                 2.5443                 2.2359
 Frc consts  --      1.5347                 1.8431                 1.6393
 IR Inten    --      1.4356                12.3508                12.2383

                     73                     74                     75
                      A                      A                      A
 Frequencies --   1121.1772              1131.9547              1149.9053
 Red. masses --      2.1532                 1.0465                 1.4104
 Frc consts  --      1.5947                 0.7900                 1.0988
 IR Inten    --      1.8755                 0.1913                 5.1900

                     76                     77                     78
                      A                      A                      A
 Frequencies --   1157.4476              1177.1511              1204.0225
 Red. masses --      2.1190                 2.9311                 1.9053
 Frc consts  --      1.6726                 2.3931                 1.6273
 IR Inten    --      4.2810                 4.0675                16.0884

                     79                     80                     81
                      A                      A                      A
 Frequencies --   1206.3644              1225.3173              1239.8219
 Red. masses --      1.6442                 1.5445                 2.6753
 Frc consts  --      1.4098                 1.3663                 2.4229
 IR Inten    --      8.7888                14.8505                 4.9488

                     82                     83                     84
                      A                      A                      A
 Frequencies --   1257.4611              1262.6953              1271.6653
 Red. masses --      1.3288                 1.2421                 1.7612
 Frc consts  --      1.2379                 1.1668                 1.6781
 IR Inten    --      2.0209                 7.6704                56.4903

                     85                     86                     87
                      A                      A                      A
 Frequencies --   1286.4877              1288.6620              1290.6616
 Red. masses --      1.4919                 1.2458                 1.2389
 Frc consts  --      1.4548                 1.2189                 1.2159
 IR Inten    --      3.0145                 4.6067                 5.1052

                     88                     89                     90
                      A                      A                      A
 Frequencies --   1310.0256              1325.7249              1332.6361
 Red. masses --      1.3449                 1.3534                 1.3756
 Frc consts  --      1.3599                 1.4015                 1.4393
 IR Inten    --      8.1524                 3.4313                 1.3386

                     91                     92                     93
                      A                      A                      A
 Frequencies --   1337.3951              1343.1753              1346.1501
 Red. masses --      1.4109                 1.2548                 1.3200
 Frc consts  --      1.4869                 1.3338                 1.4093
 IR Inten    --      1.0627                 8.7248                 4.6404

                     94                     95                     96
                      A                      A                      A
 Frequencies --   1350.7064              1355.9444              1361.2157
 Red. masses --      2.5213                 2.6232                 1.3455
 Frc consts  --      2.7101                 2.8416                 1.4689
 IR Inten    --     14.2314                65.6801                 6.5825

                     97                     98                     99
                      A                      A                      A
 Frequencies --   1366.0472              1368.8363              1375.4223
 Red. masses --      1.3483                 1.4277                 1.4974
 Frc consts  --      1.4824                 1.5761                 1.6690
 IR Inten    --      1.9000                 2.3387                 1.8220

                    100                    101                    102
                      A                      A                      A
 Frequencies --   1376.3530              1381.2361              1389.5174
 Red. masses --      1.5306                 1.4697                 1.4755
 Frc consts  --      1.7084                 1.6521                 1.6785
 IR Inten    --      2.0765                21.6792                11.4789

                    103                    104                    105
                      A                      A                      A
 Frequencies --   1394.6696              1401.1660              1438.2654
 Red. masses --      1.2599                 1.4524                 2.3440
 Frc consts  --      1.4439                 1.6800                 2.8568
 IR Inten    --      8.6537                 0.7791               329.5604

                    106                    107                    108
                      A                      A                      A
 Frequencies --   1465.3283              1481.9679              1483.3822
 Red. masses --      2.6623                 3.3123                 1.0886
 Frc consts  --      3.3680                 4.2860                 1.4113
 IR Inten    --     19.5663                70.0015                 0.2461

                    109                    110                    111
                      A                      A                      A
 Frequencies --   1485.7577              1487.2570              1489.0908
 Red. masses --      1.0925                 1.0954                 1.0836
 Frc consts  --      1.4210                 1.4276                 1.4156
 IR Inten    --      2.7926                 3.7199                 0.2014

                    112                    113                    114
                      A                      A                      A
 Frequencies --   1490.6407              1493.0275              1499.0404
 Red. masses --      1.1006                 1.0838                 1.0975
 Frc consts  --      1.4409                 1.4234                 1.4531
 IR Inten    --      4.2470                11.9933                 2.3408

                    115                    116                    117
                      A                      A                      A
 Frequencies --   1506.6091              1517.8576              1524.6302
 Red. masses --      1.0985                 1.1054                 5.7241
 Frc consts  --      1.4690                 1.5005                 7.8394
 IR Inten    --      0.8532                 4.1500               438.7962

                    118                    119                    120
                      A                      A                      A
 Frequencies --   1538.7942              1576.9640              1621.1073
 Red. masses --      5.9080                 5.0370                 5.7093
 Frc consts  --      8.2424                 7.3802                 8.8401
 IR Inten    --     13.9625                39.5777                16.9105

                    121                    122                    123
                      A                      A                      A
 Frequencies --   1634.6901              2948.9117              2969.8980
 Red. masses --      6.1510                 1.0795                 1.0818
 Frc consts  --      9.6843                 5.5307                 5.6220
 IR Inten    --      4.5966                 6.2394                 5.4966

                    124                    125                    126
                      A                      A                      A
 Frequencies --   2983.6198              2986.1161              2988.7080
 Red. masses --      1.0719                 1.0670                 1.0729
 Frc consts  --      5.6219                 5.6056                 5.6463
 IR Inten    --     22.7001                59.1493                 8.1038

                    127                    128                    129
                      A                      A                      A
 Frequencies --   2991.3550              2992.6349              2995.6619
 Red. masses --      1.0628                 1.0623                 1.0669
 Frc consts  --      5.6034                 5.6052                 5.6409
 IR Inten    --     19.1939                16.1293                50.1044

                    130                    131                    132
                      A                      A                      A
 Frequencies --   3001.1725              3013.9159              3029.4917
 Red. masses --      1.0703                 1.0694                 1.0919
 Frc consts  --      5.6799                 5.7236                 5.9042
 IR Inten    --     82.5183                39.2250               112.9855

                    133                    134                    135
                      A                      A                      A
 Frequencies --   3029.5733              3034.2963              3035.0500
 Red. masses --      1.0971                 1.0927                 1.0681
 Frc consts  --      5.9328                 5.9275                 5.7968
 IR Inten    --     70.8727                17.0632                23.7705

                    136                    137                    138
                      A                      A                      A
 Frequencies --   3038.2394              3042.7457              3051.7952
 Red. masses --      1.1020                 1.0808                 1.0922
 Frc consts  --      5.9933                 5.8955                 5.9934
 IR Inten    --    113.6359                36.1107                56.8855

                    139                    140                    141
                      A                      A                      A
 Frequencies --   3071.1241              3074.3954              3075.9214
 Red. masses --      1.0909                 1.0898                 1.0998
 Frc consts  --      6.0619                 6.0690                 6.1306
 IR Inten    --     46.5852                58.8558                12.3276

                    142                    143                    144
                      A                      A                      A
 Frequencies --   3083.9263              3133.6493              3152.9062
 Red. masses --      1.0962                 1.0846                 1.0910
 Frc consts  --      6.1426                 6.2752                 6.3899
 IR Inten    --     30.6121                15.6866                50.9474

                    145                    146                    147
                      A                      A                      A
 Frequencies --   3180.0656              3183.7585              3454.7131
 Red. masses --      1.0918                 1.0926                 1.0634
 Frc consts  --      6.5053                 6.5251                 7.4780
 IR Inten    --     15.8825                25.0112               132.1318

 - Thermochemistry -
 -------------------
 Temperature   298.150 Kelvin.  Pressure   1.00000 Atm.
 Atom     1 has atomic number  6 and mass  12.00000

 Molecular mass:   338.18819 amu.
 Principal axes and moments of inertia in atomic units:
                           1         2         3
     Eigenvalues --  2739.19846********************
           X            0.74634  -0.30695   0.59056
           Y           -0.66551  -0.35532   0.65639
           Z           -0.00836   0.88291   0.46947
 This molecule is an asymmetric top.
 Rotational symmetry number  1.
 Warning -- assumption of classical behavior for rotation
           may cause significant error
 Rotational temperatures (Kelvin)      0.03162     0.00391     0.00368
 Rotational constants (GHZ):           0.65886     0.08145     0.07662
 Zero-point vibrational energy    1142279.1 (Joules/Mol)
                                  273.01126 (Kcal/Mol)
 Warning -- explicit consideration of  35 degrees of freedom as
           vibrations may cause significant error
 Vibrational temperatures:     25.49    44.14    51.02    87.44   111.96
          (Kelvin)            130.71   169.11   193.50   213.48   226.66
                              249.26   279.96   306.36   310.25   331.98
                              385.97   440.20   466.42   502.58   517.59
                              545.45   549.10   565.78   610.04   624.08
                              635.06   645.21   671.06   679.65   698.07
                              727.61   729.85   792.35   824.20   870.45
                              953.74   983.85  1012.41  1019.60  1043.03
                             1083.04  1100.58  1124.91  1126.00  1134.35
                             1139.50  1168.28  1224.72  1243.21  1247.09
                             1268.18  1291.15  1317.64  1328.16  1333.15
                             1341.68  1374.18  1391.31  1396.16  1409.66
                             1417.16  1486.09  1496.36  1502.38  1519.82
                             1558.71  1566.04  1568.05  1577.30  1591.02
                             1595.36  1604.97  1613.12  1628.63  1654.46
                             1665.31  1693.66  1732.32  1735.69  1762.96
                             1783.83  1809.21  1816.74  1829.64  1850.97
                             1854.10  1856.97  1884.83  1907.42  1917.37
                             1924.21  1932.53  1936.81  1943.37  1950.90
                             1958.49  1965.44  1969.45  1978.93  1980.27
                             1987.29  1999.21  2006.62  2015.97  2069.34
                             2108.28  2132.22  2134.26  2137.67  2139.83
                             2142.47  2144.70  2148.13  2156.78  2167.67
                             2183.86  2193.60  2213.98  2268.90  2332.41
                             2351.95  4242.83  4273.02  4292.76  4296.35
                             4300.08  4303.89  4305.73  4310.09  4318.02
                             4336.35  4358.76  4358.88  4365.68  4366.76
                             4371.35  4377.83  4390.85  4418.66  4423.37
                             4425.56  4437.08  4508.62  4536.33  4575.41
                             4580.72  4970.56

 Zero-point correction=                           0.435071 (Hartree/Particle)
 Thermal correction to Energy=                    0.456682
 Thermal correction to Enthalpy=                  0.457626
 Thermal correction to Gibbs Free Energy=         0.383013
 Sum of electronic and zero-point Energies=          -1079.624434
 Sum of electronic and thermal Energies=             -1079.602822
 Sum of electronic and thermal Enthalpies=           -1079.601878
 Sum of electronic and thermal Free Energies=        -1079.676491

                     E (Thermal)             CV                S
                      KCal/Mol        Cal/Mol-Kelvin    Cal/Mol-Kelvin
 Total                  286.572             87.584            157.037
 Electronic               0.000              0.000              1.377
 Translational            0.889              2.981             43.350
 Rotational               0.889              2.981             35.612
 Vibrational            284.795             81.623             76.697
 Vibration     1          0.593              1.986              6.875
 Vibration     2          0.594              1.984              5.785
 Vibration     3          0.594              1.982              5.498
 Vibration     4          0.597              1.973              4.432
 Vibration     5          0.599              1.964              3.945
 Vibration     6          0.602              1.956              3.642
 Vibration     7          0.608              1.935              3.140
 Vibration     8          0.613              1.919              2.881
 Vibration     9          0.618              1.904              2.693
 Vibration    10          0.621              1.894              2.579
 Vibration    11          0.627              1.875              2.400
 Vibration    12          0.635              1.847              2.184
 Vibration    13          0.644              1.821              2.018
 Vibration    14          0.645              1.817              1.995
 Vibration    15          0.652              1.794              1.873
 Vibration    16          0.673              1.731              1.607
 Vibration    17          0.696              1.662              1.384
 Vibration    18          0.709              1.627              1.289
 Vibration    19          0.727              1.577              1.169
 Vibration    20          0.734              1.555              1.123
 Vibration    21          0.749              1.515              1.043
 Vibration    22          0.751              1.509              1.033
 Vibration    23          0.760              1.485              0.988
 Vibration    24          0.786              1.418              0.878
 Vibration    25          0.794              1.397              0.846
 Vibration    26          0.801              1.380              0.822
 Vibration    27          0.807              1.364              0.800
 Vibration    28          0.824              1.325              0.748
 Vibration    29          0.829              1.311              0.731
 Vibration    30          0.841              1.283              0.696
 Vibration    31          0.861              1.237              0.644
 Vibration    32          0.862              1.234              0.640
 Vibration    33          0.906              1.138              0.543
 Vibration    34          0.929              1.090              0.499
 Vibration    35          0.964              1.021              0.441

                           ! Non-Optimized Parameters !
 Normal termination of Gaussian 16 at Tue Jan  9 06:01:43 2024.
