 Q-Chem 5.4, Q-Chem, Inc., Pleasanton, CA (2021)
 Q-Chem 5.4.0 for Intel X86 EM64T Linux

User input:
--------------------------------------------------------------
$molecule
-1 2
C                 -1.6215400000      3.3894640000     -0.3364540000
C                 -2.6193650000      3.4372750000      0.6190250000
C                 -2.6261370000      2.5078830000      1.6787790000
C                 -0.6007850000      2.4166020000     -0.2668860000
C                 -0.6052640000      1.4770500000      0.8021330000
C                 -1.6313150000      1.5470920000      1.7608710000
C                  0.4443930000      2.3650380000     -1.2648090000
C                  1.4468560000      1.3359000000     -1.1092320000
C                  1.4767320000      0.4056770000     -0.0885500000
C                  0.4387610000      0.4365890000      0.9261440000
O                  0.5470660000      3.1534250000     -2.2617880000
O                  0.4103270000     -0.3808260000      1.8828290000
O                  2.3927780000      1.3634600000     -2.0946460000
C                  2.5565980000     -0.6491780000      0.0268260000
C                  2.5686500000     -1.6449540000     -1.1677640000
C                  3.9721930000     -0.0743820000      0.2312990000
C                  4.9754350000     -1.1853910000      0.6146220000
C                  4.6784450000     -2.5573830000     -0.0555290000
C                  3.9480600000     -2.3055350000     -1.3865500000
C                  5.9549540000     -3.4260120000     -0.1876090000
C                  5.6832300000     -4.8146450000     -0.8030720000
C                  6.6737980000     -3.6063230000      1.1666220000
C                  7.9441860000     -4.4628010000      1.0618920000
C                  7.6566630000     -5.8332680000      0.4373730000
C                  6.9499000000     -5.6769680000     -0.9142920000
H                 -1.5941970000      4.0929730000     -1.1609190000
H                 -3.3988690000      4.1909570000      0.5540120000
H                 -3.4102260000      2.5459620000      2.4291200000
H                 -1.6120480000      0.8203190000      2.5649210000
H                  2.0864420000      2.1207170000     -2.6440590000
H                  2.3033460000     -1.2082210000      0.9321140000
H                  2.2746080000     -1.1298810000     -2.0843870000
H                  1.8159290000     -2.4191850000     -0.9804550000
H                  3.9508780000      0.6864400000      1.0171850000
H                  4.2912320000      0.4341300000     -0.6823510000
H                  4.9788120000     -1.3090540000      1.7024350000
H                  5.9882950000     -0.8628080000      0.3373300000
H                  3.9848820000     -3.1095970000      0.5956900000
H                  3.8110790000     -3.2324170000     -1.9501980000
H                  4.5758450000     -1.6568210000     -2.0115350000
H                  6.6452440000     -2.8925630000     -0.8614890000
H                  5.2333570000     -4.7118150000     -1.7932700000
H                  4.9438720000     -5.3369590000     -0.1793900000
H                  5.9762510000     -4.0804630000      1.8718220000
H                  6.9273730000     -2.6329540000      1.5930660000
H                  8.3973180000     -4.5835470000      2.0527170000
H                  8.6842710000     -3.9353330000      0.4447850000
H                  7.0144510000     -6.4110800000      1.1156570000
H                  8.5844230000     -6.4057640000      0.3216230000
H                  6.6975340000     -6.6603650000     -1.3277070000
H                  7.6413650000     -5.2090690000     -1.6281950000
$end
$rem
MAX_SCF_CYCLES=200
BASIS  =  6-311++G(d,p)
GUI  =  2
JOB_TYPE  =  SP
METHOD  =  B3LYP
SCF_ALGORITHM = DIIS_GDM
THRESH = 14
SOLVENT_METHOD = PCM
$end
$pcm
theory = CPCM
$end
$solvent
dielectric 37.219
opticaldielectric 1.43
$end

--------------------------------------------------------------

             Standard Nuclear Orientation (Angstroms)
    I     Atom           X                Y                Z
 ----------------------------------------------------------------
    1      C      -1.6215400000     3.3894640000    -0.3364540000
    2      C      -2.6193650000     3.4372750000     0.6190250000
    3      C      -2.6261370000     2.5078830000     1.6787790000
    4      C      -0.6007850000     2.4166020000    -0.2668860000
    5      C      -0.6052640000     1.4770500000     0.8021330000
    6      C      -1.6313150000     1.5470920000     1.7608710000
    7      C       0.4443930000     2.3650380000    -1.2648090000
    8      C       1.4468560000     1.3359000000    -1.1092320000
    9      C       1.4767320000     0.4056770000    -0.0885500000
   10      C       0.4387610000     0.4365890000     0.9261440000
   11      O       0.5470660000     3.1534250000    -2.2617880000
   12      O       0.4103270000    -0.3808260000     1.8828290000
   13      O       2.3927780000     1.3634600000    -2.0946460000
   14      C       2.5565980000    -0.6491780000     0.0268260000
   15      C       2.5686500000    -1.6449540000    -1.1677640000
   16      C       3.9721930000    -0.0743820000     0.2312990000
   17      C       4.9754350000    -1.1853910000     0.6146220000
   18      C       4.6784450000    -2.5573830000    -0.0555290000
   19      C       3.9480600000    -2.3055350000    -1.3865500000
   20      C       5.9549540000    -3.4260120000    -0.1876090000
   21      C       5.6832300000    -4.8146450000    -0.8030720000
   22      C       6.6737980000    -3.6063230000     1.1666220000
   23      C       7.9441860000    -4.4628010000     1.0618920000
   24      C       7.6566630000    -5.8332680000     0.4373730000
   25      C       6.9499000000    -5.6769680000    -0.9142920000
   26      H      -1.5941970000     4.0929730000    -1.1609190000
   27      H      -3.3988690000     4.1909570000     0.5540120000
   28      H      -3.4102260000     2.5459620000     2.4291200000
   29      H      -1.6120480000     0.8203190000     2.5649210000
   30      H       2.0864420000     2.1207170000    -2.6440590000
   31      H       2.3033460000    -1.2082210000     0.9321140000
   32      H       2.2746080000    -1.1298810000    -2.0843870000
   33      H       1.8159290000    -2.4191850000    -0.9804550000
   34      H       3.9508780000     0.6864400000     1.0171850000
   35      H       4.2912320000     0.4341300000    -0.6823510000
   36      H       4.9788120000    -1.3090540000     1.7024350000
   37      H       5.9882950000    -0.8628080000     0.3373300000
   38      H       3.9848820000    -3.1095970000     0.5956900000
   39      H       3.8110790000    -3.2324170000    -1.9501980000
   40      H       4.5758450000    -1.6568210000    -2.0115350000
   41      H       6.6452440000    -2.8925630000    -0.8614890000
   42      H       5.2333570000    -4.7118150000    -1.7932700000
   43      H       4.9438720000    -5.3369590000    -0.1793900000
   44      H       5.9762510000    -4.0804630000     1.8718220000
   45      H       6.9273730000    -2.6329540000     1.5930660000
   46      H       8.3973180000    -4.5835470000     2.0527170000
   47      H       8.6842710000    -3.9353330000     0.4447850000
   48      H       7.0144510000    -6.4110800000     1.1156570000
   49      H       8.5844230000    -6.4057640000     0.3216230000
   50      H       6.6975340000    -6.6603650000    -1.3277070000
   51      H       7.6413650000    -5.2090690000    -1.6281950000
 ----------------------------------------------------------------

   17   -1080.1359775254      5.51e-06  Convergence criterion met
 Total energy in the final basis set =    -1080.1359775254

                    Orbital Energies (a.u.)
 --------------------------------------------------------------

 Alpha MOs
 -- Occupied --
-19.1408 -19.0869 -19.0755 -10.2246 -10.2212 -10.2207 -10.1743 -10.1723
-10.1718 -10.1706 -10.1703 -10.1688 -10.1616 -10.1590 -10.1584 -10.1580
-10.1539 -10.1536 -10.1533 -10.1509 -10.1508 -10.1507 -10.1502 -10.1496
-10.1492  -1.0619  -1.0018  -0.9963  -0.8584  -0.8353  -0.8181  -0.7970
 -0.7625  -0.7506  -0.7334  -0.7329  -0.7233  -0.6992  -0.6693  -0.6281
 -0.6160  -0.6110  -0.5956  -0.5882  -0.5718  -0.5681  -0.5436  -0.5383
 -0.5166  -0.5047  -0.4819  -0.4734  -0.4718  -0.4564  -0.4490  -0.4368
 -0.4348  -0.4324  -0.4265  -0.4256  -0.4199  -0.4169  -0.4114  -0.3999
 -0.3894  -0.3850  -0.3845  -0.3787  -0.3722  -0.3685  -0.3674  -0.3561
 -0.3512  -0.3468  -0.3447  -0.3415  -0.3364  -0.3338  -0.3307  -0.3224
 -0.3115  -0.3045  -0.3030  -0.2862  -0.2803  -0.2746  -0.2669  -0.2617
 -0.2578  -0.2394  -0.2260  -0.1515

 Beta MOs
 -- Occupied --
-19.1403 -19.0808 -19.0701 -10.2232 -10.2199 -10.2181 -10.1742 -10.1717
-10.1712 -10.1699 -10.1698 -10.1690 -10.1608 -10.1590 -10.1584 -10.1580
-10.1539 -10.1536 -10.1533 -10.1509 -10.1508 -10.1507 -10.1501 -10.1496
-10.1492  -1.0596  -0.9925  -0.9860  -0.8560  -0.8351  -0.8172  -0.7940
 -0.7612  -0.7484  -0.7330  -0.7324  -0.7233  -0.6976  -0.6613  -0.6269
 -0.6143  -0.6108  -0.5940  -0.5882  -0.5706  -0.5662  -0.5435  -0.5368
 -0.5158  -0.5026  -0.4802  -0.4730  -0.4703  -0.4553  -0.4484  -0.4363
 -0.4321  -0.4276  -0.4249  -0.4211  -0.4190  -0.4123  -0.4098  -0.3978
 -0.3848  -0.3832  -0.3776  -0.3756  -0.3716  -0.3670  -0.3609  -0.3547
 -0.3471  -0.3444  -0.3421  -0.3369  -0.3346  -0.3304  -0.3252  -0.3221
 -0.3110  -0.3043  -0.3024  -0.2858  -0.2801  -0.2741  -0.2563  -0.2507
 -0.2482  -0.2346  -0.2172

          Ground-State Mulliken Net Atomic Charges

     Atom                 Charge (a.u.)    Spin (a.u.)
  --------------------------------------------------------
      1 C                     0.010207       0.076968
      2 C                    -0.422108       0.001915
      3 C                    -0.512478       0.071245
      4 C                     0.434155      -0.000934
      5 C                     0.261206       0.049512
      6 C                    -0.001829      -0.000037
      7 C                    -0.579908       0.185333
      8 C                    -0.327069       0.046894
      9 C                     0.716227       0.057883
     10 C                    -0.439230       0.089043
     11 O                    -0.536153       0.224056
     12 O                    -0.477847       0.197022
     13 O                    -0.266621       0.016892
     14 C                     0.823097       0.004820
     15 C                    -0.909388      -0.009961
     16 C                    -1.165780      -0.002937
     17 C                    -0.342203       0.001716
     18 C                     0.513132      -0.000186
     19 C                    -0.633193       0.004658
     20 C                     0.162650      -0.000078
     21 C                    -0.325455       0.000008
     22 C                    -0.263878      -0.000165
     23 C                    -0.389944      -0.000195
     24 C                    -0.411198       0.000005
     25 C                    -0.487338       0.000091
     26 H                     0.174380      -0.004039
     27 H                     0.195272      -0.000499
     28 H                     0.198950      -0.005300
     29 H                     0.175735      -0.000062
     30 H                     0.305472      -0.003837
     31 H                     0.247865      -0.002095
     32 H                     0.188965       0.001610
     33 H                     0.180731      -0.000718
     34 H                     0.194293      -0.000274
     35 H                     0.179356       0.001819
     36 H                     0.146321       0.000032
     37 H                     0.169374       0.000055
     38 H                     0.166170       0.000061
     39 H                     0.139739      -0.000015
     40 H                     0.173060      -0.000069
     41 H                     0.162635      -0.000016
     42 H                     0.142035      -0.000164
     43 H                     0.165976      -0.000012
     44 H                     0.168650      -0.000003
     45 H                     0.163580      -0.000031
     46 H                     0.174209       0.000011
     47 H                     0.143311      -0.000019
     48 H                     0.126346      -0.000001
     49 H                     0.176503       0.000000
     50 H                     0.174954      -0.000001
     51 H                     0.137061       0.000003
  --------------------------------------------------------
  Sum of atomic charges =    -1.000000

                    Cartesian Multipole Moments
 -----------------------------------------------------------------
    Charge (ESU x 10^10)
                -4.8032
    Dipole Moment (Debye)
         X      -3.1882      Y      -5.7437      Z       0.8069
       Tot       6.6186
    Quadrupole Moments (Debye-Ang)
        XX    -160.4694     XY      -4.0363     YY    -177.8576
        XZ       0.4870     YZ      15.3834     ZZ    -175.4118

 Total job time:  741.37s(wall), 5230.90s(cpu)
        *  Thank you very much for using Q-Chem.  Have a nice day.  *
