 Gaussian 16, Revision A.03,
 Gaussian 16:  ES64L-G16RevA.03 25-Dec-2016

 ----------------------------------------------------------------------
 #P UB3LYP/6-311++G(d,p) nosym opt freq SCRF=(PCM,Solvent=n,n-DiMethylF
 ormamide)
 ----------------------------------------------------------------------

 -------
 Radical
 -------
 Symbolic Z-matrix:
 Charge = -1 Multiplicity = 2

 SCF Done:  E(UB3LYP) =  -764.357956582     A.U. after   19 cycles
 SCF Done:  E(UB3LYP) =  -764.358118057     A.U. after   14 cycles
 SCF Done:  E(UB3LYP) =  -764.358114117     A.U. after   14 cycles
 SCF Done:  E(UB3LYP) =  -764.358143183     A.U. after   13 cycles
 SCF Done:  E(UB3LYP) =  -764.358150613     A.U. after   12 cycles
 SCF Done:  E(UB3LYP) =  -764.358150857     A.U. after   10 cycles
 Optimization completed.
    -- Stationary point found.
 Normal termination of Gaussian 16 at Sat Feb 10 17:41:08 2024.

 ----------------------------------------------------------------------
 #P Geom=AllCheck Guess=TCheck SCRF=Check GenChk UB3LYP/6-311++G(d,p) F
 req
 ----------------------------------------------------------------------

 Structure from the checkpoint file:  "177-rad.chk"
 -------
 Radical
 -------
 Charge = -1 Multiplicity = 2

                          Input orientation:
 ---------------------------------------------------------------------
 Center     Atomic      Atomic             Coordinates (Angstroms)
 Number     Number       Type             X           Y           Z
 ---------------------------------------------------------------------
      1          8           0        2.533533    2.531989   -0.214512
      2          6           0        2.458652    1.201595    0.018467
      3          6           0        3.625092    0.487116    0.257466
      4          6           0        3.562092   -0.894476    0.499852
      5          6           0        2.348753   -1.560013    0.505728
      6          6           0        1.146941   -0.862524    0.267443
      7          6           0       -0.124186   -1.587032    0.279848
      8          8           0       -0.175820   -2.826714    0.504659
      9          6           0       -1.333912   -0.806822    0.019574
     10          6           0       -2.591859   -1.449575    0.011241
     11          6           0       -3.755074   -0.745088   -0.228857
     12          6           0       -3.700127    0.644327   -0.470920
     13          6           0       -2.483762    1.296826   -0.469364
     14          6           0       -1.279602    0.595505   -0.227588
     15          6           0       -0.014057    1.304948   -0.234829
     16          8           0        0.036177    2.570119   -0.460097
     17          6           0        1.188539    0.543473    0.017279
     18          1           0        1.577448    2.823104   -0.358384
     19          1           0        4.573044    1.012860    0.252269
     20          1           0        4.480606   -1.441409    0.684435
     21          1           0        2.298350   -2.624969    0.691888
     22          1           0       -2.618514   -2.516030    0.198419
     23          1           0       -4.711138   -1.257128   -0.231744
     24          1           0       -4.613994    1.197390   -0.658465
     25          1           0       -2.427180    2.362527   -0.653808
 ---------------------------------------------------------------------

 SCF Done:  E(UB3LYP) =  -764.358150857     A.U. after    1 cycles

 Alpha  occ. eigenvalues --  -19.13111 -19.09155 -19.07884 -10.23645 -10.23414
 Alpha  occ. eigenvalues --  -10.22831 -10.17827 -10.17778 -10.17720 -10.17690
 Alpha  occ. eigenvalues --  -10.17562 -10.17554 -10.17506 -10.17391 -10.17297
 Alpha  occ. eigenvalues --  -10.16636 -10.16434  -1.05452  -1.00507  -1.00246
 Alpha  occ. eigenvalues --   -0.86452  -0.84969  -0.78952  -0.75520  -0.74435
 Alpha  occ. eigenvalues --   -0.74088  -0.67319  -0.64092  -0.62894  -0.59022
 Alpha  occ. eigenvalues --   -0.57078  -0.53843  -0.52860  -0.50779  -0.47911
 Alpha  occ. eigenvalues --   -0.46957  -0.46110  -0.44724  -0.43442  -0.42820
 Alpha  occ. eigenvalues --   -0.42187  -0.41821  -0.40849  -0.39880  -0.38931
 Alpha  occ. eigenvalues --   -0.38260  -0.37236  -0.35725  -0.35357  -0.35025
 Alpha  occ. eigenvalues --   -0.33858  -0.32993  -0.27342  -0.26045  -0.25896
 Alpha  occ. eigenvalues --   -0.25209  -0.24240  -0.23103  -0.14741
 Alpha virt. eigenvalues --   -0.05403  -0.02447  -0.00232   0.00081   0.00555
 Alpha virt. eigenvalues --    0.01234   0.02066   0.02459   0.04326   0.04340
 Alpha virt. eigenvalues --    0.04435   0.04589   0.05014   0.05894   0.06492

  Beta  occ. eigenvalues --  -19.13087 -19.08661 -19.07341 -10.23628 -10.23163
  Beta  occ. eigenvalues --  -10.22675 -10.17774 -10.17772 -10.17631 -10.17603
  Beta  occ. eigenvalues --  -10.17514 -10.17506 -10.17454 -10.17371 -10.17301
  Beta  occ. eigenvalues --  -10.16559 -10.16408  -1.05319  -0.99673  -0.99298
  Beta  occ. eigenvalues --   -0.86183  -0.84835  -0.78561  -0.75267  -0.74236
  Beta  occ. eigenvalues --   -0.73898  -0.66592  -0.63908  -0.62659  -0.58926
  Beta  occ. eigenvalues --   -0.56881  -0.53581  -0.52728  -0.50635  -0.47624
  Beta  occ. eigenvalues --   -0.46834  -0.45987  -0.44618  -0.42764  -0.42482
  Beta  occ. eigenvalues --   -0.41921  -0.41548  -0.40530  -0.39120  -0.38791
  Beta  occ. eigenvalues --   -0.37138  -0.36275  -0.35649  -0.34908  -0.34508
  Beta  occ. eigenvalues --   -0.33711  -0.32063  -0.25482  -0.25474  -0.25281
  Beta  occ. eigenvalues --   -0.24731  -0.23752  -0.22276
  Beta virt. eigenvalues --   -0.09013  -0.04330  -0.01447  -0.00215   0.00423
  Beta virt. eigenvalues --    0.00555   0.01247   0.02080   0.02459   0.04345
  Beta virt. eigenvalues --    0.04450   0.04493   0.04608   0.05720   0.06446

 Mulliken charges and spin densities:
               1          2
     1  O   -0.388869   0.008469
     2  C   -0.159195   0.031597
     3  C   -0.215097   0.052946
     4  C   -0.368971   0.043502
     5  C   -0.126171   0.045846
     6  C    0.451959   0.058734
     7  C   -0.383002   0.090504
     8  O   -0.457452   0.202600
     9  C   -0.026561   0.036996
    10  C    0.034207   0.020196
    11  C   -0.434388   0.046834
    12  C   -0.447705   0.025424
    13  C    0.068385   0.044398
    14  C    0.176941   0.005260
    15  C   -0.288643   0.147043
    16  O   -0.495532   0.179281
    17  C    0.467479  -0.016397
    18  H    0.358850  -0.003737
    19  H    0.184831  -0.004674
    20  H    0.189546  -0.003441
    21  H    0.156784  -0.002730
    22  H    0.165121  -0.001206
    23  H    0.183447  -0.003612
    24  H    0.182508  -0.002384
    25  H    0.171527  -0.001450
 Sum of Mulliken charges =  -1.00000   1.00000

 Dipole moment (field-independent basis, Debye):
    X=             -2.4294    Y=             -0.1587    Z=             -0.2342  Tot=              2.4458
 Quadrupole moment (field-independent basis, Debye-Ang):
   XX=           -101.6991   YY=           -135.2781   ZZ=           -105.7468
   XY=             -8.5255   XZ=              1.8694   YZ=              4.7526

  Exact polarizability: 452.027   5.347 338.365  30.138 -37.720 136.604
 Approx polarizability: 466.865   4.758 412.122  29.867 -47.771 157.230

                      1                      2                      3
                      A                      A                      A
 Frequencies --     58.6742                95.4852               138.2068
 Red. masses --      6.7334                 5.8644                 5.7457
 Frc consts  --      0.0137                 0.0315                 0.0647
 IR Inten    --     10.2736                 0.9219                 0.8790

                      4                      5                      6
                      A                      A                      A
 Frequencies --    170.6677               215.7807               222.3826
 Red. masses --      7.8520                 4.6660                 5.3298
 Frc consts  --      0.1348                 0.1280                 0.1553
 IR Inten    --      1.9598                 0.0320                 4.0359

                      7                      8                      9
                      A                      A                      A
 Frequencies --    269.8327               322.5999               356.4264
 Red. masses --      5.5753                 7.3024                 6.9824
 Frc consts  --      0.2392                 0.4478                 0.5226
 IR Inten    --      0.0544                 3.0233                 5.6532

                     10                     11                     12
                      A                      A                      A
 Frequencies --    392.7437               418.4427               426.6368
 Red. masses --      8.3367                 6.0392                11.9252
 Frc consts  --      0.7576                 0.6230                 1.2789
 IR Inten    --     23.3797                 0.0526                52.8822

                     13                     14                     15
                      A                      A                      A
 Frequencies --    435.8178               468.0210               494.6807
 Red. masses --      3.3261                 7.7660                 4.0218
 Frc consts  --      0.3722                 1.0023                 0.5799
 IR Inten    --      1.2868                19.2916                 0.7730

                     16                     17                     18
                      A                      A                      A
 Frequencies --    512.9956               560.1638               565.3055
 Red. masses --      8.2212                 7.7401                 4.3956
 Frc consts  --      1.2747                 1.4310                 0.8276
 IR Inten    --     10.6838                11.7108                12.0844

                     19                     20                     21
                      A                      A                      A
 Frequencies --    611.8756               643.2826               664.5376
 Red. masses --      6.2874                 4.3154                 6.6379
 Frc consts  --      1.3869                 1.0521                 1.7271
 IR Inten    --     29.7167                 7.7753                26.2018

                     22                     23                     24
                      A                      A                      A
 Frequencies --    696.9172               709.0998               728.5837
 Red. masses --      6.9463                 2.5876                 3.0704
 Frc consts  --      1.9878                 0.7666                 0.9603
 IR Inten    --     10.5701               107.4295                 4.1086

                     25                     26                     27
                      A                      A                      A
 Frequencies --    774.3330               787.7664               795.3033
 Red. masses --      2.0472                 1.9645                 6.4179
 Frc consts  --      0.7232                 0.7183                 2.3917
 IR Inten    --     37.2896                29.2250                 8.2843

                     28                     29                     30
                      A                      A                      A
 Frequencies --    807.1481               883.6675               884.3384
 Red. masses --      2.6408                 6.4672                 1.4887
 Frc consts  --      1.0137                 2.9754                 0.6860
 IR Inten    --     72.4182                88.3351                 3.4309

                     31                     32                     33
                      A                      A                      A
 Frequencies --    888.7705               914.1159               936.3767
 Red. masses --      1.4463                 1.0592                 6.5028
 Frc consts  --      0.6731                 0.5214                 3.3593
 IR Inten    --      5.4628               118.3158                 5.8637

                     34                     35                     36
                      A                      A                      A
 Frequencies --    980.6697               988.8030              1001.9720
 Red. masses --      1.2862                 1.3648                 1.2897
 Frc consts  --      0.7288                 0.7862                 0.7629
 IR Inten    --      0.7591                 2.2371                 0.0444

                     37                     38                     39
                      A                      A                      A
 Frequencies --   1023.9595              1045.2689              1074.9137
 Red. masses --      4.3387                 2.1565                 1.8666
 Frc consts  --      2.6803                 1.3882                 1.2707
 IR Inten    --     71.3232                38.6980                35.4199

                     40                     41                     42
                      A                      A                      A
 Frequencies --   1111.9684              1150.7294              1172.5958
 Red. masses --      2.3064                 1.3402                 1.1882
 Frc consts  --      1.6802                 1.0456                 0.9626
 IR Inten    --     61.9730                24.4000                22.7834

                     43                     44                     45
                      A                      A                      A
 Frequencies --   1183.8496              1202.2954              1247.4938
 Red. masses --      2.2801                 2.0935                 2.4193
 Frc consts  --      1.8828                 1.7829                 2.2182
 IR Inten    --    116.9753                 5.0397                99.6597

                     46                     47                     48
                      A                      A                      A
 Frequencies --   1251.5207              1283.1749              1307.9875
 Red. masses --      2.7332                 3.6541                 3.2686
 Frc consts  --      2.5223                 3.5449                 3.2948
 IR Inten    --      1.6766               182.4906               626.0941

                     49                     50                     51
                      A                      A                      A
 Frequencies --   1357.0173              1368.4137              1392.8416
 Red. masses --      8.9024                 5.5125                 3.3093
 Frc consts  --      9.6589                 6.0818                 3.7826
 IR Inten    --      5.5528                19.3982               893.5359

                     52                     53                     54
                      A                      A                      A
 Frequencies --   1419.9448              1469.7396              1485.8688
 Red. masses --      3.0308                 3.1304                 3.4810
 Frc consts  --      3.6004                 3.9841                 4.5281
 IR Inten    --    151.6034                56.7051                77.5042

                     55                     56                     57
                      A                      A                      A
 Frequencies --   1489.4122              1513.9446              1555.2548
 Red. masses --      2.4722                 5.6471                 3.0760
 Frc consts  --      3.2313                 7.6260                 4.3836
 IR Inten    --    435.8151               962.7249                57.2460

                     58                     59                     60
                      A                      A                      A
 Frequencies --   1564.6343              1606.1314              1626.7599
 Red. masses --      3.3113                 7.2533                 5.4759
 Frc consts  --      4.7762                11.0243                 8.5380
 IR Inten    --    169.7485                52.8361                 2.0069

                     61                     62                     63
                      A                      A                      A
 Frequencies --   1649.4386              2896.3005              3161.6844
 Red. masses --      3.0461                 1.0748                 1.0862
 Frc consts  --      4.8828                 5.3119                 6.3973
 IR Inten    --    118.8009               982.6576                15.2065

                     64                     65                     66
                      A                      A                      A
 Frequencies --   3162.9163              3175.6089              3182.4324
 Red. masses --      1.0871                 1.0906                 1.0926
 Frc consts  --      6.4077                 6.4797                 6.5196
 IR Inten    --     20.6060                21.5145                26.2410

                     67                     68                     69
                      A                      A                      A
 Frequencies --   3192.7477              3195.8584              3199.6324
 Red. masses --      1.0918                 1.0943                 1.0924
 Frc consts  --      6.5573                 6.5851                 6.5895
 IR Inten    --     13.0829                43.2679                18.2848

 - Thermochemistry -
 -------------------
 Temperature   298.150 Kelvin.  Pressure   1.00000 Atm.
 Atom     1 has atomic number  8 and mass  15.99491

 Molecular mass:   224.04734 amu.
 Principal axes and moments of inertia in atomic units:
                           1         2         3
     Eigenvalues --  2020.957544416.134706437.07420
           X            0.98891  -0.11515  -0.09376
           Y            0.13041   0.97544   0.17753
           Z            0.07102  -0.18779   0.97964
 This molecule is an asymmetric top.
 Rotational symmetry number  1.
 Warning -- assumption of classical behavior for rotation
           may cause significant error
 Rotational temperatures (Kelvin)      0.04286     0.01961     0.01346
 Rotational constants (GHZ):           0.89301     0.40867     0.28037
 Zero-point vibrational energy     475783.4 (Joules/Mol)
                                  113.71495 (Kcal/Mol)
 Warning -- explicit consideration of  19 degrees of freedom as
           vibrations may cause significant error
 Vibrational temperatures:     84.42   137.38   198.85   245.55   310.46
          (Kelvin)            319.96   388.23   464.15   512.82   565.07
                              602.05   613.84   627.04   673.38   711.74
                              738.09   805.95   813.35   880.35   925.54
                              956.12  1002.71  1020.24  1048.27  1114.09
                             1133.42  1144.26  1161.31  1271.40  1272.37
                             1278.74  1315.21  1347.24  1410.96  1422.67
                             1441.61  1473.25  1503.91  1546.56  1599.87
                             1655.64  1687.10  1703.30  1729.83  1794.87
                             1800.66  1846.20  1881.90  1952.45  1968.84
                             2003.99  2042.98  2114.63  2137.83  2142.93
                             2178.23  2237.66  2251.16  2310.86  2340.54
                             2373.17  4167.13  4548.96  4550.73  4568.99
                             4578.81  4593.65  4598.13  4603.56

 Zero-point correction=                           0.181216 (Hartree/Particle)
 Thermal correction to Energy=                    0.193134
 Thermal correction to Enthalpy=                  0.194078
 Thermal correction to Gibbs Free Energy=         0.142521
 Sum of electronic and zero-point Energies=           -764.176935
 Sum of electronic and thermal Energies=              -764.165017
 Sum of electronic and thermal Enthalpies=            -764.164073
 Sum of electronic and thermal Free Energies=         -764.215630

                     E (Thermal)             CV                S
                      KCal/Mol        Cal/Mol-Kelvin    Cal/Mol-Kelvin
 Total                  121.194             49.374            108.511
 Electronic               0.000              0.000              1.377
 Translational            0.889              2.981             42.123
 Rotational               0.889              2.981             32.419
 Vibrational            119.416             43.412             32.593
 Vibration     1          0.596              1.974              4.501
 Vibration     2          0.603              1.952              3.544
 Vibration     3          0.614              1.915              2.829
 Vibration     4          0.626              1.879              2.428
 Vibration     5          0.645              1.817              1.994
 Vibration     6          0.648              1.807              1.940
 Vibration     7          0.674              1.729              1.597
 Vibration     8          0.708              1.630              1.297
 Vibration     9          0.732              1.562              1.138
 Vibration    10          0.760              1.486              0.990
 Vibration    11          0.781              1.430              0.897
 Vibration    12          0.788              1.412              0.870
 Vibration    13          0.796              1.392              0.840
 Vibration    14          0.825              1.321              0.743
 Vibration    15          0.850              1.262              0.672
 Vibration    16          0.868              1.221              0.626
 Vibration    17          0.916              1.117              0.524
 Vibration    18          0.921              1.106              0.513
 Vibration    19          0.971              1.007              0.430

 Optimization completed.
    -- Stationary point found.
 Normal termination of Gaussian 16 at Sat Feb 10 18:38:24 2024.
