 Q-Chem 5.4, Q-Chem, Inc., Pleasanton, CA (2021)
 Q-Chem 5.4.0 for Intel X86 EM64T Linux

User input:
--------------------------------------------------------------
$molecule
0 1
C                 -1.5146050000     -0.0482520000      1.5555800000
C                 -2.4347820000      1.1514310000      1.1947260000
C                 -2.2224530000      1.8253920000      0.0136650000
C                 -1.1742120000      1.4525550000     -0.8878540000
C                 -0.2540760000      0.2528330000     -0.5270310000
C                 -0.4663740000     -0.4210990000      0.6540560000
O                 -0.9379100000      2.0232700000     -1.9473410000
O                 -1.7508520000     -0.6189280000      2.6151020000
Br                 0.5670070000     -1.9251400000      1.2555940000
Br                -3.2557740000      3.3295000000     -0.5878020000
N                  0.6365650000      0.0753030000     -1.5037400000
N                 -3.3254750000      1.3289470000      2.1713920000
C                 -4.4729220000      2.2275640000      2.3412150000
C                 -5.7463710000      1.6327000000      1.7121460000
C                 -6.9631180000      2.5338650000      1.9673790000
C                 -7.1612600000      2.8069150000      3.4644240000
C                 -5.8887030000      3.3858070000      4.0975320000
C                 -4.6678860000      2.4900110000      3.8423430000
C                  1.7839150000     -0.8234100000     -1.6737110000
C                  3.0575710000     -0.2284930000     -1.0451080000
C                  1.9784480000     -1.0861610000     -3.1748410000
C                  3.1991480000     -1.9820710000     -3.4301890000
C                  4.2742030000     -1.1297670000     -1.3005040000
C                  4.4719120000     -1.4031200000     -2.7975500000
H                  0.5091930000      0.7836680000     -2.2286740000
H                 -3.1981990000      0.6205170000      2.8962790000
H                 -4.2438380000      3.1709570000      1.8487320000
H                 -5.9211510000      0.6395570000      2.1450770000
H                 -5.5898580000      1.4928860000      0.6393460000
H                 -7.8585970000      2.0712380000      1.5414760000
H                 -6.8246740000      3.4854370000      1.4387190000
H                 -7.4246180000      1.8700690000      3.9721070000
H                 -8.0019640000      3.4909220000      3.6166650000
H                 -6.0247740000      3.5212950000      5.1747280000
H                 -5.6973080000      4.3829070000      3.6813430000
H                 -4.8060610000      1.5302130000      4.3589370000
H                 -3.7630330000      2.9464590000      4.2548220000
H                  1.5549110000     -1.7666900000     -1.1809790000
H                  2.9013550000     -0.0884660000      0.0277070000
H                  3.2322860000      0.7645590000     -1.4782750000
H                  2.1165300000     -0.1264730000     -3.6916640000
H                  1.0734570000     -1.5426410000     -3.5869790000
H                  3.3349130000     -2.1177830000     -4.5073950000
H                  3.0078170000     -2.9790780000     -3.0137470000
H                  4.1358610000     -2.0812280000     -0.7716190000
H                  5.1698240000     -0.6671010000     -0.8749430000
H                  5.3125390000     -2.0871990000     -2.9498940000
H                  4.7351740000     -0.4663870000     -3.3054910000
$end
$rem
MAX_SCF_CYCLES=200
BASIS  =  6-311++G(d,p)
GUI  =  2
JOB_TYPE  =  SP
METHOD  =  B3LYP
THRESH = 14
SCF_CONVERGENCE = 8
SCF_ALGORITHM = DIIS_GDM
scf_guess = core
SOLVENT_METHOD = PCM
$end
$pcm
theory = CPCM
$end
$solvent
dielectric 37.219
opticaldielectric 1.43
$end

--------------------------------------------------------------

             Standard Nuclear Orientation (Angstroms)
    I     Atom           X                Y                Z
 ----------------------------------------------------------------
    1      C      -1.5146050000    -0.0482520000     1.5555800000
    2      C      -2.4347820000     1.1514310000     1.1947260000
    3      C      -2.2224530000     1.8253920000     0.0136650000
    4      C      -1.1742120000     1.4525550000    -0.8878540000
    5      C      -0.2540760000     0.2528330000    -0.5270310000
    6      C      -0.4663740000    -0.4210990000     0.6540560000
    7      O      -0.9379100000     2.0232700000    -1.9473410000
    8      O      -1.7508520000    -0.6189280000     2.6151020000
    9      Br      0.5670070000    -1.9251400000     1.2555940000
   10      Br     -3.2557740000     3.3295000000    -0.5878020000
   11      N       0.6365650000     0.0753030000    -1.5037400000
   12      N      -3.3254750000     1.3289470000     2.1713920000
   13      C      -4.4729220000     2.2275640000     2.3412150000
   14      C      -5.7463710000     1.6327000000     1.7121460000
   15      C      -6.9631180000     2.5338650000     1.9673790000
   16      C      -7.1612600000     2.8069150000     3.4644240000
   17      C      -5.8887030000     3.3858070000     4.0975320000
   18      C      -4.6678860000     2.4900110000     3.8423430000
   19      C       1.7839150000    -0.8234100000    -1.6737110000
   20      C       3.0575710000    -0.2284930000    -1.0451080000
   21      C       1.9784480000    -1.0861610000    -3.1748410000
   22      C       3.1991480000    -1.9820710000    -3.4301890000
   23      C       4.2742030000    -1.1297670000    -1.3005040000
   24      C       4.4719120000    -1.4031200000    -2.7975500000
   25      H       0.5091930000     0.7836680000    -2.2286740000
   26      H      -3.1981990000     0.6205170000     2.8962790000
   27      H      -4.2438380000     3.1709570000     1.8487320000
   28      H      -5.9211510000     0.6395570000     2.1450770000
   29      H      -5.5898580000     1.4928860000     0.6393460000
   30      H      -7.8585970000     2.0712380000     1.5414760000
   31      H      -6.8246740000     3.4854370000     1.4387190000
   32      H      -7.4246180000     1.8700690000     3.9721070000
   33      H      -8.0019640000     3.4909220000     3.6166650000
   34      H      -6.0247740000     3.5212950000     5.1747280000
   35      H      -5.6973080000     4.3829070000     3.6813430000
   36      H      -4.8060610000     1.5302130000     4.3589370000
   37      H      -3.7630330000     2.9464590000     4.2548220000
   38      H       1.5549110000    -1.7666900000    -1.1809790000
   39      H       2.9013550000    -0.0884660000     0.0277070000
   40      H       3.2322860000     0.7645590000    -1.4782750000
   41      H       2.1165300000    -0.1264730000    -3.6916640000
   42      H       1.0734570000    -1.5426410000    -3.5869790000
   43      H       3.3349130000    -2.1177830000    -4.5073950000
   44      H       3.0078170000    -2.9790780000    -3.0137470000
   45      H       4.1358610000    -2.0812280000    -0.7716190000
   46      H       5.1698240000    -0.6671010000    -0.8749430000
   47      H       5.3125390000    -2.0871990000    -2.9498940000
   48      H       4.7351740000    -0.4663870000    -3.3054910000
 ----------------------------------------------------------------

   26   -6108.9008038726      3.40e-09  Convergence criterion met
 Total energy in the final basis set =    -6108.9008038726

                    Orbital Energies (a.u.)
 --------------------------------------------------------------

 Alpha MOs
 -- Occupied --
********-482.8368 -62.4897 -62.4897 -56.3103 -56.3103 -56.3063 -56.3063
-56.3061 -56.3061 -19.1281 -19.1281 -14.3655 -14.3655 -10.2867 -10.2867
-10.2686 -10.2686 -10.2317 -10.2317 -10.2169 -10.2169 -10.1692 -10.1692
-10.1671 -10.1671 -10.1638 -10.1637 -10.1632 -10.1632 -10.1605 -10.1605
 -8.6986  -8.6986  -6.5301  -6.5301  -6.5171  -6.5171  -6.5166  -6.5166
 -2.6409  -2.6409  -2.6373  -2.6373  -2.6371  -2.6371  -2.6266  -2.6266
 -2.6266  -2.6266  -1.0720  -1.0692  -0.9730  -0.9729  -0.8645  -0.8408
 -0.8305  -0.8245  -0.7870  -0.7652  -0.7461  -0.7454  -0.7440  -0.7184
 -0.6869  -0.6443  -0.6280  -0.6260  -0.6153  -0.6101  -0.5783  -0.5747
 -0.5613  -0.5449  -0.5353  -0.5348  -0.4967  -0.4832  -0.4710  -0.4660
 -0.4648  -0.4561  -0.4478  -0.4477  -0.4418  -0.4394  -0.4370  -0.4283
 -0.4270  -0.4124  -0.4040  -0.4033  -0.3958  -0.3860  -0.3829  -0.3825
 -0.3687  -0.3609  -0.3542  -0.3479  -0.3461  -0.3437  -0.3257  -0.3241
 -0.3235  -0.3200  -0.3181  -0.3165  -0.3034  -0.3009  -0.3003  -0.2981
 -0.2906  -0.2823  -0.2473  -0.2218

          Ground-State Mulliken Net Atomic Charges

     Atom                 Charge (a.u.)
  ----------------------------------------
      1 C                    -0.105436
      2 C                     0.294424
      3 C                    -0.383095
      4 C                    -0.105342
      5 C                     0.294254
      6 C                    -0.383102
      7 O                    -0.304180
      8 O                    -0.304176
      9 Br                   -0.090106
     10 Br                   -0.090091
     11 N                     0.304786
     12 N                     0.304701
     13 C                    -0.358905
     14 C                    -0.021274
     15 C                    -0.375102
     16 C                    -0.396888
     17 C                    -0.439955
     18 C                    -0.259304
     19 C                    -0.358895
     20 C                    -0.021382
     21 C                    -0.259199
     22 C                    -0.439913
     23 C                    -0.375023
     24 C                    -0.396921
     25 H                     0.346972
     26 H                     0.346979
     27 H                     0.111059
     28 H                     0.182178
     29 H                     0.155398
     30 H                     0.182034
     31 H                     0.149365
     32 H                     0.135933
     33 H                     0.180644
     34 H                     0.194319
     35 H                     0.151666
     36 H                     0.152264
     37 H                     0.193249
     38 H                     0.110995
     39 H                     0.155425
     40 H                     0.182173
     41 H                     0.152268
     42 H                     0.193249
     43 H                     0.194313
     44 H                     0.151668
     45 H                     0.149365
     46 H                     0.182032
     47 H                     0.180644
     48 H                     0.135935
  ----------------------------------------
  Sum of atomic charges =     0.000000

                    Cartesian Multipole Moments
 -----------------------------------------------------------------
    Charge (ESU x 10^10)
                 0.0000
    Dipole Moment (Debye)
         X      -0.0006      Y      -0.0005      Z      -0.0007
       Tot       0.0011
    Quadrupole Moments (Debye-Ang)
        XX    -140.3778     XY     -10.1836     YY    -176.4046
        XZ     -22.5323     YZ      20.4030     ZZ    -169.3741

 Total job time:  966.06s(wall), 6895.49s(cpu)
        *  Thank you very much for using Q-Chem.  Have a nice day.  *
