 Q-Chem 5.4, Q-Chem, Inc., Pleasanton, CA (2021)
 Q-Chem 5.4.0 for Intel X86 EM64T Linux

User input:
--------------------------------------------------------------
$molecule
-2 1
C                 -0.2592790000      0.8804410000     -1.0268300000
C                 -0.8519810000      1.3972350000      0.1087790000
C                 -0.2048530000      1.2768030000      1.3625360000
C                  0.9952210000      0.2235730000     -0.9718460000
C                  1.6550930000      0.1019160000      0.3027220000
C                  1.0238330000      0.6393300000      1.4394690000
C                  1.6013090000     -0.3102450000     -2.1584130000
C                  2.8704610000     -0.9517720000     -1.9814800000
C                  3.5345110000     -1.0951030000     -0.7698200000
C                  2.9577300000     -0.5634570000      0.4391990000
O                  1.1069510000     -0.2622140000     -3.3529840000
O                  3.5414380000     -0.6663320000      1.5658960000
O                  3.3937460000     -1.4373990000     -3.1555470000
H                 -0.7368380000      0.9612980000     -1.9979350000
H                 -1.8155850000      1.8973830000      0.0406450000
H                 -0.6692760000      1.6826710000      2.2577850000
H                  1.5453360000      0.5326160000      2.3852250000
H                  2.6802340000     -1.1755430000     -3.7862740000
C                  4.8661730000     -1.7964390000     -0.6818870000
C                  6.0638760000     -0.8263270000     -0.6531830000
H                  4.9798990000     -2.4838100000     -1.5271380000
H                  4.8834980000     -2.3811370000      0.2453790000
H                  5.9159040000     -0.1316150000      0.1803170000
H                  6.0641890000     -0.2311290000     -1.5749210000
C                  7.4153320000     -1.5340580000     -0.5002670000
C                  8.6068300000     -0.5548320000     -0.4544660000
C                  9.9522020000     -1.2257140000     -0.2893950000
C                 10.4380670000     -1.5690480000      0.9778200000
C                 10.7459660000     -1.5527140000     -1.3967640000
C                 11.9719100000     -2.2009230000     -1.2540470000
C                 12.4318380000     -2.5214130000      0.0205520000
C                 11.6667670000     -2.2077900000      1.1394070000
O                 13.6051280000     -3.2428450000      0.2079290000
C                 14.8201810000     -2.7278430000     -0.1978870000
C                 15.0492430000     -1.3683070000     -0.4139500000
C                 15.8616760000     -3.6493480000     -0.3304060000
C                 17.1351600000     -3.2063400000     -0.6735790000
C                 16.3295080000     -0.9417130000     -0.7713660000
C                 17.3756060000     -1.8513470000     -0.9004380000
H                  7.5642550000     -2.2397980000     -1.3279670000
H                  7.4110700000     -2.1346900000      0.4179000000
H                  8.4483180000      0.1483380000      0.3709550000
H                  8.6101560000      0.0422480000     -1.3733080000
H                  9.8450540000     -1.3302080000      1.8552390000
H                 10.3942940000     -1.3016750000     -2.3927670000
H                 12.5710260000     -2.4538000000     -2.1214930000
H                 12.0393660000     -2.4703890000      2.1229200000
H                 14.2421500000     -0.6544570000     -0.3035970000
H                 15.6579420000     -4.7007520000     -0.1578530000
H                 17.9440820000     -3.9258070000     -0.7735420000
H                 16.5068980000      0.1160320000     -0.9454660000
H                 18.3690740000     -1.5106180000     -1.1770790000
$end

$rem
BASIS  =  6-311++G(d,p)
GUI  =  2
JOB_TYPE  =  SP
METHOD  =  B3LYP
THRESH = 14
SCF_CONVERGENCE  = 5
SOLVENT_METHOD = sm12
$end

$smx
solvent dimethylformamide
charges CM5
$end

--------------------------------------------------------------

             Standard Nuclear Orientation (Angstroms)
    I     Atom           X                Y                Z
 ----------------------------------------------------------------
    1      C      -0.2592790000     0.8804410000    -1.0268300000
    2      C      -0.8519810000     1.3972350000     0.1087790000
    3      C      -0.2048530000     1.2768030000     1.3625360000
    4      C       0.9952210000     0.2235730000    -0.9718460000
    5      C       1.6550930000     0.1019160000     0.3027220000
    6      C       1.0238330000     0.6393300000     1.4394690000
    7      C       1.6013090000    -0.3102450000    -2.1584130000
    8      C       2.8704610000    -0.9517720000    -1.9814800000
    9      C       3.5345110000    -1.0951030000    -0.7698200000
   10      C       2.9577300000    -0.5634570000     0.4391990000
   11      O       1.1069510000    -0.2622140000    -3.3529840000
   12      O       3.5414380000    -0.6663320000     1.5658960000
   13      O       3.3937460000    -1.4373990000    -3.1555470000
   14      H      -0.7368380000     0.9612980000    -1.9979350000
   15      H      -1.8155850000     1.8973830000     0.0406450000
   16      H      -0.6692760000     1.6826710000     2.2577850000
   17      H       1.5453360000     0.5326160000     2.3852250000
   18      H       2.6802340000    -1.1755430000    -3.7862740000
   19      C       4.8661730000    -1.7964390000    -0.6818870000
   20      C       6.0638760000    -0.8263270000    -0.6531830000
   21      H       4.9798990000    -2.4838100000    -1.5271380000
   22      H       4.8834980000    -2.3811370000     0.2453790000
   23      H       5.9159040000    -0.1316150000     0.1803170000
   24      H       6.0641890000    -0.2311290000    -1.5749210000
   25      C       7.4153320000    -1.5340580000    -0.5002670000
   26      C       8.6068300000    -0.5548320000    -0.4544660000
   27      C       9.9522020000    -1.2257140000    -0.2893950000
   28      C      10.4380670000    -1.5690480000     0.9778200000
   29      C      10.7459660000    -1.5527140000    -1.3967640000
   30      C      11.9719100000    -2.2009230000    -1.2540470000
   31      C      12.4318380000    -2.5214130000     0.0205520000
   32      C      11.6667670000    -2.2077900000     1.1394070000
   33      O      13.6051280000    -3.2428450000     0.2079290000
   34      C      14.8201810000    -2.7278430000    -0.1978870000
   35      C      15.0492430000    -1.3683070000    -0.4139500000
   36      C      15.8616760000    -3.6493480000    -0.3304060000
   37      C      17.1351600000    -3.2063400000    -0.6735790000
   38      C      16.3295080000    -0.9417130000    -0.7713660000
   39      C      17.3756060000    -1.8513470000    -0.9004380000
   40      H       7.5642550000    -2.2397980000    -1.3279670000
   41      H       7.4110700000    -2.1346900000     0.4179000000
   42      H       8.4483180000     0.1483380000     0.3709550000
   43      H       8.6101560000     0.0422480000    -1.3733080000
   44      H       9.8450540000    -1.3302080000     1.8552390000
   45      H      10.3942940000    -1.3016750000    -2.3927670000
   46      H      12.5710260000    -2.4538000000    -2.1214930000
   47      H      12.0393660000    -2.4703890000     2.1229200000
   48      H      14.2421500000    -0.6544570000    -0.3035970000
   49      H      15.6579420000    -4.7007520000    -0.1578530000
   50      H      17.9440820000    -3.9258070000    -0.7735420000
   51      H      16.5068980000     0.1160320000    -0.9454660000
   52      H      18.3690740000    -1.5106180000    -1.1770790000
 ----------------------------------------------------------------

   10   -1305.2425924015      7.65e-06  Convergence criterion met
 Total energy in the final basis set =    -1305.5338474239

                    Orbital Energies (a.u.)
 --------------------------------------------------------------

 Alpha MOs
 -- Occupied --
-19.1689 -19.1192 -19.0292 -19.0229 -10.2469 -10.2400 -10.1868 -10.1864
-10.1850 -10.1847 -10.1832 -10.1824 -10.1818 -10.1817 -10.1816 -10.1807
-10.1803 -10.1773 -10.1727 -10.1706 -10.1705 -10.1679 -10.1657 -10.1652
-10.1651 -10.1604 -10.1579 -10.1471 -10.1443 -10.1344  -1.0861  -1.0330
 -0.9464  -0.9368  -0.8735  -0.8602  -0.8403  -0.8090  -0.7870  -0.7690
 -0.7595  -0.7574  -0.7494  -0.7389  -0.7271  -0.6953  -0.6574  -0.6385
 -0.6268  -0.6238  -0.6154  -0.5999  -0.5886  -0.5791  -0.5702  -0.5553
 -0.5483  -0.5172  -0.5106  -0.4956  -0.4853  -0.4826  -0.4789  -0.4688
 -0.4544  -0.4527  -0.4478  -0.4429  -0.4391  -0.4335  -0.4310  -0.4215
 -0.4189  -0.4161  -0.4065  -0.4038  -0.3964  -0.3874  -0.3821  -0.3738
 -0.3722  -0.3688  -0.3627  -0.3613  -0.3599  -0.3564  -0.3507  -0.3426
 -0.3412  -0.3370  -0.3329  -0.3284  -0.3240  -0.3165  -0.3083  -0.3043
 -0.2688  -0.2635  -0.2535  -0.2457  -0.2336  -0.2316  -0.2150  -0.2014
 -0.1984  -0.1124

          Ground-State Mulliken Net Atomic Charges

     Atom                 Charge (a.u.)
  ----------------------------------------
      1 C                    -0.245245
      2 C                     1.011961
      3 C                     1.006194
      4 C                    -2.122977
      5 C                    -1.855951
      6 C                    -0.510377
      7 C                    -1.859308
      8 C                    -0.145696
      9 C                     1.056348
     10 C                    -2.436869
     11 O                    -0.422734
     12 O                    -0.266086
     13 O                    -0.041171
     14 H                     0.104391
     15 H                     0.374351
     16 H                     0.349559
     17 H                     0.069219
     18 H                     0.312886
     19 C                    -0.008472
     20 C                    -1.246704
     21 H                     0.175156
     22 H                     0.042724
     23 H                    -0.059162
     24 H                    -0.030766
     25 C                     0.973555
     26 C                    -2.162019
     27 C                     2.379915
     28 C                    -0.005102
     29 C                     0.015177
     30 C                     0.717016
     31 C                     0.330625
     32 C                     0.194892
     33 O                    -0.017419
     34 C                    -1.009258
     35 C                    -0.319551
     36 C                    -0.060178
     37 C                     0.194088
     38 C                     0.136726
     39 C                     0.173564
     40 H                     0.198720
     41 H                     0.167629
     42 H                     0.183526
     43 H                     0.176893
     44 H                     0.294622
     45 H                     0.320820
     46 H                     0.278443
     47 H                     0.295213
     48 H                     0.193812
     49 H                     0.224508
     50 H                     0.307215
     51 H                     0.286954
     52 H                     0.278344
  ----------------------------------------
  Sum of atomic charges =    -2.000000

                    Cartesian Multipole Moments
 -----------------------------------------------------------------
    Charge (ESU x 10^10)
                -9.6064
    Dipole Moment (Debye)
         X     -21.4076      Y       3.9072      Z       6.1279
       Tot      22.6076
    Quadrupole Moments (Debye-Ang)
        XX    -289.4353     XY      33.7080     YY    -201.9938
        XZ      -3.8185     YZ      -3.8692     ZZ    -234.4192

 Total job time:  2203.27s(wall), 14962.63s(cpu)
        *  Thank you very much for using Q-Chem.  Have a nice day.  *
