 Q-Chem 5.4, Q-Chem, Inc., Pleasanton, CA (2021)
 Q-Chem 5.4.0 for Intel X86 EM64T Linux

User input:
--------------------------------------------------------------
$molecule
-1 2
Cl                -2.6621130000     -1.7380530000     -0.0115800000
C                 -1.2001950000     -0.7452470000     -0.0061050000
C                 -1.3153630000      0.6114060000     -0.0381800000
C                 -0.1661540000      1.4911170000     -0.0360560000
O                 -0.2821950000      2.7373530000     -0.0656340000
C                  1.1241190000      0.8061200000      0.0033070000
C                  1.2256610000     -0.5635990000      0.0354150000
Cl                 2.7861320000     -1.3620180000      0.0823790000
C                  0.0667780000     -1.4604740000      0.0333900000
O                  0.1648980000     -2.7018310000      0.0626630000
Cl                 2.5443730000      1.8345430000      0.0073280000
H                 -2.2859410000      1.0906810000     -0.0669270000
$end

$rem
BASIS  =  6-311++G(d,p)
GUI  =  2
JOB_TYPE  =  SP
METHOD  =  B3LYP
SCF_CONVERGENCE  = 8
SOLVENT_METHOD = sm12
$end

$smx
solvent dimethylformamide
charges CM5
$end

--------------------------------------------------------------

             Standard Nuclear Orientation (Angstroms)
    I     Atom           X                Y                Z
 ----------------------------------------------------------------
    1      Cl     -2.6621130000    -1.7380530000    -0.0115800000
    2      C      -1.2001950000    -0.7452470000    -0.0061050000
    3      C      -1.3153630000     0.6114060000    -0.0381800000
    4      C      -0.1661540000     1.4911170000    -0.0360560000
    5      O      -0.2821950000     2.7373530000    -0.0656340000
    6      C       1.1241190000     0.8061200000     0.0033070000
    7      C       1.2256610000    -0.5635990000     0.0354150000
    8      Cl      2.7861320000    -1.3620180000     0.0823790000
    9      C       0.0667780000    -1.4604740000     0.0333900000
   10      O       0.1648980000    -2.7018310000     0.0626630000
   11      Cl      2.5443730000     1.8345430000     0.0073280000
   12      H      -2.2859410000     1.0906810000    -0.0669270000
 ----------------------------------------------------------------

   18   -1760.5204570724      4.84e-09  Convergence criterion met
 Total energy in the final basis set =    -1760.5947841349

                    Orbital Energies (a.u.)
 --------------------------------------------------------------

 Alpha MOs
 -- Occupied --
********-101.5552-101.5533 -19.0915 -19.0897 -10.2473 -10.2432 -10.2418
-10.2395 -10.2367 -10.1851  -9.4695  -9.4692  -9.4671  -7.2342  -7.2338
 -7.2316  -7.2249  -7.2246  -7.2236  -7.2233  -7.2224  -7.2215  -1.0233
 -1.0168  -0.8997  -0.8756  -0.8492  -0.8046  -0.7278  -0.6934  -0.6040
 -0.5823  -0.5164  -0.4843  -0.4591  -0.4444  -0.4402  -0.4207  -0.4065
 -0.3982  -0.3977  -0.3732  -0.3426  -0.3328  -0.3264  -0.3140  -0.3030
 -0.2827  -0.2595  -0.2541  -0.2521  -0.1759

 Beta MOs
 -- Occupied --
********-101.5551-101.5532 -19.0842 -19.0824 -10.2463 -10.2423 -10.2407
-10.2381 -10.2354 -10.1840  -9.4695  -9.4691  -9.4671  -7.2342  -7.2339
 -7.2316  -7.2247  -7.2243  -7.2236  -7.2232  -7.2222  -7.2215  -1.0112
 -1.0043  -0.8965  -0.8738  -0.8480  -0.8011  -0.7253  -0.6838  -0.6000
 -0.5783  -0.5142  -0.4806  -0.4566  -0.4394  -0.4300  -0.4132  -0.4012
 -0.3959  -0.3769  -0.3651  -0.3313  -0.3257  -0.3238  -0.3137  -0.3026
 -0.2562  -0.2526  -0.2473  -0.2452

          Ground-State Mulliken Net Atomic Charges

     Atom                 Charge (a.u.)    Spin (a.u.)
  --------------------------------------------------------
      1 Cl                    0.443920       0.004904
      2 C                     1.402809       0.102301
      3 C                    -0.507648       0.085024
      4 C                    -1.773771       0.083635
      5 O                    -0.334221       0.264046
      6 C                     0.473967       0.082310
      7 C                     0.729065       0.061817
      8 Cl                    0.525223       0.004363
      9 C                    -2.430735       0.043026
     10 O                    -0.264577       0.268137
     11 Cl                    0.531212       0.007991
     12 H                     0.204755      -0.007555
  --------------------------------------------------------
  Sum of atomic charges =    -1.000000

                    Cartesian Multipole Moments
 -----------------------------------------------------------------
    Charge (ESU x 10^10)
                -4.8032
    Dipole Moment (Debye)
         X      -1.1922      Y       0.5335      Z      -0.0340
       Tot       1.3066
    Quadrupole Moments (Debye-Ang)
        XX     -97.4455     XY      -1.2831     YY    -122.6904
        XZ      -0.1890     YZ       0.7866     ZZ     -85.9003

 Total job time:  128.86s(wall), 872.68s(cpu)
        *  Thank you very much for using Q-Chem.  Have a nice day.  *
