 Q-Chem 5.4, Q-Chem, Inc., Pleasanton, CA (2021)
 Q-Chem 5.4.0 for Intel X86 EM64T Linux

User input:
--------------------------------------------------------------
$molecule
0 1
C                  1.1241880000      1.4028480000     -2.7365170000
C                 -0.2524980000      1.6904950000     -3.2062890000
C                 -1.2200420000      0.7733210000     -3.1051770000
C                 -0.9552150000     -0.5637810000     -2.5218240000
C                  0.4253680000     -0.8693250000     -2.0183970000
O                  2.0077250000      2.2381940000     -2.8400720000
O                 -1.8435030000     -1.3972500000     -2.4555060000
H                 -0.4131300000      2.6771290000     -3.6266950000
C                  1.3922690000      0.0660360000     -2.1341400000
C                  2.7908200000     -0.1311270000     -1.5718090000
C                  3.8973390000     -0.4992540000     -2.4959640000
C                  5.2023830000     -0.5692080000     -1.9867450000
C                  3.6692580000     -0.7867580000     -3.8472530000
C                  6.2581950000     -0.9189960000     -2.8176720000
C                  6.0225400000     -1.2066500000     -4.1643610000
C                  4.7285530000     -1.1417870000     -4.6778880000
O                  2.9572260000      0.0140840000     -0.3766470000
C                  0.6153030000     -2.2272880000     -1.4124680000
H                  5.3636890000     -0.3417530000     -0.9401590000
H                  2.6649590000     -0.7375810000     -4.2513730000
H                  7.2660070000     -0.9673140000     -2.4214850000
H                  6.8482420000     -1.4795660000     -4.8119970000
H                  4.5459560000     -1.3646690000     -5.7227050000
H                 -2.2366350000      0.9486070000     -3.4393500000
H                 -0.0004780000     -2.3238690000     -0.5134110000
H                  1.6530480000     -2.4137270000     -1.1416040000
H                  0.2728430000     -3.0016110000     -2.1033690000
$end

$rem
BASIS  =  6-311++G(d,p)
GUI  =  2
JOB_TYPE  =  SP
METHOD  =  B3LYP
SCF_CONVERGENCE  = 8
SOLVENT_METHOD = sm12
$end

$smx
solvent dimethylformamide
charges CM5
$end

--------------------------------------------------------------

             Standard Nuclear Orientation (Angstroms)
    I     Atom           X                Y                Z
 ----------------------------------------------------------------
    1      C       1.1241880000     1.4028480000    -2.7365170000
    2      C      -0.2524980000     1.6904950000    -3.2062890000
    3      C      -1.2200420000     0.7733210000    -3.1051770000
    4      C      -0.9552150000    -0.5637810000    -2.5218240000
    5      C       0.4253680000    -0.8693250000    -2.0183970000
    6      O       2.0077250000     2.2381940000    -2.8400720000
    7      O      -1.8435030000    -1.3972500000    -2.4555060000
    8      H      -0.4131300000     2.6771290000    -3.6266950000
    9      C       1.3922690000     0.0660360000    -2.1341400000
   10      C       2.7908200000    -0.1311270000    -1.5718090000
   11      C       3.8973390000    -0.4992540000    -2.4959640000
   12      C       5.2023830000    -0.5692080000    -1.9867450000
   13      C       3.6692580000    -0.7867580000    -3.8472530000
   14      C       6.2581950000    -0.9189960000    -2.8176720000
   15      C       6.0225400000    -1.2066500000    -4.1643610000
   16      C       4.7285530000    -1.1417870000    -4.6778880000
   17      O       2.9572260000     0.0140840000    -0.3766470000
   18      C       0.6153030000    -2.2272880000    -1.4124680000
   19      H       5.3636890000    -0.3417530000    -0.9401590000
   20      H       2.6649590000    -0.7375810000    -4.2513730000
   21      H       7.2660070000    -0.9673140000    -2.4214850000
   22      H       6.8482420000    -1.4795660000    -4.8119970000
   23      H       4.5459560000    -1.3646690000    -5.7227050000
   24      H      -2.2366350000     0.9486070000    -3.4393500000
   25      H      -0.0004780000    -2.3238690000    -0.5134110000
   26      H       1.6530480000    -2.4137270000    -1.1416040000
   27      H       0.2728430000    -3.0016110000    -2.1033690000
 ----------------------------------------------------------------

   15    -765.3561676105      4.37e-09  Convergence criterion met
 Total energy in the final basis set =     -765.3801873690

                    Orbital Energies (a.u.)
 --------------------------------------------------------------

 Alpha MOs
 -- Occupied --
-19.1428 -19.1419 -19.1328 -10.2898 -10.2870 -10.2855 -10.2277 -10.2187
-10.2125 -10.2116 -10.2005 -10.1981 -10.1944 -10.1931 -10.1905 -10.1898
-10.1784  -1.0758  -1.0729  -1.0658  -0.8790  -0.8715  -0.8164  -0.7816
 -0.7664  -0.7413  -0.6952  -0.6710  -0.6331  -0.6195  -0.6014  -0.5698
 -0.5370  -0.5330  -0.5039  -0.4913  -0.4767  -0.4697  -0.4643  -0.4512
 -0.4487  -0.4434  -0.4400  -0.4365  -0.4278  -0.4209  -0.4084  -0.4045
 -0.3931  -0.3765  -0.3756  -0.3611  -0.3135  -0.3026  -0.2935  -0.2894
 -0.2763  -0.2734  -0.2662

          Ground-State Mulliken Net Atomic Charges

     Atom                 Charge (a.u.)
  ----------------------------------------
      1 C                    -0.972118
      2 C                     0.428514
      3 C                     0.741036
      4 C                    -0.677223
      5 C                    -0.056830
      6 O                    -0.324601
      7 O                    -0.300527
      8 H                     0.331679
      9 C                     0.837400
     10 C                    -0.507451
     11 C                    -0.330859
     12 C                    -0.264638
     13 C                    -0.662398
     14 C                    -0.197488
     15 C                     0.096305
     16 C                     0.248600
     17 O                    -0.311190
     18 C                    -0.310038
     19 H                     0.198063
     20 H                     0.219428
     21 H                     0.282297
     22 H                     0.289050
     23 H                     0.297371
     24 H                     0.347179
     25 H                     0.205485
     26 H                     0.170897
     27 H                     0.222055
  ----------------------------------------
  Sum of atomic charges =     0.000000

                    Cartesian Multipole Moments
 -----------------------------------------------------------------
    Charge (ESU x 10^10)
                 0.0000
    Dipole Moment (Debye)
         X       0.5985      Y      -1.3709      Z      -3.3825
       Tot       3.6985
    Quadrupole Moments (Debye-Ang)
        XX     -86.6886     XY     -17.4877     YY    -101.8173
        XZ     -11.0864     YZ       3.2788     ZZ     -80.4666

 Total job time:  584.56s(wall), 4570.07s(cpu)
        *  Thank you very much for using Q-Chem.  Have a nice day.  *
