 Gaussian 16, Revision A.03,
 Gaussian 16:  ES64L-G16RevA.03 25-Dec-2016

 ----------------------------------------------------------------
 #P UB3LYP/6-311++G(d,p) SCRF=(PCM,Solvent=n,n-DiMethylFormamide)
 ----------------------------------------------------------------

 ------------------
 Radical PCM in DMF
 ------------------
 Symbolic Z-matrix:
 Charge = -1 Multiplicity = 2

                         Standard orientation:
 ---------------------------------------------------------------------
 Center     Atomic      Atomic             Coordinates (Angstroms)
 Number     Number       Type             X           Y           Z
 ---------------------------------------------------------------------
      1          6           0       -2.931572    0.808496   -0.010747
      2          6           0       -3.839043   -0.234802    0.005145
      3          6           0       -3.381696   -1.567830    0.027436
      4          6           0       -1.540898    0.563365   -0.003959
      5          6           0       -1.079429   -0.783232    0.014215
      6          6           0       -2.020419   -1.827187    0.031665
      7          6           0       -0.603240    1.676176   -0.016965
      8          6           0        0.807283    1.329243    0.007453
      9          6           0        1.266474    0.013710   -0.018941
     10          6           0        0.363448   -1.105923    0.012916
     11          8           0       -0.959794    2.892849   -0.064357
     12          8           0        0.763626   -2.302751    0.038497
     13          7           0        1.683056    2.394993    0.072348
     14          1           0       -3.258391    1.842146   -0.027151
     15          1           0       -4.905586   -0.027451    0.001681
     16          1           0       -4.094242   -2.387505    0.040480
     17          1           0       -1.636933   -2.841356    0.046897
     18          1           0        1.258753    3.272380   -0.199706
     19          1           0        2.620759    2.189310   -0.240576
     20          7           0        2.699180   -0.178619   -0.053562
     21          6           0        3.249686   -0.669863    1.210460
     22          6           0        3.174454   -0.954078   -1.200634
     23          1           0        2.926664   -0.012999    2.021764
     24          1           0        4.346000   -0.642298    1.165411
     25          1           0        2.930644   -1.697418    1.439539
     26          1           0        2.768773   -0.520222   -2.118347
     27          1           0        2.877766   -2.010397   -1.155287
     28          1           0        4.269187   -0.888047   -1.247584
 ---------------------------------------------------------------------

 SCF Done:  E(UB3LYP) =  -724.791529813     A.U. after   20 cycles

 The electronic state is 2-A.
 Alpha  occ. eigenvalues --  -19.07461 -19.06437 -14.30780 -14.29963 -10.21559
 Alpha  occ. eigenvalues --  -10.21444 -10.20005 -10.17640 -10.17456 -10.17398
 Alpha  occ. eigenvalues --  -10.16931 -10.16866 -10.16810 -10.16703 -10.16621
 Alpha  occ. eigenvalues --  -10.16569  -0.99901  -0.99089  -0.92143  -0.89122
 Alpha  occ. eigenvalues --   -0.85255  -0.78281  -0.74636  -0.72444  -0.69515
 Alpha  occ. eigenvalues --   -0.67099  -0.63503  -0.60544  -0.58093  -0.55776
 Alpha  occ. eigenvalues --   -0.53519  -0.50487  -0.48212  -0.47059  -0.45369
 Alpha  occ. eigenvalues --   -0.44587  -0.44306  -0.43008  -0.41844  -0.41578
 Alpha  occ. eigenvalues --   -0.41163  -0.40460  -0.39094  -0.38583  -0.36899
 Alpha  occ. eigenvalues --   -0.36374  -0.35775  -0.35167  -0.34750  -0.33315
 Alpha  occ. eigenvalues --   -0.31890  -0.25954  -0.25328  -0.24985  -0.23957
 Alpha  occ. eigenvalues --   -0.21350  -0.20395  -0.14293
 Alpha virt. eigenvalues --   -0.02802  -0.00556  -0.00418   0.00474   0.01089
 Alpha virt. eigenvalues --    0.01983   0.02290   0.02536   0.03851   0.04442
 Alpha virt. eigenvalues --    0.04504   0.04855   0.05519   0.05972   0.06036

  Beta  occ. eigenvalues --  -19.06803 -19.05968 -14.30698 -14.29965 -10.21430
  Beta  occ. eigenvalues --  -10.21159 -10.19874 -10.17637 -10.17434 -10.17397
  Beta  occ. eigenvalues --  -10.16928 -10.16844 -10.16720 -10.16620 -10.16571
  Beta  occ. eigenvalues --  -10.16564  -0.98805  -0.98241  -0.91966  -0.88948
  Beta  occ. eigenvalues --   -0.85049  -0.77854  -0.74420  -0.72293  -0.69505
  Beta  occ. eigenvalues --   -0.66279  -0.63284  -0.60308  -0.57935  -0.55520
  Beta  occ. eigenvalues --   -0.53381  -0.50262  -0.48144  -0.46722  -0.45270
  Beta  occ. eigenvalues --   -0.44410  -0.44211  -0.42890  -0.41786  -0.41338
  Beta  occ. eigenvalues --   -0.39952  -0.39849  -0.38785  -0.38163  -0.36286
  Beta  occ. eigenvalues --   -0.35789  -0.35511  -0.34840  -0.33828  -0.33172
  Beta  occ. eigenvalues --   -0.30301  -0.24637  -0.24560  -0.24193  -0.23452
  Beta  occ. eigenvalues --   -0.20725  -0.19957
  Beta virt. eigenvalues --   -0.07829  -0.02118  -0.00535   0.00473   0.00662
  Beta virt. eigenvalues --    0.01114   0.02033   0.02293   0.02548   0.03871
  Beta virt. eigenvalues --    0.04476   0.04684   0.04870   0.05572   0.06040

 Mulliken charges and spin densities:
               1          2
     1  C   -0.109790   0.073388
     2  C   -0.336341  -0.001073
     3  C   -0.361990   0.078303
     4  C    0.842967   0.005420
     5  C    0.146430   0.071326
     6  C    0.017642   0.003727
     7  C   -0.706379   0.184555
     8  C    0.154247   0.066122
     9  C   -0.237752   0.002895
    10  C   -0.878978   0.063954
    11  O   -0.515452   0.243813
    12  O   -0.438419   0.174463
    13  N   -0.438949   0.043766
    14  H    0.154784  -0.004698
    15  H    0.176908  -0.000462
    16  H    0.178705  -0.005612
    17  H    0.159592   0.000317
    18  H    0.289178  -0.001983
    19  H    0.291273  -0.000790
    20  N    0.178281  -0.005690
    21  C   -0.244091   0.004053
    22  C   -0.202784   0.002396
    23  H    0.134654   0.001071
    24  H    0.143573   0.000751
    25  H    0.163677  -0.001037
    26  H    0.140809   0.000811
    27  H    0.163314  -0.000055
    28  H    0.134890   0.000269
 Sum of Mulliken charges =  -1.00000   1.00000

 Dipole moment (field-independent basis, Debye):
    X=              1.9362    Y=             -0.8789    Z=             -0.8209  Tot=              2.2793
 Quadrupole moment (field-independent basis, Debye-Ang):
   XX=            -98.9038   YY=           -128.6073   ZZ=           -100.8215
   XY=             11.6147   XZ=             -1.9422   YZ=             -1.8645

 Normal termination of Gaussian 16 at Sun Jan 21 08:34:07 2024.
