 Gaussian 16, Revision A.03,
 Gaussian 16:  ES64L-G16RevA.03 25-Dec-2016

 --------------------------------------
 #P UB3LYP/6-311++G(d,p) nosym opt freq
 --------------------------------------

 -------
 Radical
 -------
 Symbolic Z-matrix:
 Charge = -1 Multiplicity = 2

 SCF Done:  E(UB3LYP) =  -724.714681513     A.U. after   25 cycles
 SCF Done:  E(UB3LYP) =  -724.714681648     A.U. after   11 cycles
 Optimization completed.
    -- Stationary point found.
 Normal termination of Gaussian 16 at Mon Jan  8 01:34:22 2024.

 ----------------------------------------------------------------------
 #P Geom=AllCheck Guess=TCheck SCRF=Check GenChk UB3LYP/6-311++G(d,p) F
 req
 ----------------------------------------------------------------------

 Structure from the checkpoint file:  "273-rad.chk"
 -------
 Radical
 -------
 Charge = -1 Multiplicity = 2

                          Input orientation:
 ---------------------------------------------------------------------
 Center     Atomic      Atomic             Coordinates (Angstroms)
 Number     Number       Type             X           Y           Z
 ---------------------------------------------------------------------
      1          6           0       -0.823197    3.797313   -0.135305
      2          6           0       -1.866715    3.118810    0.467134
      3          6           0       -1.693392    1.783471    0.883615
      4          6           0        0.426529    3.173559   -0.343213
      5          6           0        0.599784    1.823460    0.073709
      6          6           0       -0.474605    1.154559    0.685158
      7          6           0        1.512585    3.907252   -0.975586
      8          6           0        2.766398    3.190743   -1.134016
      9          6           0        2.929881    1.855922   -0.768354
     10          6           0        1.880549    1.111732   -0.124047
     11          8           0        1.402779    5.100143   -1.393467
     12          8           0        2.028149   -0.082448    0.257193
     13          7           0        3.809591    3.923403   -1.665025
     14          1           0       -0.931415    4.824954   -0.463565
     15          1           0       -2.820858    3.615272    0.620941
     16          1           0       -2.512681    1.250450    1.357339
     17          1           0       -0.310171    0.127798    0.992657
     18          1           0        3.501572    4.759725   -2.144132
     19          1           0        4.546806    3.369519   -2.076415
     20          7           0        4.216311    1.255278   -1.042505
     21          6           0        5.021948    1.034649    0.159328
     22          6           0        4.155480    0.064666   -1.892057
     23          1           0        5.098308    1.971286    0.716919
     24          1           0        6.034648    0.727922   -0.132308
     25          1           0        4.595121    0.264630    0.818891
     26          1           0        3.580009    0.296633   -2.792074
     27          1           0        3.687404   -0.793863   -1.392334
     28          1           0        5.173612   -0.207280   -2.199396
 ---------------------------------------------------------------------

 SCF Done:  E(UB3LYP) =  -724.714681648     A.U. after    2 cycles

 Alpha  occ. eigenvalues --  -18.94112 -18.93225 -14.18681 -14.18645 -10.08570
 Alpha  occ. eigenvalues --  -10.08299 -10.07381 -10.06870 -10.06682 -10.05035
 Alpha  occ. eigenvalues --  -10.04923 -10.04867 -10.04297 -10.04245 -10.04165
 Alpha  occ. eigenvalues --  -10.04007  -0.86573  -0.85875  -0.80277  -0.77223
 Alpha  occ. eigenvalues --   -0.72775  -0.65841  -0.62169  -0.60286  -0.58670
 Alpha  occ. eigenvalues --   -0.54674  -0.51576  -0.48287  -0.46213  -0.43388
 Alpha  occ. eigenvalues --   -0.41229  -0.38473  -0.36593  -0.34468  -0.33613
 Alpha  occ. eigenvalues --   -0.33340  -0.32365  -0.31206  -0.29595  -0.29206
 Alpha  occ. eigenvalues --   -0.28489  -0.27461  -0.27292  -0.26391  -0.25045
 Alpha  occ. eigenvalues --   -0.24672  -0.24070  -0.22989  -0.22296  -0.20831
 Alpha  occ. eigenvalues --   -0.19120  -0.13195  -0.12726  -0.12170  -0.10810
 Alpha  occ. eigenvalues --   -0.08945  -0.08294  -0.01212
 Alpha virt. eigenvalues --    0.08234   0.08691   0.09585   0.10196   0.10398
 Alpha virt. eigenvalues --    0.10657   0.11593   0.11950   0.12782   0.13468
 Alpha virt. eigenvalues --    0.13871   0.14072   0.14828   0.15702   0.16125

  Beta  occ. eigenvalues --  -18.93401 -18.92726 -14.18648 -14.18611 -10.08463
  Beta  occ. eigenvalues --  -10.08063 -10.07237 -10.06867 -10.06680 -10.05027
  Beta  occ. eigenvalues --  -10.04896 -10.04772 -10.04286 -10.04263 -10.04123
  Beta  occ. eigenvalues --  -10.03882  -0.85501  -0.84949  -0.80101  -0.77015
  Beta  occ. eigenvalues --   -0.72572  -0.65413  -0.61975  -0.60131  -0.58661
  Beta  occ. eigenvalues --   -0.53970  -0.51274  -0.48071  -0.46035  -0.43158
  Beta  occ. eigenvalues --   -0.41105  -0.38259  -0.36526  -0.34189  -0.33494
  Beta  occ. eigenvalues --   -0.33252  -0.32278  -0.31089  -0.29550  -0.28975
  Beta  occ. eigenvalues --   -0.27824  -0.26944  -0.26667  -0.25954  -0.25001
  Beta  occ. eigenvalues --   -0.24493  -0.23044  -0.22523  -0.20955  -0.20638
  Beta  occ. eigenvalues --   -0.17516  -0.12076  -0.11882  -0.11237  -0.10197
  Beta  occ. eigenvalues --   -0.08405  -0.07574
  Beta virt. eigenvalues --    0.05281   0.08233   0.08682   0.09979   0.10280
  Beta virt. eigenvalues --    0.10556   0.10660   0.11597   0.12774   0.13030
  Beta virt. eigenvalues --    0.13477   0.13867   0.14090   0.14862   0.15696

 Mulliken charges and spin densities:
               1          2
     1  C   -0.148882   0.060001
     2  C   -0.247981   0.004716
     3  C   -0.296975   0.079708
     4  C    0.998558   0.020833
     5  C    0.294589   0.080592
     6  C   -0.010320  -0.001721
     7  C   -0.908217   0.146083
     8  C    0.177613   0.076127
     9  C   -0.208382   0.012143
    10  C   -1.050784   0.043438
    11  O   -0.427379   0.264268
    12  O   -0.352910   0.186264
    13  N   -0.405675   0.039220
    14  H    0.146196  -0.004253
    15  H    0.118284  -0.000830
    16  H    0.120654  -0.005939
    17  H    0.154039   0.000409
    18  H    0.268952  -0.002175
    19  H    0.256368  -0.000529
    20  N    0.202578  -0.007801
    21  C   -0.269844   0.004107
    22  C   -0.218412   0.002278
    23  H    0.131676   0.001619
    24  H    0.103092   0.001199
    25  H    0.172050  -0.001317
    26  H    0.129455   0.001306
    27  H    0.177508  -0.000320
    28  H    0.094147   0.000573
 Sum of Mulliken charges =  -1.00000   1.00000

 Dipole moment (field-independent basis, Debye):
    X=             -6.9580    Y=            -11.8875    Z=              1.5033  Tot=             13.8559
 Quadrupole moment (field-independent basis, Debye-Ang):
   XX=           -118.9604   YY=           -157.5914   ZZ=           -102.9307
   XY=            -13.5953   XZ=              1.3164   YZ=             10.5663

  Exact polarizability: 247.455 -14.933 207.181 -41.123 -28.281 134.777
 Approx polarizability: 351.205  -6.481 372.062 -59.951 -69.188 211.444

                      1                      2                      3
                      A                      A                      A
 Frequencies --     51.6164                65.0681               112.6220
 Red. masses --      2.9331                 4.8880                 4.7224
 Frc consts  --      0.0046                 0.0122                 0.0353
 IR Inten    --      0.1793                 4.6457                 2.7208

                      4                      5                      6
                      A                      A                      A
 Frequencies --    142.7946               163.8660               177.4003
 Red. masses --      4.7244                 3.2860                 3.9783
 Frc consts  --      0.0568                 0.0520                 0.0738
 IR Inten    --      0.8023                 2.4037                 3.1996

                      7                      8                      9
                      A                      A                      A
 Frequencies --    215.6649               223.3312               232.1499
 Red. masses --      1.4805                 2.3240                 1.1683
 Frc consts  --      0.0406                 0.0683                 0.0371
 IR Inten    --      0.3625                 0.1250                 0.6292

                     10                     11                     12
                      A                      A                      A
 Frequencies --    261.8877               278.5913               339.2120
 Red. masses --      3.6937                 3.5577                 3.2347
 Frc consts  --      0.1493                 0.1627                 0.2193
 IR Inten    --      3.4244                 2.4828                 5.8928

                     13                     14                     15
                      A                      A                      A
 Frequencies --    371.5572               378.8957               404.9518
 Red. masses --      7.5512                 4.7693                 4.1199
 Frc consts  --      0.6142                 0.4034                 0.3981
 IR Inten    --     16.9793                 5.7441                 3.0444

                     16                     17                     18
                      A                      A                      A
 Frequencies --    428.2494               441.4075               458.7120
 Red. masses --      5.6421                 4.7628                 3.9771
 Frc consts  --      0.6097                 0.5468                 0.4931
 IR Inten    --      7.2618                 0.4450                 3.4203

                     19                     20                     21
                      A                      A                      A
 Frequencies --    475.6341               516.6035               544.3798
 Red. masses --      3.4149                 7.8297                 1.3215
 Frc consts  --      0.4552                 1.2311                 0.2307
 IR Inten    --      8.7528                 0.2458                75.9547

                     22                     23                     24
                      A                      A                      A
 Frequencies --    568.5474               591.6956               619.7177
 Red. masses --      1.4088                 5.0925                 3.5061
 Frc consts  --      0.2683                 1.0505                 0.7934
 IR Inten    --    176.0390                13.9869                74.5164

                     25                     26                     27
                      A                      A                      A
 Frequencies --    671.5381               713.6019               715.7692
 Red. masses --      5.8737                 2.3118                 5.4182
 Frc consts  --      1.5607                 0.6936                 1.6355
 IR Inten    --      4.1938                46.4996                 2.6853

                     28                     29                     30
                      A                      A                      A
 Frequencies --    719.8775               773.4511               797.6420
 Red. masses --      6.0781                 2.1497                 4.9430
 Frc consts  --      1.8558                 0.7577                 1.8529
 IR Inten    --      5.7787                29.2224                 0.5410

                     31                     32                     33
                      A                      A                      A
 Frequencies --    846.9213               863.3542               881.2414
 Red. masses --      4.3968                 1.4547                 5.2946
 Frc consts  --      1.8581                 0.6389                 2.4226
 IR Inten    --      9.4023                 0.3476                11.7545

                     34                     35                     36
                      A                      A                      A
 Frequencies --    971.5490               977.2260               979.1728
 Red. masses --      1.3203                 1.2921                 3.7966
 Frc consts  --      0.7343                 0.7270                 2.1447
 IR Inten    --      1.9304                 0.8908                72.3671

                     37                     38                     39
                      A                      A                      A
 Frequencies --   1034.5949              1052.4323              1053.1729
 Red. masses --      2.3202                 1.9131                 2.3108
 Frc consts  --      1.4633                 1.2485                 1.5101
 IR Inten    --     15.1309                12.5655                14.3169

                     40                     41                     42
                      A                      A                      A
 Frequencies --   1102.5020              1104.2976              1145.1354
 Red. masses --      1.2437                 2.0776                 1.4391
 Frc consts  --      0.8907                 1.4927                 1.1118
 IR Inten    --      3.1236                 2.8819                15.1421

                     43                     44                     45
                      A                      A                      A
 Frequencies --   1167.5660              1170.7486              1196.2698
 Red. masses --      1.5237                 1.6078                 2.5899
 Frc consts  --      1.2238                 1.2984                 2.1837
 IR Inten    --     17.1401                11.0874                17.4761

                     46                     47                     48
                      A                      A                      A
 Frequencies --   1221.7375              1228.0082              1243.5856
 Red. masses --      3.2055                 1.9355                 3.2450
 Frc consts  --      2.8191                 1.7197                 2.9567
 IR Inten    --     12.8616                16.4160                24.2973

                     49                     50                     51
                      A                      A                      A
 Frequencies --   1300.1578              1313.0310              1353.9959
 Red. masses --      2.3332                 2.9897                 9.6312
 Frc consts  --      2.3238                 3.0369                10.4032
 IR Inten    --     25.9739                35.4248                37.7864

                     52                     53                     54
                      A                      A                      A
 Frequencies --   1417.0508              1419.3614              1443.4803
 Red. masses --      2.8703                 1.1854                 1.3736
 Frc consts  --      3.3959                 1.4070                 1.6863
 IR Inten    --     33.5007                 2.4911                86.1545

                     55                     56                     57
                      A                      A                      A
 Frequencies --   1456.7767              1468.8655              1471.2393
 Red. masses --      2.5489                 1.2355                 1.5749
 Frc consts  --      3.1871                 1.5706                 2.0085
 IR Inten    --    130.6054                12.5187                23.2082

                     58                     59                     60
                      A                      A                      A
 Frequencies --   1480.5630              1509.2820              1513.5987
 Red. masses --      1.2221                 1.0701                 4.0261
 Frc consts  --      1.5783                 1.4362                 5.4344
 IR Inten    --     21.2562                13.1935               416.2803

                     61                     62                     63
                      A                      A                      A
 Frequencies --   1521.9224              1537.6408              1539.5130
 Red. masses --      1.2859                 3.6136                 2.8304
 Frc consts  --      1.7549                 5.0339                 3.9524
 IR Inten    --     29.0268               154.1262                39.0202

                     64                     65                     66
                      A                      A                      A
 Frequencies --   1567.6164              1611.8909              1622.9368
 Red. masses --      2.0052                 5.8414                 6.2695
 Frc consts  --      2.9033                 8.9421                 9.7294
 IR Inten    --     67.2530                27.5499                33.3128

                     67                     68                     69
                      A                      A                      A
 Frequencies --   2964.1998              2977.8919              3014.2316
 Red. masses --      1.0394                 1.0365                 1.0974
 Frc consts  --      5.3808                 5.4157                 5.8742
 IR Inten    --     90.1547               168.4821                96.3068

                     70                     71                     72
                      A                      A                      A
 Frequencies --   3021.8076              3073.5052              3079.0951
 Red. masses --      1.1031                 1.0972                 1.0965
 Frc consts  --      5.9346                 6.1066                 6.1249
 IR Inten    --     41.4292                37.3785                35.0707

                     73                     74                     75
                      A                      A                      A
 Frequencies --   3129.5649              3149.3892              3177.7218
 Red. masses --      1.0844                 1.0910                 1.0911
 Frc consts  --      6.2577                 6.3755                 6.4918
 IR Inten    --     17.0973                52.9971                14.2311

                     76                     77                     78
                      A                      A                      A
 Frequencies --   3180.4398              3529.3260              3657.6331
 Red. masses --      1.0928                 1.0436                 1.1016
 Frc consts  --      6.5125                 7.6586                 8.6833
 IR Inten    --     27.6242                 8.6774                42.2594

 - Thermochemistry -
 -------------------
 Temperature   298.150 Kelvin.  Pressure   1.00000 Atm.
 Atom     1 has atomic number  6 and mass  12.00000

 Molecular mass:   216.08988 amu.
 Principal axes and moments of inertia in atomic units:
                           1         2         3
     Eigenvalues --  2021.709274066.380115729.29879
           X            0.93178   0.19380   0.30696
           Y           -0.28901   0.90770   0.30423
           Z           -0.21967  -0.37219   0.90179
 This molecule is an asymmetric top.
 Rotational symmetry number  1.
 Warning -- assumption of classical behavior for rotation
           may cause significant error
 Rotational temperatures (Kelvin)      0.04284     0.02130     0.01512
 Rotational constants (GHZ):           0.89268     0.44382     0.31500
 Zero-point vibrational energy     575401.9 (Joules/Mol)
                                  137.52435 (Kcal/Mol)
 Warning -- explicit consideration of  24 degrees of freedom as
           vibrations may cause significant error
 Vibrational temperatures:     74.26    93.62   162.04   205.45   235.77
          (Kelvin)            255.24   310.29   321.32   334.01   376.80
                              400.83   488.05   534.59   545.15   582.64
                              616.16   635.09   659.98   684.33   743.28
                              783.24   818.01   851.32   891.64   966.19
                             1026.71  1029.83  1035.74  1112.82  1147.63
                             1218.53  1242.17  1267.91  1397.84  1406.01
                             1408.81  1488.55  1514.22  1515.28  1586.25
                             1588.84  1647.59  1679.87  1684.45  1721.17
                             1757.81  1766.83  1789.24  1870.64  1889.16
                             1948.10  2038.82  2042.14  2076.85  2095.98
                             2113.37  2116.79  2130.20  2171.52  2177.73
                             2189.71  2212.32  2215.02  2255.45  2319.15
                             2335.04  4264.82  4284.52  4336.81  4347.71
                             4422.09  4430.13  4502.75  4531.27  4572.03
                             4575.94  5077.91  5262.52

 Zero-point correction=                           0.219159 (Hartree/Particle)
 Thermal correction to Energy=                    0.233281
 Thermal correction to Enthalpy=                  0.234225
 Thermal correction to Gibbs Free Energy=         0.178229
 Sum of electronic and zero-point Energies=           -724.495523
 Sum of electronic and thermal Energies=              -724.481400
 Sum of electronic and thermal Enthalpies=            -724.480456
 Sum of electronic and thermal Free Energies=         -724.536453

                     E (Thermal)             CV                S
                      KCal/Mol        Cal/Mol-Kelvin    Cal/Mol-Kelvin
 Total                  146.386             55.464            117.855
 Electronic               0.000              0.000              1.377
 Translational            0.889              2.981             42.015
 Rotational               0.889              2.981             32.221
 Vibrational            144.609             49.502             42.241
 Vibration     1          0.596              1.977              4.754
 Vibration     2          0.597              1.971              4.297
 Vibration     3          0.607              1.939              3.223
 Vibration     4          0.616              1.910              2.766
 Vibration     5          0.623              1.887              2.505
 Vibration     6          0.628              1.870              2.356
 Vibration     7          0.645              1.817              1.995
 Vibration     8          0.649              1.806              1.932
 Vibration     9          0.653              1.792              1.862
 Vibration    10          0.669              1.743              1.649
 Vibration    11          0.679              1.713              1.542
 Vibration    12          0.719              1.597              1.216
 Vibration    13          0.743              1.531              1.073
 Vibration    14          0.749              1.515              1.044
 Vibration    15          0.770              1.459              0.945
 Vibration    16          0.790              1.409              0.864
 Vibration    17          0.801              1.380              0.822
 Vibration    18          0.817              1.342              0.770
 Vibration    19          0.832              1.304              0.722
 Vibration    20          0.872              1.213              0.618
 Vibration    21          0.900              1.152              0.556
 Vibration    22          0.925              1.099              0.507
 Vibration    23          0.949              1.049              0.464
 Vibration    24          0.980              0.990              0.417

                           ! Non-Optimized Parameters !
 Normal termination of Gaussian 16 at Mon Jan  8 02:39:34 2024.
