 Gaussian 16, Revision A.03,
 Gaussian 16:  ES64L-G16RevA.03 25-Dec-2016

 --------------------------------------
 #P UB3LYP/6-311++G(d,p) nosym opt freq
 --------------------------------------

 --------
 Oxidized
 --------
 Symbolic Z-matrix:
 Charge =  0 Multiplicity = 1

 SCF Done:  E(UB3LYP) =  -696.130393880     A.U. after   16 cycles
 SCF Done:  E(UB3LYP) =  -696.144834485     A.U. after   14 cycles
 SCF Done:  E(UB3LYP) =  -696.131506922     A.U. after   14 cycles
 SCF Done:  E(UB3LYP) =  -696.152582906     A.U. after   15 cycles
 SCF Done:  E(UB3LYP) =  -696.155407013     A.U. after   13 cycles
 SCF Done:  E(UB3LYP) =  -696.155122320     A.U. after   13 cycles
 SCF Done:  E(UB3LYP) =  -696.155962201     A.U. after   13 cycles
 SCF Done:  E(UB3LYP) =  -696.155923542     A.U. after   13 cycles
 SCF Done:  E(UB3LYP) =  -696.156191728     A.U. after   13 cycles
 SCF Done:  E(UB3LYP) =  -696.156252568     A.U. after   12 cycles
 SCF Done:  E(UB3LYP) =  -696.156570063     A.U. after   12 cycles
 SCF Done:  E(UB3LYP) =  -696.156571022     A.U. after   11 cycles
 SCF Done:  E(UB3LYP) =  -696.156572525     A.U. after   11 cycles
 SCF Done:  E(UB3LYP) =  -696.156573814     A.U. after   11 cycles
 SCF Done:  E(UB3LYP) =  -696.156574492     A.U. after   11 cycles
 SCF Done:  E(UB3LYP) =  -696.156574784     A.U. after   11 cycles
 SCF Done:  E(UB3LYP) =  -696.156574842     A.U. after    9 cycles
 SCF Done:  E(UB3LYP) =  -696.156574853     A.U. after    8 cycles
 SCF Done:  E(UB3LYP) =  -696.156574856     A.U. after    8 cycles
 Optimization completed.
    -- Stationary point found.
 Normal termination of Gaussian 16 at Mon Dec 18 00:14:02 2023.

 ----------------------------------------------------------------------
 #P Geom=AllCheck Guess=TCheck SCRF=Check GenChk UB3LYP/6-311++G(d,p) F
 req
 ----------------------------------------------------------------------

 Structure from the checkpoint file:  "043.chk"
 --------
 Oxidized
 --------
 Charge =  0 Multiplicity = 1

                          Input orientation:
 ---------------------------------------------------------------------
 Center     Atomic      Atomic             Coordinates (Angstroms)
 Number     Number       Type             X           Y           Z
 ---------------------------------------------------------------------
      1          6           0        0.817440    1.635581   -0.676127
      2          6           0       -0.557668    1.000091   -0.627003
      3          6           0       -0.681508   -0.229204   -0.058267
      4          6           0        0.580375   -0.972912    0.331393
      5          6           0        1.932610   -0.352246    0.223947
      6          6           0        2.043704    0.909036   -0.236000
      7          6           0        3.319986    1.690033   -0.372739
      8          6           0        3.065357   -1.232052    0.671469
      9          8           0        0.945963    2.783704   -1.079033
     10          8           0        0.509510   -2.123283    0.742069
     11          1           0        4.181285    1.150260    0.013712
     12          1           0        3.235488    2.643350    0.154415
     13          1           0        3.503757    1.941069   -1.421279
     14          1           0        3.040202   -2.181209    0.130824
     15          1           0        2.957092   -1.485526    1.729903
     16          1           0        4.037045   -0.767702    0.520741
     17          6           0       -1.927755   -1.064222    0.240605
     18          6           0       -3.115272   -0.342629    0.896201
     19          6           0       -2.347873   -1.946334   -0.955860
     20          6           0       -1.616077    1.929620   -1.223325
     21          6           0       -2.255349    2.853566   -0.163257
     22          6           0       -2.650820    1.299274   -2.168187
     23          1           0       -1.578061   -1.774786    0.990641
     24          1           0       -3.814183   -1.095687    1.272606
     25          1           0       -3.672568    0.303965    0.220969
     26          1           0       -2.789403    0.257032    1.749949
     27          1           0       -3.138032   -2.634867   -0.641610
     28          1           0       -1.505697   -2.548286   -1.304372
     29          1           0       -2.723228   -1.363858   -1.796992
     30          1           0       -1.031372    2.603035   -1.851291
     31          1           0       -2.880932    3.600894   -0.660581
     32          1           0       -1.484372    3.388579    0.395701
     33          1           0       -2.878697    2.311216    0.547322
     34          1           0       -3.168985    2.102266   -2.701083
     35          1           0       -3.411076    0.704873   -1.664881
     36          1           0       -2.166758    0.668279   -2.918009
 ---------------------------------------------------------------------

 SCF Done:  E(UB3LYP) =  -696.156574856     A.U. after    1 cycles

 Alpha  occ. eigenvalues --  -19.12836 -19.12835 -10.27412 -10.27411 -10.21014
 Alpha  occ. eigenvalues --  -10.20977 -10.20945 -10.20900 -10.18538 -10.18536
 Alpha  occ. eigenvalues --  -10.17729 -10.17728 -10.16507 -10.16507 -10.16286
 Alpha  occ. eigenvalues --  -10.16286  -1.06315  -1.06109  -0.86303  -0.83560
 Alpha  occ. eigenvalues --   -0.80035  -0.76629  -0.75197  -0.69575  -0.69379
 Alpha  occ. eigenvalues --   -0.68949  -0.67841  -0.62101  -0.60451  -0.57375
 Alpha  occ. eigenvalues --   -0.54186  -0.53348  -0.48773  -0.46596  -0.46084
 Alpha  occ. eigenvalues --   -0.45590  -0.45317  -0.45117  -0.43553  -0.43236
 Alpha  occ. eigenvalues --   -0.42925  -0.42634  -0.41151  -0.41043  -0.39882
 Alpha  occ. eigenvalues --   -0.39694  -0.39586  -0.39284  -0.38597  -0.38409
 Alpha  occ. eigenvalues --   -0.36255  -0.35424  -0.35071  -0.35058  -0.33364
 Alpha  occ. eigenvalues --   -0.32555  -0.28993  -0.28352  -0.26738  -0.25931
 Alpha virt. eigenvalues --   -0.12021  -0.01754  -0.01405  -0.00417   0.00317
 Alpha virt. eigenvalues --    0.00607   0.00955   0.01687   0.01741   0.02620
 Alpha virt. eigenvalues --    0.02811   0.03183   0.04071   0.04306   0.04707

  Beta  occ. eigenvalues --  -19.12836 -19.12835 -10.27412 -10.27411 -10.21014
  Beta  occ. eigenvalues --  -10.20977 -10.20945 -10.20900 -10.18538 -10.18536
  Beta  occ. eigenvalues --  -10.17729 -10.17728 -10.16507 -10.16507 -10.16286
  Beta  occ. eigenvalues --  -10.16286  -1.06315  -1.06109  -0.86303  -0.83560
  Beta  occ. eigenvalues --   -0.80035  -0.76629  -0.75197  -0.69575  -0.69379
  Beta  occ. eigenvalues --   -0.68949  -0.67841  -0.62101  -0.60451  -0.57375
  Beta  occ. eigenvalues --   -0.54186  -0.53348  -0.48773  -0.46596  -0.46084
  Beta  occ. eigenvalues --   -0.45590  -0.45317  -0.45117  -0.43553  -0.43236
  Beta  occ. eigenvalues --   -0.42925  -0.42634  -0.41151  -0.41043  -0.39882
  Beta  occ. eigenvalues --   -0.39694  -0.39586  -0.39284  -0.38597  -0.38409
  Beta  occ. eigenvalues --   -0.36255  -0.35424  -0.35071  -0.35058  -0.33364
  Beta  occ. eigenvalues --   -0.32555  -0.28993  -0.28352  -0.26738  -0.25931
  Beta virt. eigenvalues --   -0.12021  -0.01754  -0.01405  -0.00417   0.00317
  Beta virt. eigenvalues --    0.00607   0.00955   0.01687   0.01741   0.02620
  Beta virt. eigenvalues --    0.02811   0.03183   0.04071   0.04306   0.04707

 Mulliken charges and spin densities:
               1          2
     1  C   -1.198177   0.000000
     2  C    1.021140  -0.000000
     3  C    1.019664  -0.000000
     4  C   -1.197851   0.000000
     5  C    0.300501  -0.000000
     6  C    0.301916   0.000000
     7  C   -0.475367   0.000000
     8  C   -0.475334  -0.000000
     9  O   -0.165194   0.000000
    10  O   -0.165219  -0.000000
    11  H    0.112503   0.000000
    12  H    0.192135  -0.000000
    13  H    0.189047  -0.000000
    14  H    0.192101   0.000000
    15  H    0.189078   0.000000
    16  H    0.112496  -0.000000
    17  C    0.174541   0.000000
    18  C   -0.613419   0.000000
    19  C   -0.651080   0.000000
    20  C    0.175151   0.000000
    21  C   -0.651244   0.000000
    22  C   -0.614160   0.000000
    23  H    0.233836  -0.000000
    24  H    0.162820  -0.000000
    25  H    0.123913  -0.000000
    26  H    0.141465   0.000000
    27  H    0.147946  -0.000000
    28  H    0.180612  -0.000000
    29  H    0.122880  -0.000000
    30  H    0.233908  -0.000000
    31  H    0.147907  -0.000000
    32  H    0.180512   0.000000
    33  H    0.122744   0.000000
    34  H    0.162793   0.000000
    35  H    0.123886  -0.000000
    36  H    0.141550   0.000000
 Sum of Mulliken charges =  -0.00000   0.00000

 Dipole moment (field-independent basis, Debye):
    X=              0.1103    Y=             -0.0051    Z=              0.0139  Tot=              0.1113
 Quadrupole moment (field-independent basis, Debye-Ang):
   XX=            -89.6646   YY=           -110.8068   ZZ=            -99.4626
   XY=             -1.3332   XZ=              1.4226   YZ=              3.8486

  Exact polarizability: 185.214   3.912 200.836   5.708 -25.532 133.459
 Approx polarizability: 231.070  13.870 363.485  -0.566 -65.125 214.123

                      1                      2                      3
                      A                      A                      A
 Frequencies --     23.3843                40.6997                55.4070
 Red. masses --      5.0763                 3.9237                 1.4569
 Frc consts  --      0.0016                 0.0038                 0.0026
 IR Inten    --      5.4318                 0.0035                 0.0047

                      4                      5                      6
                      A                      A                      A
 Frequencies --     75.5296                82.8613               102.8416
 Red. masses --      1.2527                 2.0875                 1.8661
 Frc consts  --      0.0042                 0.0084                 0.0116
 IR Inten    --      0.0689                 2.5195                 0.0062

                      7                      8                      9
                      A                      A                      A
 Frequencies --    139.2721               160.0417               181.4232
 Red. masses --      2.5707                 2.2171                 1.7097
 Frc consts  --      0.0294                 0.0335                 0.0332
 IR Inten    --      0.0039                 0.2128                 0.5807

                     10                     11                     12
                      A                      A                      A
 Frequencies --    190.0627               208.3673               221.1924
 Red. masses --      1.2150                 1.7311                 3.2974
 Frc consts  --      0.0259                 0.0443                 0.0951
 IR Inten    --      0.0452                 0.4991                 0.0002

                     13                     14                     15
                      A                      A                      A
 Frequencies --    236.3160               238.4001               253.4583
 Red. masses --      2.9148                 2.2633                 1.1008
 Frc consts  --      0.0959                 0.0758                 0.0417
 IR Inten    --      0.0798                 0.1816                 0.0201

                     16                     17                     18
                      A                      A                      A
 Frequencies --    260.9020               279.0867               288.2377
 Red. masses --      1.7517                 1.6196                 2.6815
 Frc consts  --      0.0703                 0.0743                 0.1313
 IR Inten    --      0.0313                 0.0688                 0.4552

                     19                     20                     21
                      A                      A                      A
 Frequencies --    341.2683               362.1927               413.1111
 Red. masses --      3.2953                 2.6850                 2.8682
 Frc consts  --      0.2261                 0.2075                 0.2884
 IR Inten    --      0.0054                 0.8366                 0.1391

                     22                     23                     24
                      A                      A                      A
 Frequencies --    432.7865               439.1006               444.7505
 Red. masses --      4.4181                 4.9175                 3.6423
 Frc consts  --      0.4876                 0.5586                 0.4245
 IR Inten    --      3.2949                 0.0960                 0.0038

                     25                     26                     27
                      A                      A                      A
 Frequencies --    456.5219               490.9734               491.9343
 Red. masses --      6.3792                 4.1441                 4.6414
 Frc consts  --      0.7833                 0.5886                 0.6618
 IR Inten    --     27.5878                 2.5470                 2.8045

                     28                     29                     30
                      A                      A                      A
 Frequencies --    557.6488               594.9706               633.7774
 Red. masses --      3.1254                 4.2971                 5.0644
 Frc consts  --      0.5726                 0.8962                 1.1985
 IR Inten    --      0.1180                 2.5478                 0.2389

                     31                     32                     33
                      A                      A                      A
 Frequencies --    711.6743               745.8327               772.1772
 Red. masses --      3.3740                 6.0787                 4.7450
 Frc consts  --      1.0068                 1.9922                 1.6669
 IR Inten    --      4.0388                16.1935                 9.8176

                     34                     35                     36
                      A                      A                      A
 Frequencies --    819.8774               852.6270               883.9306
 Red. masses --      7.5564                 3.1196                 2.8545
 Frc consts  --      2.9927                 1.3362                 1.3141
 IR Inten    --      1.1039                 2.6142                 2.0186

                     37                     38                     39
                      A                      A                      A
 Frequencies --    905.6325               931.8931               941.3775
 Red. masses --      2.4019                 1.2009                 1.2026
 Frc consts  --      1.1607                 0.6144                 0.6279
 IR Inten    --     16.8274                 1.3153                 2.3683

                     40                     41                     42
                      A                      A                      A
 Frequencies --    965.2362               971.5561               977.1605
 Red. masses --      1.9654                 1.5870                 1.7544
 Frc consts  --      1.0789                 0.8826                 0.9870
 IR Inten    --      4.2921                 0.6367                 0.8590

                     43                     44                     45
                      A                      A                      A
 Frequencies --    978.2595              1029.1808              1061.2740
 Red. masses --      1.7745                 1.4704                 1.5839
 Frc consts  --      1.0005                 0.9176                 1.0511
 IR Inten    --      4.7339                 0.2080                 0.1205

                     46                     47                     48
                      A                      A                      A
 Frequencies --   1095.5098              1108.1045              1115.0124
 Red. masses --      2.3348                 1.5416                 2.3212
 Frc consts  --      1.6510                 1.1153                 1.7003
 IR Inten    --     35.9129                11.8809                 9.8035

                     49                     50                     51
                      A                      A                      A
 Frequencies --   1124.0371              1135.8311              1150.7078
 Red. masses --      2.7757                 2.4428                 2.4586
 Frc consts  --      2.0662                 1.8568                 1.9181
 IR Inten    --     26.2522                 5.9031                19.7895

                     52                     53                     54
                      A                      A                      A
 Frequencies --   1164.7879              1203.2263              1239.0612
 Red. masses --      2.5185                 2.1071                 2.6833
 Frc consts  --      2.0132                 1.7974                 2.4272
 IR Inten    --     34.8458                20.6371                15.7282

                     55                     56                     57
                      A                      A                      A
 Frequencies --   1268.1079              1329.7555              1360.8944
 Red. masses --      9.6720                 3.8567                 1.2652
 Frc consts  --      9.1638                 4.0180                 1.3806
 IR Inten    --    176.7505                 8.1603                 0.6079

                     58                     59                     60
                      A                      A                      A
 Frequencies --   1362.1971              1397.0540              1397.5321
 Red. masses --      1.2525                 1.2050                 1.2089
 Frc consts  --      1.3693                 1.3857                 1.3912
 IR Inten    --      1.6353                10.1985                 2.4378

                     61                     62                     63
                      A                      A                      A
 Frequencies --   1409.3945              1412.1508              1413.3527
 Red. masses --      1.3037                 1.3620                 1.2222
 Frc consts  --      1.5258                 1.6003                 1.4385
 IR Inten    --      1.6968                27.6119                 2.8544

                     64                     65                     66
                      A                      A                      A
 Frequencies --   1421.1500              1427.8805              1435.2135
 Red. masses --      1.2017                 1.2040                 1.3406
 Frc consts  --      1.4299                 1.4463                 1.6269
 IR Inten    --      5.1673                 2.0013                 8.8323

                     67                     68                     69
                      A                      A                      A
 Frequencies --   1470.5791              1472.2440              1477.9564
 Red. masses --      1.0440                 1.0470                 1.0448
 Frc consts  --      1.3302                 1.3370                 1.3447
 IR Inten    --      0.0398                 9.6654                10.6795

                     70                     71                     72
                      A                      A                      A
 Frequencies --   1486.7327              1488.2594              1494.5825
 Red. masses --      1.0444                 1.0918                 1.0455
 Frc consts  --      1.3602                 1.4248                 1.3760
 IR Inten    --      6.1883                 5.3290                 0.2025

                     73                     74                     75
                      A                      A                      A
 Frequencies --   1495.0860              1497.1589              1503.2808
 Red. masses --      1.0488                 1.0451                 1.0497
 Frc consts  --      1.3813                 1.3803                 1.3977
 IR Inten    --      2.8493                 0.1075                11.1102

                     76                     77                     78
                      A                      A                      A
 Frequencies --   1515.4458              1515.6963              1522.5389
 Red. masses --      1.0540                 1.0503                 1.0592
 Frc consts  --      1.4262                 1.4216                 1.4467
 IR Inten    --      0.0066                 7.6410                14.3522

                     79                     80                     81
                      A                      A                      A
 Frequencies --   1632.6488              1691.7843              1692.8626
 Red. masses --      7.1006                12.2811                12.2752
 Frc consts  --     11.1515                20.7098                20.7263
 IR Inten    --     30.8647               426.4014                 0.2431

                     82                     83                     84
                      A                      A                      A
 Frequencies --   1709.6391              3031.2762              3031.3462
 Red. masses --      7.7786                 1.0396                 1.0404
 Frc consts  --     13.3955                 5.6284                 5.6330
 IR Inten    --     23.3644                 0.8720                47.3420

                     85                     86                     87
                      A                      A                      A
 Frequencies --   3033.9753              3036.3938              3042.5761
 Red. masses --      1.0393                 1.0420                 1.0395
 Frc consts  --      5.6363                 5.6605                 5.6696
 IR Inten    --     38.3261                45.5367                 6.6556

                     88                     89                     90
                      A                      A                      A
 Frequencies --   3045.0574              3069.0798              3070.9469
 Red. masses --      1.0417                 1.0831                 1.0818
 Frc consts  --      5.6909                 6.0109                 6.0108
 IR Inten    --     11.3367                 1.5103                 7.3611

                     91                     92                     93
                      A                      A                      A
 Frequencies --   3084.0499              3085.1399              3088.4233
 Red. masses --      1.1003                 1.0997                 1.0973
 Frc consts  --      6.1663                 6.1669                 6.1668
 IR Inten    --      9.5656                44.1985                 0.2993

                     94                     95                     96
                      A                      A                      A
 Frequencies --   3088.5768              3092.8827              3093.1645
 Red. masses --      1.0972                 1.0988                 1.0987
 Frc consts  --      6.1668                 6.1927                 6.1937
 IR Inten    --     14.3337                23.5507                41.6218

                     97                     98                     99
                      A                      A                      A
 Frequencies --   3125.8725              3126.6101              3128.8312
 Red. masses --      1.0991                 1.0982                 1.0978
 Frc consts  --      6.3276                 6.3250                 6.3322
 IR Inten    --      2.9817                46.4726                 2.7417

                    100                    101                    102
                      A                      A                      A
 Frequencies --   3138.8370              3144.7806              3155.0724
 Red. masses --      1.1011                 1.0924                 1.0958
 Frc consts  --      6.3916                 6.3653                 6.4266
 IR Inten    --      3.1291                17.7635                28.4967

 - Thermochemistry -
 -------------------
 Temperature   298.150 Kelvin.  Pressure   1.00000 Atm.
 Atom     1 has atomic number  6 and mass  12.00000

 Molecular mass:   220.14633 amu.
 Principal axes and moments of inertia in atomic units:
                           1         2         3
     Eigenvalues --  2659.435593825.970215769.39882
           X            0.99094   0.07847  -0.10897
           Y           -0.04071   0.94885   0.31308
           Z            0.12797  -0.30581   0.94345
 This molecule is an asymmetric top.
 Rotational symmetry number  1.
 Warning -- assumption of classical behavior for rotation
           may cause significant error
 Rotational temperatures (Kelvin)      0.03257     0.02264     0.01501
 Rotational constants (GHZ):           0.67862     0.47171     0.31281
 Zero-point vibrational energy     811035.6 (Joules/Mol)
                                  193.84215 (Kcal/Mol)
 Warning -- explicit consideration of  29 degrees of freedom as
           vibrations may cause significant error
 Vibrational temperatures:     33.64    58.56    79.72   108.67   119.22
          (Kelvin)            147.97   200.38   230.26   261.03   273.46
                              299.79   318.25   340.01   343.00   364.67
                              375.38   401.54   414.71   491.01   521.11
                              594.37   622.68   631.77   639.90   656.83
                              706.40   707.78   802.33   856.03   911.86
                             1023.94  1073.09  1110.99  1179.62  1226.74
                             1271.78  1303.00  1340.79  1354.43  1388.76
                             1397.85  1405.92  1407.50  1480.76  1526.94
                             1576.19  1594.32  1604.25  1617.24  1634.21
                             1655.61  1675.87  1731.17  1782.73  1824.52
                             1913.22  1958.02  1959.90  2010.05  2010.74
                             2027.80  2031.77  2033.50  2044.72  2054.40
                             2064.95  2115.84  2118.23  2126.45  2139.08
                             2141.27  2150.37  2151.10  2154.08  2162.89
                             2180.39  2180.75  2190.59  2349.02  2434.10
                             2435.65  2459.79  4361.33  4361.43  4365.21
                             4368.69  4377.59  4381.16  4415.72  4418.41
                             4437.26  4438.83  4443.55  4443.77  4449.97
                             4450.37  4497.43  4498.49  4501.69  4516.09
                             4524.64  4539.45

 Zero-point correction=                           0.308907 (Hartree/Particle)
 Thermal correction to Energy=                    0.327221
 Thermal correction to Enthalpy=                  0.328165
 Thermal correction to Gibbs Free Energy=         0.262506
 Sum of electronic and zero-point Energies=           -695.847668
 Sum of electronic and thermal Energies=              -695.829354
 Sum of electronic and thermal Enthalpies=            -695.828410
 Sum of electronic and thermal Free Energies=         -695.894069

                     E (Thermal)             CV                S
                      KCal/Mol        Cal/Mol-Kelvin    Cal/Mol-Kelvin
 Total                  205.334             67.421            138.191
 Electronic               0.000              0.000              0.000
 Translational            0.889              2.981             42.070
 Rotational               0.889              2.981             32.440
 Vibrational            203.557             61.459             63.681
 Vibration     1          0.593              1.985              6.324
 Vibration     2          0.594              1.981              5.225
 Vibration     3          0.596              1.975              4.614
 Vibration     4          0.599              1.965              4.004
 Vibration     5          0.600              1.961              3.822
 Vibration     6          0.605              1.947              3.400
 Vibration     7          0.615              1.914              2.814
 Vibration     8          0.622              1.891              2.549
 Vibration     9          0.630              1.865              2.314
 Vibration    10          0.633              1.854              2.227
 Vibration    11          0.642              1.828              2.058
 Vibration    12          0.648              1.809              1.949
 Vibration    13          0.655              1.785              1.830
 Vibration    14          0.656              1.782              1.815
 Vibration    15          0.665              1.757              1.706
 Vibration    16          0.669              1.744              1.656
 Vibration    17          0.679              1.712              1.539
 Vibration    18          0.685              1.696              1.484
 Vibration    19          0.721              1.593              1.206
 Vibration    20          0.736              1.550              1.113
 Vibration    21          0.777              1.442              0.916
 Vibration    22          0.794              1.399              0.850
 Vibration    23          0.799              1.385              0.829
 Vibration    24          0.804              1.372              0.812
 Vibration    25          0.815              1.346              0.776
 Vibration    26          0.847              1.270              0.681
 Vibration    27          0.848              1.268              0.679
 Vibration    28          0.913              1.123              0.529
 Vibration    29          0.953              1.042              0.458

 Optimization completed.
    -- Stationary point found.
 Normal termination of Gaussian 16 at Mon Dec 18 01:01:17 2023.
