 Q-Chem 5.4, Q-Chem, Inc., Pleasanton, CA (2021)
 Q-Chem 5.4.0 for Intel X86 EM64T Linux

User input:
--------------------------------------------------------------
$molecule
0 1
C                 -3.1935410000      1.7786740000      0.5667680000
C                 -3.8224880000      1.6710400000     -0.7709630000
C                 -3.5460500000      0.6451190000     -1.5798510000
C                 -2.5944080000     -0.4144060000     -1.1702770000
C                 -1.9321930000     -0.3131670000      0.1680820000
C                 -2.2212350000      0.7215640000      0.9954360000
O                 -3.4756980000      2.7167350000      1.2965230000
O                 -2.3663920000     -1.3487750000     -1.9252330000
C                 -1.6049840000      0.9146450000      2.3522230000
C                 -0.9455040000     -1.4132830000      0.5025410000
C                  0.4940420000     -1.0561430000      0.1522190000
C                  0.9223540000     -1.0118390000     -1.1782300000
C                  1.4300650000     -0.7744080000      1.1520360000
C                  2.7478520000     -0.4528890000      0.8348420000
C                  2.2409640000     -0.6880590000     -1.4906200000
C                  3.1796870000     -0.3995130000     -0.4949380000
C                  4.6162510000     -0.0509700000     -0.8562420000
C                  4.9932480000      1.3731100000     -0.4088410000
C                  5.6149590000     -1.0864020000     -0.3076370000
H                 -4.5120630000      2.4651870000     -1.0345750000
H                 -3.9902920000      0.5275430000     -2.5619690000
H                 -1.5020910000     -0.0313320000      2.8868620000
H                 -2.2076990000      1.6004870000      2.9457470000
H                 -0.6037750000      1.3483590000      2.2590800000
H                 -1.2366380000     -2.3084950000     -0.0499600000
H                 -1.0061790000     -1.6470590000      1.5671260000
H                  0.2230400000     -1.2444360000     -1.9735470000
H                  1.1315050000     -0.8179060000      2.1946160000
H                  3.4449200000     -0.2464090000      1.6403250000
H                  2.5474750000     -0.6657370000     -2.5320250000
H                  4.6826270000     -0.0792510000     -1.9498690000
H                  4.3063340000      2.1137280000     -0.8262870000
H                  6.0062100000      1.6243210000     -0.7374550000
H                  4.9647850000      1.4679010000      0.6808390000
H                  5.3693430000     -2.0939590000     -0.6526590000
H                  5.6138520000     -1.0984910000      0.7864560000
H                  6.6319670000     -0.8518150000     -0.6360840000
$end
$rem
MAX_SCF_CYCLES=200
BASIS  =  6-311++G(d,p)
GUI  =  2
JOB_TYPE  =  SP
METHOD  =  B3LYP
SOLVENT_METHOD = PCM
$end
$pcm
theory = CPCM
$end
$solvent
dielectric 37.219
opticaldielectric 1.43
$end

--------------------------------------------------------------

             Standard Nuclear Orientation (Angstroms)
    I     Atom           X                Y                Z
 ----------------------------------------------------------------
    1      C      -3.1935410000     1.7786740000     0.5667680000
    2      C      -3.8224880000     1.6710400000    -0.7709630000
    3      C      -3.5460500000     0.6451190000    -1.5798510000
    4      C      -2.5944080000    -0.4144060000    -1.1702770000
    5      C      -1.9321930000    -0.3131670000     0.1680820000
    6      C      -2.2212350000     0.7215640000     0.9954360000
    7      O      -3.4756980000     2.7167350000     1.2965230000
    8      O      -2.3663920000    -1.3487750000    -1.9252330000
    9      C      -1.6049840000     0.9146450000     2.3522230000
   10      C      -0.9455040000    -1.4132830000     0.5025410000
   11      C       0.4940420000    -1.0561430000     0.1522190000
   12      C       0.9223540000    -1.0118390000    -1.1782300000
   13      C       1.4300650000    -0.7744080000     1.1520360000
   14      C       2.7478520000    -0.4528890000     0.8348420000
   15      C       2.2409640000    -0.6880590000    -1.4906200000
   16      C       3.1796870000    -0.3995130000    -0.4949380000
   17      C       4.6162510000    -0.0509700000    -0.8562420000
   18      C       4.9932480000     1.3731100000    -0.4088410000
   19      C       5.6149590000    -1.0864020000    -0.3076370000
   20      H      -4.5120630000     2.4651870000    -1.0345750000
   21      H      -3.9902920000     0.5275430000    -2.5619690000
   22      H      -1.5020910000    -0.0313320000     2.8868620000
   23      H      -2.2076990000     1.6004870000     2.9457470000
   24      H      -0.6037750000     1.3483590000     2.2590800000
   25      H      -1.2366380000    -2.3084950000    -0.0499600000
   26      H      -1.0061790000    -1.6470590000     1.5671260000
   27      H       0.2230400000    -1.2444360000    -1.9735470000
   28      H       1.1315050000    -0.8179060000     2.1946160000
   29      H       3.4449200000    -0.2464090000     1.6403250000
   30      H       2.5474750000    -0.6657370000    -2.5320250000
   31      H       4.6826270000    -0.0792510000    -1.9498690000
   32      H       4.3063340000     2.1137280000    -0.8262870000
   33      H       6.0062100000     1.6243210000    -0.7374550000
   34      H       4.9647850000     1.4679010000     0.6808390000
   35      H       5.3693430000    -2.0939590000    -0.6526590000
   36      H       5.6138520000    -1.0984910000     0.7864560000
   37      H       6.6319670000    -0.8518150000    -0.6360840000
 ----------------------------------------------------------------

    8    -809.3154938710      5.21e-06  Convergence criterion met
 Total energy in the final basis set =     -809.3154938710

                    Orbital Energies (a.u.)
 --------------------------------------------------------------

 Alpha MOs
 -- Occupied --
-19.1417 -19.1414 -10.2852 -10.2850 -10.2143 -10.2126 -10.2088 -10.2079
-10.1870 -10.1835 -10.1795 -10.1773 -10.1741 -10.1726 -10.1721 -10.1719
-10.1705 -10.1552 -10.1552  -1.0732  -1.0714  -0.8724  -0.8616  -0.8195
 -0.8015  -0.7639  -0.7482  -0.7277  -0.6909  -0.6856  -0.6820  -0.6220
 -0.6097  -0.5969  -0.5867  -0.5629  -0.5328  -0.5074  -0.4976  -0.4799
 -0.4760  -0.4594  -0.4523  -0.4492  -0.4395  -0.4346  -0.4306  -0.4277
 -0.4224  -0.4192  -0.4129  -0.4086  -0.4064  -0.3875  -0.3840  -0.3814
 -0.3721  -0.3592  -0.3450  -0.3386  -0.3277  -0.3238  -0.3105  -0.2937
 -0.2807  -0.2780  -0.2585  -0.2427

          Ground-State Mulliken Net Atomic Charges

     Atom                 Charge (a.u.)
  ----------------------------------------
      1 C                    -0.587461
      2 C                     0.035402
      3 C                    -0.204814
      4 C                    -0.413664
      5 C                     0.525826
      6 C                     0.324110
      7 O                    -0.302263
      8 O                    -0.290516
      9 C                    -0.689615
     10 C                     0.260404
     11 C                     0.972877
     12 C                    -0.674639
     13 C                    -0.442812
     14 C                    -0.595061
     15 C                    -0.610941
     16 C                     0.551635
     17 C                     0.100989
     18 C                    -0.718136
     19 C                    -0.712681
     20 H                     0.254550
     21 H                     0.258455
     22 H                     0.164462
     23 H                     0.186452
     24 H                     0.214485
     25 H                     0.247039
     26 H                     0.248010
     27 H                     0.163123
     28 H                     0.187078
     29 H                     0.211465
     30 H                     0.203886
     31 H                     0.194532
     32 H                     0.145602
     33 H                     0.162175
     34 H                     0.161867
     35 H                     0.145229
     36 H                     0.162152
     37 H                     0.160795
  ----------------------------------------
  Sum of atomic charges =     0.000000

                    Cartesian Multipole Moments
 -----------------------------------------------------------------
    Charge (ESU x 10^10)
                 0.0000
    Dipole Moment (Debye)
         X       1.2255      Y      -0.1409      Z       0.6088
       Tot       1.3757
    Quadrupole Moments (Debye-Ang)
        XX    -106.5436     XY       4.2553     YY    -127.5988
        XZ       4.5358     YZ     -11.7584     ZZ    -110.5391

 Total job time:  68.93s(wall), 462.85s(cpu)
        *  Thank you very much for using Q-Chem.  Have a nice day.  *
