 Gaussian 16, Revision A.03,
 Gaussian 16:  ES64L-G16RevA.03 25-Dec-2016

 ----------------------------------------------------------------------
 #P UB3LYP/6-311++G(d,p) nosym opt freq SCRF=(PCM,Solvent=n,n-DiMethylF
 ormamide)
 ----------------------------------------------------------------------

 -------
 Radical
 -------
 Symbolic Z-matrix:
 Charge = -1 Multiplicity = 2

 SCF Done:  E(UB3LYP) =  -1161.48445376     A.U. after   22 cycles
 SCF Done:  E(UB3LYP) =  -1161.48438590     A.U. after   22 cycles
 SCF Done:  E(UB3LYP) =  -1161.48527727     A.U. after   17 cycles
 SCF Done:  E(UB3LYP) =  -1161.48546249     A.U. after   19 cycles
 SCF Done:  E(UB3LYP) =  -1161.48549876     A.U. after   19 cycles
 SCF Done:  E(UB3LYP) =  -1161.48551222     A.U. after   17 cycles
 SCF Done:  E(UB3LYP) =  -1161.48551769     A.U. after   16 cycles
 SCF Done:  E(UB3LYP) =  -1161.48551861     A.U. after   15 cycles
 SCF Done:  E(UB3LYP) =  -1161.48551882     A.U. after   13 cycles
 SCF Done:  E(UB3LYP) =  -1161.48551887     A.U. after   12 cycles
 Optimization completed.
    -- Stationary point found.
 Normal termination of Gaussian 16 at Sat Feb 10 11:27:46 2024.

 ----------------------------------------------------------------------
 #P Geom=AllCheck Guess=TCheck SCRF=Check GenChk UB3LYP/6-311++G(d,p) F
 req
 ----------------------------------------------------------------------

 Structure from the checkpoint file:  "066-rad.chk"
 -------
 Radical
 -------
 Charge = -1 Multiplicity = 2

                          Input orientation:
 ---------------------------------------------------------------------
 Center     Atomic      Atomic             Coordinates (Angstroms)
 Number     Number       Type             X           Y           Z
 ---------------------------------------------------------------------
      1          6           0        1.222068   -0.631711    1.847790
      2          6           0        0.745421   -1.645964    0.923272
      3          6           0       -0.370313   -1.486592    0.157422
      4          6           0       -1.175274   -0.281962    0.207838
      5          6           0       -0.722296    0.740162    1.120996
      6          6           0        0.410415    0.573783    1.882061
      7          8           0        2.245315   -0.802456    2.559650
      8          8           0       -2.214527   -0.130650   -0.500832
      9         16           0        0.900069    1.933694    2.951834
     10          6           0        0.833226    1.309197    4.643053
     11          6           0       -0.399815    1.273154    5.294341
     12          6           0        2.005775    0.899443    5.272574
     13          6           0        1.938700    0.445979    6.588953
     14          6           0       -0.454314    0.810357    6.607172
     15          6           0        0.712756    0.399449    7.253219
     16          8           0        2.291191    2.336129    2.663767
     17          8           0       -0.144559    2.975775    2.838476
     18          1           0        1.331198   -2.558443    0.872357
     19          1           0       -0.693587   -2.270369   -0.520505
     20          1           0       -1.300661    1.653386    1.191196
     21          1           0       -1.296718    1.608577    4.789183
     22          1           0        2.945045    0.934389    4.738779
     23          1           0        2.843931    0.129060    7.093369
     24          1           0       -1.405231    0.778737    7.125721
     25          1           0        0.666107    0.043417    8.275933
 ---------------------------------------------------------------------

 SCF Done:  E(UB3LYP) =  -1161.48551887     A.U. after    2 cycles

 Alpha  occ. eigenvalues --  -89.05395 -19.11923 -19.11847 -19.09109 -19.09099
 Alpha  occ. eigenvalues --  -10.24316 -10.23364 -10.21680 -10.20615 -10.19827
 Alpha  occ. eigenvalues --  -10.19608 -10.19207 -10.19056 -10.18994 -10.18807
 Alpha  occ. eigenvalues --  -10.17831 -10.17761  -8.11785  -6.08071  -6.07957
 Alpha  occ. eigenvalues --   -6.07874  -1.11039  -1.01628  -1.00946  -1.00452
 Alpha  occ. eigenvalues --   -0.88064  -0.84544  -0.78961  -0.76921  -0.76758
 Alpha  occ. eigenvalues --   -0.71176  -0.67877  -0.62646  -0.62610  -0.60318
 Alpha  occ. eigenvalues --   -0.57715  -0.54030  -0.50384  -0.49612  -0.48555
 Alpha  occ. eigenvalues --   -0.47870  -0.47327  -0.45864  -0.45124  -0.44512
 Alpha  occ. eigenvalues --   -0.44142  -0.42339  -0.41887  -0.39817  -0.39228
 Alpha  occ. eigenvalues --   -0.38538  -0.38236  -0.37931  -0.36518  -0.34483
 Alpha  occ. eigenvalues --   -0.32948  -0.31392  -0.30658  -0.30039  -0.28550
 Alpha  occ. eigenvalues --   -0.27444  -0.27158  -0.25566  -0.24980  -0.17996
 Alpha virt. eigenvalues --   -0.05391  -0.03041  -0.02657  -0.00440   0.00557
 Alpha virt. eigenvalues --    0.00785   0.01236   0.01830   0.02450   0.03426
 Alpha virt. eigenvalues --    0.03657   0.03789   0.03948   0.05609   0.05806

  Beta  occ. eigenvalues --  -89.05397 -19.11915 -19.11851 -19.08451 -19.08313
  Beta  occ. eigenvalues --  -10.24222 -10.23262 -10.21680 -10.20515 -10.19824
  Beta  occ. eigenvalues --  -10.19605 -10.19204 -10.19057 -10.18995 -10.18569
  Beta  occ. eigenvalues --  -10.17764 -10.17678  -8.11786  -6.08072  -6.07959
  Beta  occ. eigenvalues --   -6.07877  -1.11025  -1.00665  -1.00302  -0.99539
  Beta  occ. eigenvalues --   -0.88058  -0.83916  -0.78872  -0.76756  -0.76721
  Beta  occ. eigenvalues --   -0.70440  -0.67408  -0.62627  -0.62415  -0.59963
  Beta  occ. eigenvalues --   -0.57547  -0.53926  -0.50150  -0.49463  -0.48462
  Beta  occ. eigenvalues --   -0.47751  -0.47067  -0.45848  -0.45087  -0.44277
  Beta  occ. eigenvalues --   -0.44120  -0.41198  -0.40612  -0.39507  -0.38726
  Beta  occ. eigenvalues --   -0.38228  -0.37681  -0.36513  -0.35899  -0.34395
  Beta  occ. eigenvalues --   -0.32871  -0.31244  -0.30575  -0.28578  -0.27488
  Beta  occ. eigenvalues --   -0.26686  -0.26138  -0.24900  -0.24365
  Beta virt. eigenvalues --   -0.10669  -0.04983  -0.02896  -0.01622  -0.00423
  Beta virt. eigenvalues --    0.00691   0.01247   0.01618   0.02455   0.02581
  Beta virt. eigenvalues --    0.03506   0.03679   0.03966   0.04164   0.05641

 Mulliken charges and spin densities:
               1          2
     1  C   -0.822364  -0.003664
     2  C    0.034011   0.087185
     3  C    0.159385   0.042022
     4  C   -0.605065   0.132761
     5  C    0.076314   0.124019
     6  C    0.335469   0.125672
     7  O   -0.396536   0.238776
     8  O   -0.466593   0.280439
     9  S    0.404450  -0.028543
    10  C    0.610280   0.010966
    11  C   -0.137276   0.000078
    12  C   -0.217240   0.015134
    13  C   -0.417236  -0.004910
    14  C   -0.495223  -0.001761
    15  C   -0.333030   0.002394
    16  O   -0.251739   0.005823
    17  O   -0.267837  -0.002957
    18  H    0.207913  -0.006639
    19  H    0.206691  -0.004011
    20  H    0.262622  -0.013778
    21  H    0.235170   0.000892
    22  H    0.258121   0.000176
    23  H    0.214335   0.000039
    24  H    0.212838   0.000026
    25  H    0.192540  -0.000140
 Sum of Mulliken charges =  -1.00000   1.00000

 Dipole moment (field-independent basis, Debye):
    X=             -1.8881    Y=             -5.4560    Z=             -3.5289  Tot=              6.7665
 Quadrupole moment (field-independent basis, Debye-Ang):
   XX=           -135.0345   YY=           -130.8039   ZZ=            -97.7817
   XY=             -5.5968   XZ=            -19.3948   YZ=            -12.9487

  Exact polarizability: 291.149 -21.269 211.076  71.062   7.011 298.107
 Approx polarizability: 362.084 -33.752 232.242  79.180  -8.114 311.514

                      1                      2                      3
                      A                      A                      A
 Frequencies --     27.0573                35.1342                54.3374
 Red. masses --      4.4615                 7.1557                 5.7205
 Frc consts  --      0.0019                 0.0052                 0.0100
 IR Inten    --      0.1664                 1.5270                 2.2674

                      4                      5                      6
                      A                      A                      A
 Frequencies --    106.7561               151.8452               163.5386
 Red. masses --      6.8977                 7.4475                10.5890
 Frc consts  --      0.0463                 0.1012                 0.1669
 IR Inten    --     10.3401                19.2827                 1.4065

                      7                      8                      9
                      A                      A                      A
 Frequencies --    180.7752               222.4414               265.7435
 Red. masses --      6.8406                 5.8568                 9.8513
 Frc consts  --      0.1317                 0.1707                 0.4099
 IR Inten    --      1.4498                 1.8445                 0.4362

                     10                     11                     12
                      A                      A                      A
 Frequencies --    281.4980               304.8381               319.7610
 Red. masses --     13.0034                 8.5429                 5.7116
 Frc consts  --      0.6071                 0.4677                 0.3441
 IR Inten    --      6.1485                 5.5502                 0.1410

                     13                     14                     15
                      A                      A                      A
 Frequencies --    387.6923               409.8178               414.8160
 Red. masses --      5.8424                 2.8732                 8.1594
 Frc consts  --      0.5174                 0.2843                 0.8272
 IR Inten    --     11.2516                 0.2444                22.9324

                     16                     17                     18
                      A                      A                      A
 Frequencies --    429.3202               459.1496               477.6414
 Red. masses --      5.4969                 5.4154                 9.8885
 Frc consts  --      0.5969                 0.6727                 1.3292
 IR Inten    --      3.2782                15.4405                 0.7714

                     19                     20                     21
                      A                      A                      A
 Frequencies --    512.3606               546.0351               584.1515
 Red. masses --      5.4351                 6.0562                 5.8857
 Frc consts  --      0.8406                 1.0639                 1.1833
 IR Inten    --     84.7799               120.5209               229.2873

                     22                     23                     24
                      A                      A                      A
 Frequencies --    607.8519               625.8158               671.8814
 Red. masses --      3.4054                 6.4515                 7.5306
 Frc consts  --      0.7413                 1.4887                 2.0029
 IR Inten    --     48.4946                 0.1028                35.1679

                     25                     26                     27
                      A                      A                      A
 Frequencies --    698.7100               718.4929               742.2054
 Red. masses --      2.0225                 7.0563                 3.7780
 Frc consts  --      0.5817                 2.1462                 1.2262
 IR Inten    --     72.3774               109.5332                 6.1100

                     28                     29                     30
                      A                      A                      A
 Frequencies --    763.7903               817.3477               830.4810
 Red. masses --      1.6758                 5.8488                 1.7789
 Frc consts  --      0.5760                 2.3021                 0.7229
 IR Inten    --     26.8530                64.0401                57.1846

                     31                     32                     33
                      A                      A                      A
 Frequencies --    851.2475               873.9266               895.7032
 Red. masses --      1.2492                 6.4804                 1.5670
 Frc consts  --      0.5333                 2.9161                 0.7407
 IR Inten    --      0.1766                23.5477                43.2969

                     34                     35                     36
                      A                      A                      A
 Frequencies --    941.4413               976.8693               987.6886
 Red. masses --      1.3503                 1.2793                 3.1903
 Frc consts  --      0.7051                 0.7193                 1.8337
 IR Inten    --      0.4425                 0.0331                37.9919

                     37                     38                     39
                      A                      A                      A
 Frequencies --    993.6890              1012.4841              1015.1388
 Red. masses --      1.3949                 5.4820                 1.3423
 Frc consts  --      0.8115                 3.3110                 0.8150
 IR Inten    --      0.6409                15.0903                 0.5196

                     40                     41                     42
                      A                      A                      A
 Frequencies --   1035.5390              1053.6602              1096.5727
 Red. masses --      4.2035                 3.5254                 1.6306
 Frc consts  --      2.6558                 2.3060                 1.1553
 IR Inten    --     98.7646               200.1416                34.5221

                     43                     44                     45
                      A                      A                      A
 Frequencies --   1101.1039              1112.7289              1179.1847
 Red. masses --      3.4200                 1.6172                 1.1114
 Frc consts  --      2.4430                 1.1798                 0.9105
 IR Inten    --    171.1378                41.1780                 0.0772

                     46                     47                     48
                      A                      A                      A
 Frequencies --   1192.9659              1200.2204              1205.5540
 Red. masses --      1.1534                14.5239                 1.8230
 Frc consts  --      0.9671                12.3269                 1.5610
 IR Inten    --      3.1137               353.3860                 2.7688

                     49                     50                     51
                      A                      A                      A
 Frequencies --   1244.3983              1328.7269              1341.5149
 Red. masses --      2.0457                 2.9327                 1.8527
 Frc consts  --      1.8664                 3.0506                 1.9645
 IR Inten    --     33.8947                 0.3772                 8.1853

                     52                     53                     54
                      A                      A                      A
 Frequencies --   1346.0191              1424.8526              1464.4164
 Red. masses --      2.0789                 4.3593                 6.7265
 Frc consts  --      2.2192                 5.2144                 8.4991
 IR Inten    --      3.3660               123.6842               183.5576

                     55                     56                     57
                      A                      A                      A
 Frequencies --   1473.3443              1501.9180              1504.3398
 Red. masses --      2.1278                 5.9934                 2.0363
 Frc consts  --      2.7214                 7.9655                 2.7151
 IR Inten    --     29.7418               286.5668                 5.8676

                     58                     59                     60
                      A                      A                      A
 Frequencies --   1525.3317              1617.5448              1621.5723
 Red. masses --      7.8567                 5.4233                 5.8448
 Frc consts  --     10.7701                 8.3603                 9.0551
 IR Inten    --    844.0873                 1.6507                 0.2730

                     61                     62                     63
                      A                      A                      A
 Frequencies --   1636.4166              3155.1506              3173.0066
 Red. masses --      6.9672                 1.0864                 1.0959
 Frc consts  --     10.9925                 6.3723                 6.5005
 IR Inten    --     15.2322                19.5504                24.3360

                     64                     65                     66
                      A                      A                      A
 Frequencies --   3173.6170              3183.8462              3192.5153
 Red. masses --      1.0867                 1.0900                 1.0898
 Frc consts  --      6.4486                 6.5100                 6.5441
 IR Inten    --      0.5832                15.7030                11.7243

                     67                     68                     69
                      A                      A                      A
 Frequencies --   3192.9187              3203.3621              3221.5891
 Red. masses --      1.0945                 1.0950                 1.0929
 Frc consts  --      6.5744                 6.6200                 6.6830
 IR Inten    --     19.1662                 8.0863                 3.1480

 - Thermochemistry -
 -------------------
 Temperature   298.150 Kelvin.  Pressure   1.00000 Atm.
 Atom     1 has atomic number  6 and mass  12.00000

 Molecular mass:   248.01433 amu.
 Principal axes and moments of inertia in atomic units:
                           1         2         3
     Eigenvalues --  2344.315886199.985836433.54744
           X            0.27247  -0.48456   0.83124
           Y            0.23861   0.87097   0.42951
           Z            0.93211  -0.08132  -0.35293
 This molecule is an asymmetric top.
 Rotational symmetry number  1.
 Warning -- assumption of classical behavior for rotation
           may cause significant error
 Rotational temperatures (Kelvin)      0.03695     0.01397     0.01346
 Rotational constants (GHZ):           0.76984     0.29109     0.28052
 Zero-point vibrational energy     454960.2 (Joules/Mol)
                                  108.73810 (Kcal/Mol)
 Warning -- explicit consideration of  22 degrees of freedom as
           vibrations may cause significant error
 Vibrational temperatures:     38.93    50.55    78.18   153.60   218.47
          (Kelvin)            235.30   260.10   320.04   382.35   405.01
                              438.59   460.06   557.80   589.64   596.83
                              617.70   660.61   687.22   737.17   785.62
                              840.46   874.56   900.41   966.69  1005.29
                             1033.75  1067.87  1098.92  1175.98  1194.88
                             1224.76  1257.39  1288.72  1354.52  1405.50
                             1421.06  1429.70  1456.74  1460.56  1489.91
                             1515.98  1577.72  1584.24  1600.97  1696.58
                             1716.41  1726.85  1734.52  1790.41  1911.74
                             1930.14  1936.62  2050.05  2106.97  2119.81
                             2160.93  2164.41  2194.61  2327.29  2333.08
                             2354.44  4539.56  4565.25  4566.13  4580.84
                             4593.32  4593.90  4608.92  4635.15

 Zero-point correction=                           0.173285 (Hartree/Particle)
 Thermal correction to Energy=                    0.187459
 Thermal correction to Enthalpy=                  0.188404
 Thermal correction to Gibbs Free Energy=         0.130068
 Sum of electronic and zero-point Energies=          -1161.312234
 Sum of electronic and thermal Energies=             -1161.298059
 Sum of electronic and thermal Enthalpies=           -1161.297115
 Sum of electronic and thermal Free Energies=        -1161.355451

                     E (Thermal)             CV                S
                      KCal/Mol        Cal/Mol-Kelvin    Cal/Mol-Kelvin
 Total                  117.633             54.592            122.777
 Electronic               0.000              0.000              1.377
 Translational            0.889              2.981             42.426
 Rotational               0.889              2.981             32.903
 Vibrational            115.855             48.631             46.071
 Vibration     1          0.593              1.984              6.034
 Vibration     2          0.594              1.982              5.516
 Vibration     3          0.596              1.976              4.653
 Vibration     4          0.606              1.944              3.327
 Vibration     5          0.619              1.901              2.649
 Vibration     6          0.623              1.887              2.508
 Vibration     7          0.630              1.866              2.320
 Vibration     8          0.648              1.807              1.939
 Vibration     9          0.672              1.736              1.624
 Vibration    10          0.681              1.708              1.525
 Vibration    11          0.696              1.665              1.390
 Vibration    12          0.706              1.636              1.311
 Vibration    13          0.756              1.496              1.009
 Vibration    14          0.774              1.449              0.927
 Vibration    15          0.778              1.438              0.910
 Vibration    16          0.791              1.406              0.861
 Vibration    17          0.817              1.341              0.769
 Vibration    18          0.834              1.300              0.716
 Vibration    19          0.867              1.223              0.628
 Vibration    20          0.901              1.148              0.552
 Vibration    21          0.941              1.066              0.478
 Vibration    22          0.967              1.015              0.436

 Optimization completed.
    -- Stationary point found.
 Normal termination of Gaussian 16 at Sat Feb 10 11:56:39 2024.
