 Gaussian 16, Revision A.03,
 Gaussian 16:  ES64L-G16RevA.03 25-Dec-2016

 ----------------------------------------------------------------
 #P UB3LYP/6-311++G(d,p) SCRF=(PCM,Solvent=n,n-DiMethylFormamide)
 ----------------------------------------------------------------

 ------------------
 Quinone PCM in DMF
 ------------------
 Symbolic Z-matrix:
 Charge =  0 Multiplicity = 1

                         Standard orientation:
 ---------------------------------------------------------------------
 Center     Atomic      Atomic             Coordinates (Angstroms)
 Number     Number       Type             X           Y           Z
 ---------------------------------------------------------------------
      1          6           0       -0.180034   -1.425619   -0.000022
      2          6           0        1.214299   -0.863653   -0.000144
      3          6           0        1.341763    0.477351   -0.000075
      4          6           0        0.179933    1.425602   -0.000239
      5          6           0       -1.214380    0.863645    0.000203
      6          6           0       -1.341861   -0.477370    0.000039
      7          8           0        0.358798    2.626171   -0.000928
      8          8           0       -0.358965   -2.626177    0.000264
      9         35           0       -3.036369   -1.360413    0.000191
     10         35           0        3.036299    1.360314   -0.000130
     11          6           0       -2.373675    1.844073    0.000624
     12          6           0       -2.412837    2.704019   -1.279285
     13          6           0       -2.410396    2.706237    1.279101
     14          6           0        2.373710   -1.843961   -0.000264
     15          6           0        2.411297   -2.705677   -1.279034
     16          6           0        2.412484   -2.704277    1.279413
     17          1           0       -3.277345    1.234461    0.001983
     18          1           0       -2.409754    2.078478   -2.176133
     19          1           0       -1.568266    3.390948   -1.329314
     20          1           0       -3.335153    3.291314   -1.288007
     21          1           0       -2.405102    2.082212    2.176994
     22          1           0       -3.332946    3.293131    1.288736
     23          1           0       -1.565969    3.393537    1.326022
     24          1           0        3.277267   -1.234172   -0.000983
     25          1           0        3.333977   -3.292371   -1.288389
     26          1           0        2.406344   -2.081336   -2.176709
     27          1           0        1.567049   -3.393142   -1.326633
     28          1           0        3.335011   -3.291236    1.288450
     29          1           0        1.568147   -3.391529    1.328803
     30          1           0        2.408710   -2.079008    2.176451
 ---------------------------------------------------------------------

 SCF Done:  E(UB3LYP) =  -5764.59740821     A.U. after   16 cycles

 The electronic state is 1-A.
 Alpha  occ. eigenvalues -- -482.84898-482.84898 -62.50171 -62.50171 -56.32214
 Alpha  occ. eigenvalues --  -56.32214 -56.31833 -56.31833 -56.31789 -56.31789
 Alpha  occ. eigenvalues --  -19.15163 -19.15162 -10.30460 -10.30460 -10.26463
 Alpha  occ. eigenvalues --  -10.26462 -10.23299 -10.23298 -10.19777 -10.19776
 Alpha  occ. eigenvalues --  -10.16481 -10.16481 -10.16479 -10.16478  -8.71143
 Alpha  occ. eigenvalues --   -8.71143  -6.54299  -6.54299  -6.53030  -6.53030
 Alpha  occ. eigenvalues --   -6.52907  -6.52907  -2.65392  -2.65392  -2.65049
 Alpha  occ. eigenvalues --   -2.65049  -2.64957  -2.64956  -2.63946  -2.63946
 Alpha  occ. eigenvalues --   -2.63945  -2.63945  -1.08980  -1.08789  -0.89576
 Alpha  occ. eigenvalues --   -0.86651  -0.81321  -0.81163  -0.79044  -0.74612
 Alpha  occ. eigenvalues --   -0.70125  -0.69255  -0.69248  -0.65545  -0.60762
 Alpha  occ. eigenvalues --   -0.59942  -0.57059  -0.55651  -0.49449  -0.48903
 Alpha  occ. eigenvalues --   -0.47354  -0.47254  -0.46014  -0.44329  -0.44321
 Alpha  occ. eigenvalues --   -0.44074  -0.43717  -0.42371  -0.41622  -0.40875
 Alpha  occ. eigenvalues --   -0.38928  -0.38925  -0.37478  -0.36679  -0.36337
 Alpha  occ. eigenvalues --   -0.35668  -0.35611  -0.35275  -0.34465  -0.34439
 Alpha  occ. eigenvalues --   -0.30991  -0.29988  -0.29358  -0.29291  -0.28721
 Alpha  occ. eigenvalues --   -0.27145
 Alpha virt. eigenvalues --   -0.14291  -0.03855  -0.02952  -0.02860  -0.01670
 Alpha virt. eigenvalues --   -0.00623   0.00123   0.01232   0.01433   0.01839
 Alpha virt. eigenvalues --    0.02076   0.02693   0.03866   0.03955   0.04333

  Beta  occ. eigenvalues -- -482.84898-482.84898 -62.50171 -62.50171 -56.32214
  Beta  occ. eigenvalues --  -56.32214 -56.31833 -56.31833 -56.31789 -56.31789
  Beta  occ. eigenvalues --  -19.15163 -19.15162 -10.30460 -10.30460 -10.26463
  Beta  occ. eigenvalues --  -10.26462 -10.23299 -10.23298 -10.19777 -10.19776
  Beta  occ. eigenvalues --  -10.16481 -10.16481 -10.16479 -10.16478  -8.71143
  Beta  occ. eigenvalues --   -8.71143  -6.54299  -6.54299  -6.53030  -6.53030
  Beta  occ. eigenvalues --   -6.52907  -6.52907  -2.65392  -2.65392  -2.65049
  Beta  occ. eigenvalues --   -2.65049  -2.64957  -2.64956  -2.63946  -2.63946
  Beta  occ. eigenvalues --   -2.63945  -2.63945  -1.08980  -1.08789  -0.89576
  Beta  occ. eigenvalues --   -0.86651  -0.81321  -0.81163  -0.79044  -0.74612
  Beta  occ. eigenvalues --   -0.70125  -0.69255  -0.69248  -0.65545  -0.60762
  Beta  occ. eigenvalues --   -0.59942  -0.57059  -0.55651  -0.49449  -0.48903
  Beta  occ. eigenvalues --   -0.47354  -0.47254  -0.46014  -0.44329  -0.44321
  Beta  occ. eigenvalues --   -0.44074  -0.43717  -0.42371  -0.41622  -0.40875
  Beta  occ. eigenvalues --   -0.38928  -0.38925  -0.37478  -0.36679  -0.36337
  Beta  occ. eigenvalues --   -0.35668  -0.35611  -0.35275  -0.34465  -0.34439
  Beta  occ. eigenvalues --   -0.30991  -0.29988  -0.29358  -0.29291  -0.28721
  Beta  occ. eigenvalues --   -0.27145
  Beta virt. eigenvalues --   -0.14291  -0.03855  -0.02952  -0.02860  -0.01670
  Beta virt. eigenvalues --   -0.00623   0.00123   0.01232   0.01433   0.01839
  Beta virt. eigenvalues --    0.02076   0.02693   0.03866   0.03955   0.04333

 Mulliken charges and spin densities:
               1          2
     1  C   -1.220284   0.000000
     2  C    1.445011   0.000000
     3  C    0.011996   0.000000
     4  C   -1.219910  -0.000000
     5  C    1.444770  -0.000000
     6  C    0.011653   0.000000
     7  O   -0.161125   0.000000
     8  O   -0.161117  -0.000000
     9  Br  -0.065693  -0.000000
    10  Br  -0.065706  -0.000000
    11  C    0.258100  -0.000000
    12  C   -0.719331   0.000000
    13  C   -0.718802   0.000000
    14  C    0.258101  -0.000000
    15  C   -0.718840  -0.000000
    16  C   -0.719332  -0.000000
    17  H    0.184499  -0.000000
    18  H    0.138763   0.000000
    19  H    0.186107  -0.000000
    20  H    0.168078   0.000000
    21  H    0.138728   0.000000
    22  H    0.168075   0.000000
    23  H    0.186019  -0.000000
    24  H    0.184450   0.000000
    25  H    0.168099   0.000000
    26  H    0.138739   0.000000
    27  H    0.186021  -0.000000
    28  H    0.168080   0.000000
    29  H    0.186082  -0.000000
    30  H    0.138769   0.000000
 Sum of Mulliken charges =  -0.00000   0.00000

 Dipole moment (field-independent basis, Debye):
    X=              0.0005    Y=              0.0002    Z=              0.0010  Tot=              0.0012
 Quadrupole moment (field-independent basis, Debye-Ang):
   XX=           -113.9475   YY=           -134.3396   ZZ=           -120.2810
   XY=            -11.2967   XZ=              0.0005   YZ=              0.0057

 Normal termination of Gaussian 16 at Sun Jan 21 06:54:43 2024.
