 Q-Chem 5.4, Q-Chem, Inc., Pleasanton, CA (2021)
 Q-Chem 5.4.0 for Intel X86 EM64T Linux

User input:
--------------------------------------------------------------
$molecule
-2 1
C                 -4.8490740000     -0.2079160000     -0.4454960000
C                 -3.9489750000     -0.5184250000      0.7667940000
C                 -2.5360040000      0.0020130000      0.6601280000
C                 -2.2601290000      1.3924760000      0.8324130000
C                 -0.9676220000      1.8647770000      0.7641600000
C                  0.1388580000      1.0129220000      0.5191960000
C                  1.4716510000      1.5760000000      0.4514730000
O                  1.7079060000      2.8247790000      0.5993260000
C                  2.5294070000      0.6090830000      0.2079820000
C                  3.8710960000      1.0573000000      0.1263560000
C                  4.9227290000      0.1922660000     -0.1001700000
C                  4.6678000000     -1.1972450000     -0.2599680000
C                  3.3710780000     -1.6650540000     -0.1840890000
C                  2.2706750000     -0.8039060000      0.0479800000
C                  0.9319140000     -1.3666190000      0.1152890000
O                  0.7076070000     -2.6155760000     -0.0278530000
C                 -0.1249520000     -0.3980890000      0.3541260000
C                 -1.4665090000     -0.8452240000      0.4289340000
H                 -4.4446230000     -0.6600840000     -1.3567010000
H                 -5.8665780000     -0.5950320000     -0.2938500000
H                 -4.9252740000      0.8713950000     -0.6154950000
H                 -4.4335730000     -0.0985890000      1.6638330000
H                 -3.9208580000     -1.6050540000      0.9121780000
H                 -3.0818890000      2.0806400000      1.0245500000
H                 -0.7474640000      2.9192700000      0.8985940000
H                  4.0322190000      2.1234000000      0.2527400000
H                  5.9418490000      0.5703090000     -0.1575360000
H                  5.4906440000     -1.8864910000     -0.4400690000
H                  3.1429920000     -2.7199580000     -0.3010450000
H                 -1.6248990000     -1.9133660000      0.3079200000
$end
$rem
MAX_SCF_CYCLES=200
BASIS  =  6-311++G(d,p)
GUI  =  2
JOB_TYPE  =  SP
METHOD  =  B3LYP
SOLVENT_METHOD = PCM
$end
$pcm
theory = CPCM
$end
$solvent
dielectric 37.219
opticaldielectric 1.43
$end

--------------------------------------------------------------

             Standard Nuclear Orientation (Angstroms)
    I     Atom           X                Y                Z
 ----------------------------------------------------------------
    1      C      -4.8490740000    -0.2079160000    -0.4454960000
    2      C      -3.9489750000    -0.5184250000     0.7667940000
    3      C      -2.5360040000     0.0020130000     0.6601280000
    4      C      -2.2601290000     1.3924760000     0.8324130000
    5      C      -0.9676220000     1.8647770000     0.7641600000
    6      C       0.1388580000     1.0129220000     0.5191960000
    7      C       1.4716510000     1.5760000000     0.4514730000
    8      O       1.7079060000     2.8247790000     0.5993260000
    9      C       2.5294070000     0.6090830000     0.2079820000
   10      C       3.8710960000     1.0573000000     0.1263560000
   11      C       4.9227290000     0.1922660000    -0.1001700000
   12      C       4.6678000000    -1.1972450000    -0.2599680000
   13      C       3.3710780000    -1.6650540000    -0.1840890000
   14      C       2.2706750000    -0.8039060000     0.0479800000
   15      C       0.9319140000    -1.3666190000     0.1152890000
   16      O       0.7076070000    -2.6155760000    -0.0278530000
   17      C      -0.1249520000    -0.3980890000     0.3541260000
   18      C      -1.4665090000    -0.8452240000     0.4289340000
   19      H      -4.4446230000    -0.6600840000    -1.3567010000
   20      H      -5.8665780000    -0.5950320000    -0.2938500000
   21      H      -4.9252740000     0.8713950000    -0.6154950000
   22      H      -4.4335730000    -0.0985890000     1.6638330000
   23      H      -3.9208580000    -1.6050540000     0.9121780000
   24      H      -3.0818890000     2.0806400000     1.0245500000
   25      H      -0.7474640000     2.9192700000     0.8985940000
   26      H       4.0322190000     2.1234000000     0.2527400000
   27      H       5.9418490000     0.5703090000    -0.1575360000
   28      H       5.4906440000    -1.8864910000    -0.4400690000
   29      H       3.1429920000    -2.7199580000    -0.3010450000
   30      H      -1.6248990000    -1.9133660000     0.3079200000
 ----------------------------------------------------------------

    8    -767.8456711186      5.07e-06  Convergence criterion met
 Total energy in the final basis set =     -767.8456711186

                    Orbital Energies (a.u.)
 --------------------------------------------------------------

 Alpha MOs
 -- Occupied --
-19.0232 -19.0223 -10.1746 -10.1737 -10.1573 -10.1531 -10.1496 -10.1481
-10.1476 -10.1459 -10.1456 -10.1454 -10.1452 -10.1411 -10.1353 -10.1349
-10.1345 -10.1341  -0.9455  -0.9424  -0.8301  -0.8225  -0.7705  -0.7398
 -0.7225  -0.7175  -0.6983  -0.6371  -0.6177  -0.5991  -0.5702  -0.5576
 -0.5243  -0.5025  -0.4878  -0.4481  -0.4389  -0.4323  -0.4252  -0.4109
 -0.4009  -0.3970  -0.3919  -0.3810  -0.3718  -0.3696  -0.3679  -0.3582
 -0.3401  -0.3341  -0.3302  -0.3290  -0.3136  -0.3103  -0.2984  -0.2976
 -0.2341  -0.2264  -0.2245  -0.2122  -0.2061  -0.1978  -0.1043

          Ground-State Mulliken Net Atomic Charges

     Atom                 Charge (a.u.)
  ----------------------------------------
      1 C                    -0.656403
      2 C                    -0.187215
      3 C                     0.622689
      4 C                    -0.552723
      5 C                    -0.050340
      6 C                     0.171726
      7 C                    -0.555513
      8 O                    -0.680531
      9 C                     0.195461
     10 C                     0.013139
     11 C                    -0.533274
     12 C                    -0.522479
     13 C                    -0.038503
     14 C                     0.351291
     15 C                    -0.498129
     16 O                    -0.675979
     17 C                     0.169266
     18 C                    -0.399612
     19 H                     0.140146
     20 H                     0.143204
     21 H                     0.147899
     22 H                     0.140636
     23 H                     0.172873
     24 H                     0.178523
     25 H                     0.146837
     26 H                     0.144307
     27 H                     0.170157
     28 H                     0.171691
     29 H                     0.141587
     30 H                     0.129268
  ----------------------------------------
  Sum of atomic charges =    -2.000001

                    Cartesian Multipole Moments
 -----------------------------------------------------------------
    Charge (ESU x 10^10)
                -9.6064
    Dipole Moment (Debye)
         X     -12.1329      Y      -1.0442      Z      -2.5916
       Tot      12.4505
    Quadrupole Moments (Debye-Ang)
        XX    -144.6960     XY      -8.2162     YY    -166.9769
        XZ      -3.8284     YZ      -5.9016     ZZ    -120.7458

 Total job time:  85.84s(wall), 364.85s(cpu)
        *  Thank you very much for using Q-Chem.  Have a nice day.  *
