 Q-Chem 5.4, Q-Chem, Inc., Pleasanton, CA (2021)
 Q-Chem 5.4.0 for Intel X86 EM64T Linux

User input:
--------------------------------------------------------------
$molecule
-2 1
C                 -1.0551280000      2.6136910000      0.6237490000
C                  0.2670920000      2.7303410000      0.0590650000
C                  0.9253500000      1.6548030000     -0.5511250000
C                  0.3340140000      0.3430620000     -0.6398980000
C                 -0.9815020000      0.2286240000     -0.0611140000
C                 -1.6417920000      1.3020160000      0.5291140000
O                 -1.6830220000      3.6117340000      1.1517980000
O                  0.9296400000     -0.6701250000     -1.1801390000
O                 -2.9491070000      1.1048980000      0.9771790000
O                 -1.6029870000     -1.0207480000     -0.0238200000
C                 -3.1226150000      1.3160920000      2.3686860000
C                 -1.8852080000     -1.5662070000     -1.3014500000
C                  2.3120180000      1.8063490000     -1.1329660000
C                  0.8779600000      4.1217020000      0.1062480000
C                  1.7194910000      4.3754080000      1.3336470000
C                  2.9467020000      4.9106750000      1.4336560000
C                  3.7849560000      5.3743550000      0.2665180000
C                  3.6277700000      5.0752430000      2.7741120000
H                 -2.8045730000      2.3258920000      2.6449760000
H                 -2.5582430000      0.5695860000      2.9504360000
H                 -4.1922770000      1.1881560000      2.5757430000
H                 -2.3041760000     -2.5657970000     -1.1319040000
H                 -0.9693710000     -1.6376760000     -1.8961910000
H                 -2.6347250000     -0.9547830000     -1.8301300000
H                  3.0127210000      2.2692010000     -0.4252660000
H                  2.3205050000      2.4299790000     -2.0402640000
H                  2.6801120000      0.8147020000     -1.4063300000
H                  0.0316210000      4.8212130000      0.1475670000
H                  1.4486690000      4.3286770000     -0.8047870000
H                  1.2253210000      4.0798280000      2.2577590000
H                  3.2920930000      5.2207630000     -0.6939310000
H                  4.7481520000      4.8429040000      0.2424190000
H                  4.0287160000      6.4424270000      0.3569090000
H                  2.9916340000      4.7390380000      3.5973900000
H                  3.9028740000      6.1228730000      2.9632930000
H                  4.5690320000      4.5050520000      2.8187150000
$end
$rem
MAX_SCF_CYCLES=200
BASIS  =  6-311++G(d,p)
GUI  =  2
JOB_TYPE  =  SP
METHOD  =  B3LYP
SOLVENT_METHOD = COSMO
$end
$solvent
dielectric 37.219
opticaldielectric 1.43
$end

--------------------------------------------------------------

             Standard Nuclear Orientation (Angstroms)
    I     Atom           X                Y                Z
 ----------------------------------------------------------------
    1      C       0.4363732058    -1.1684156614    -0.5644770569
    2      C      -0.4583286965    -0.0369382031    -0.5673472518
    3      C      -0.0442574212     1.2542454399    -0.2154847795
    4      C       1.3068730856     1.5417282742     0.1968540800
    5      C       2.1930960033     0.4046020316     0.2117594157
    6      C       1.7852245403    -0.8743501415    -0.1549074227
    7      O       0.0700956397    -2.3533451624    -0.9263600128
    8      O       1.7079954626     2.7209931958     0.5455855675
    9      O       2.7460837950    -1.8862943924    -0.1924385429
   10      O       3.4998033698     0.5653711907     0.6756925768
   11      C       2.4857954410    -2.9653163242     0.6901493034
   12      C       4.2906627700     1.4403310244    -0.1107547062
   13      C      -1.0050266479     2.4209338251    -0.2261612184
   14      C      -1.8725444050    -0.3226850922    -1.0465278299
   15      C      -2.8305875825    -0.6804335752     0.0639760002
   16      C      -4.0670504954    -0.2181655663     0.3089803935
   17      C      -4.7779925904     0.8274217638    -0.5163610478
   18      C      -4.8705723460    -0.7066664337     1.4936651926
   19      H       1.5053202851    -3.4032722326     0.4802778932
   20      H       2.5342202497    -2.6321445515     1.7393736039
   21      H       3.2745467512    -3.7085608539     0.5202200379
   22      H       5.2595810501     1.5305111485     0.3957283743
   23      H       3.8126254266     2.4218115990    -0.1866379430
   24      H       4.4561591001     1.0196577401    -1.1161215726
   25      H      -1.9297697448     2.2044571860     0.3252406566
   26      H      -1.3045761202     2.7084964361    -1.2458444659
   27      H      -0.5074296087     3.2798996194     0.2300841025
   28      H      -1.7971702221    -1.2022614550    -1.7007271546
   29      H      -2.2601877458     0.5122119419    -1.6391590535
   30      H      -2.4345222105    -1.4346734590     0.7420681271
   31      H      -4.1735822635     1.1907877916    -1.3479979923
   32      H      -5.0555554568     1.6923245515     0.1046618862
   33      H      -5.7184464733     0.4325842265    -0.9262599148
   34      H      -4.3319108023    -1.4681868117     2.0641210918
   35      H      -5.8342076590    -1.1343690742     1.1814509820
   36      H      -5.1169098584     0.1191793758     2.1795061988
 ----------------------------------------------------------------

   15    -845.3765706368      4.95e-06  Convergence criterion met
 Total energy in the final basis set =     -845.3765706368
    6    -845.6563175072      3.57e-06  Convergence criterion met
 Total energy in the final basis set =     -845.6563175072

                    Orbital Energies (a.u.)
 --------------------------------------------------------------

 Alpha MOs
 -- Occupied --
-19.1109 -19.1105 -19.0139 -19.0134 -10.1872 -10.1867 -10.1695 -10.1689
-10.1637 -10.1637 -10.1618 -10.1515 -10.1511 -10.1463 -10.1408 -10.1312
-10.1226 -10.1213  -1.0300  -1.0125  -0.9295  -0.9268  -0.8024  -0.7811
 -0.7396  -0.7121  -0.6800  -0.6782  -0.6712  -0.6437  -0.6097  -0.5999
 -0.5317  -0.5234  -0.5005  -0.4801  -0.4643  -0.4558  -0.4417  -0.4398
 -0.4245  -0.4221  -0.4202  -0.4155  -0.4066  -0.3884  -0.3814  -0.3729
 -0.3650  -0.3611  -0.3598  -0.3559  -0.3541  -0.3406  -0.3314  -0.3271
 -0.3171  -0.3146  -0.3074  -0.3051  -0.2606  -0.2574  -0.2260  -0.2165
 -0.1942  -0.1899  -0.1854  -0.1127

          Ground-State Mulliken Net Atomic Charges

     Atom                 Charge (a.u.)
  ----------------------------------------
      1 C                    -0.535917
      2 C                     0.826009
      3 C                     0.583806
      4 C                    -0.610432
      5 C                    -0.331786
      6 C                    -0.260923
      7 O                    -0.723718
      8 O                    -0.753707
      9 O                    -0.237819
     10 O                    -0.235522
     11 C                    -0.234140
     12 C                    -0.250174
     13 C                    -0.660140
     14 C                     0.258754
     15 C                    -0.773495
     16 C                     0.506332
     17 C                    -0.692023
     18 C                    -0.650449
     19 H                     0.164678
     20 H                     0.123395
     21 H                     0.144699
     22 H                     0.146001
     23 H                     0.171089
     24 H                     0.123622
     25 H                     0.155121
     26 H                     0.149856
     27 H                     0.168138
     28 H                     0.168526
     29 H                     0.160468
     30 H                     0.206416
     31 H                     0.134870
     32 H                     0.151653
     33 H                     0.151684
     34 H                     0.156082
     35 H                     0.146348
     36 H                     0.152700
  ----------------------------------------
  Sum of atomic charges =    -2.000000

                    Cartesian Multipole Moments
 -----------------------------------------------------------------
    Charge (ESU x 10^10)
                -9.6064
    Dipole Moment (Debye)
         X     -10.4058      Y      -0.8689      Z       1.1676
       Tot      10.5071
    Quadrupole Moments (Debye-Ang)
        XX    -143.3788     XY     -13.4443     YY    -166.5958
        XZ      -6.0116     YZ     -18.8972     ZZ    -124.5797

 Total job time:  113.42s(wall), 880.80s(cpu)
        *  Thank you very much for using Q-Chem.  Have a nice day.  *
