 Q-Chem 5.4, Q-Chem, Inc., Pleasanton, CA (2021)
 Q-Chem 5.4.0 for Intel X86 EM64T Linux

User input:
--------------------------------------------------------------
$molecule
0 1
C                 -1.3791820000      1.8895790000     -4.2654010000
C                 -1.3403730000      0.5042610000     -4.3356110000
C                 -1.0592070000     -0.2491370000     -3.1897280000
C                 -1.1373920000      2.5401110000     -3.0483200000
C                 -0.8558980000      1.7858270000     -1.9011150000
C                 -0.8184950000      0.3873960000     -1.9804820000
C                 -1.1828260000      4.0216790000     -2.9940460000
C                 -0.5974950000      2.4475620000     -0.5998030000
C                 -0.9281930000      4.6844710000     -1.7136340000
C                 -0.6433780000      3.9098210000     -0.5343840000
C                 -0.9646970000      6.1061770000     -1.6451040000
C                 -0.7086410000      6.7169510000     -0.3859030000
C                 -0.4388050000      5.9811000000      0.7336770000
C                 -0.3990300000      4.5595880000      0.7080250000
O                 -1.4349430000      4.6506300000     -4.0370570000
O                 -0.3497580000      1.7392130000      0.3927720000
H                 -1.5943390000      2.4935720000     -5.1376070000
H                 -1.5282860000      0.0049500000     -5.2795970000
H                 -1.0295920000     -1.3315330000     -3.2467150000
H                 -0.5994140000     -0.1735120000     -1.0809200000
H                 -0.2514590000      6.4993290000      1.6648970000
H                 -0.7268610000      7.7960500000     -0.3079440000
N                 -1.2302780000      6.8817240000     -2.7293760000
C                 -1.2836430000      8.3273580000     -2.7206860000
H                 -1.4008100000      6.3634930000     -3.5872460000
H                 -0.3262210000      8.7768790000     -2.4304610000
H                 -2.0611240000      8.7104780000     -2.0486410000
H                 -1.5185590000      8.6639940000     -3.7301560000
N                 -0.1347030000      3.8689380000      1.8511070000
C                  0.1549870000      4.4660960000      3.1385770000
C                  0.3181840000      3.3715700000      4.1953380000
O                  0.5874790000      3.9178580000      5.4807460000
H                 -0.1039110000      2.8576060000      1.7281950000
H                 -0.6523300000      5.1355560000      3.4583730000
H                  1.0773600000      5.0660090000      3.0967380000
H                  1.1027510000      2.6672140000      3.8898930000
H                 -0.6129420000      2.8105530000      4.2955810000
H                  1.4793550000      4.2795580000      5.4867470000
$end
$rem
MAX_SCF_CYCLES=200
BASIS  =  6-311++G(d,p)
GUI  =  2
JOB_TYPE  =  SP
METHOD  =  B3LYP
SOLVENT_METHOD = COSMO
$end
$solvent
dielectric 37.219
opticaldielectric 1.43
$end

--------------------------------------------------------------

             Standard Nuclear Orientation (Angstroms)
    I     Atom           X                Y                Z
 ----------------------------------------------------------------
    1      C       3.9203306586     1.0856156184     0.0035373126
    2      C       4.2907134763     2.4229070069     0.0003981425
    3      C       3.3108950691     3.4227220873    -0.0056358923
    4      C       2.5651196232     0.7301783323     0.0007385921
    5      C       1.5841738622     1.7311635577    -0.0053053388
    6      C       1.9665166519     3.0791661322    -0.0085329233
    7      C       2.1896405469    -0.7047646099     0.0035439500
    8      C       0.1427898433     1.3840503450    -0.0069695712
    9      C       0.7687072194    -1.0576508212     0.0011169221
   10      C      -0.2388990800    -0.0297602285    -0.0006841417
   11      C       0.3913008479    -2.4305458254     0.0003478694
   12      C      -0.9979943978    -2.7371630203    -0.0060808668
   13      C      -1.9544142232    -1.7609420657    -0.0072223035
   14      C      -1.6186117942    -0.3788677247    -0.0006127278
   15      O       3.0934989380    -1.5591882803     0.0073503283
   16      O      -0.6942487641     2.3047293347    -0.0142924929
   17      H       4.6595042520     0.2947651476     0.0081543105
   18      H       5.3407306211     2.6934450007     0.0027493139
   19      H       3.6024596990     4.4670835418    -0.0078463355
   20      H       1.1907898766     3.8341867929    -0.0127557997
   21      H      -2.9963860551    -2.0526585655    -0.0123889308
   22      H      -1.3110834689    -3.7729333982    -0.0104607843
   23      N       1.3042753444    -3.4375814217     0.0033584130
   24      C       0.9819290648    -4.8478540638     0.0055837841
   25      H       2.2729329233    -3.1289226596     0.0075694433
   26      H       0.4147107134    -5.1459611313    -0.8845578250
   27      H       0.4084133449    -5.1416525427     0.8930883163
   28      H       1.9160189095    -5.4090978316     0.0101224530
   29      N      -2.6065169124     0.5578759344     0.0069660972
   30      C      -4.0263805001     0.2732600176    -0.0258690398
   31      C      -4.8212306988     1.5767350095     0.0767484243
   32      O      -6.2236705981     1.3395566574     0.0652219079
   33      H      -2.2682375481     1.5191369222    -0.0128406261
   34      H      -4.3221813675    -0.3765813932     0.8062456755
   35      H      -4.3035868613    -0.2446431724    -0.9571858386
   36      H      -4.5267882599     2.2617504234    -0.7288674477
   37      H      -4.6067551982     2.0684449558     1.0275406989
   38      H      -6.4870042280     1.0612961415    -0.8176892915
 ----------------------------------------------------------------

    9    -992.9122864626      6.11e-06  Convergence criterion met
 Total energy in the final basis set =     -992.9122864626
    5    -992.9356230638      5.10e-06  Convergence criterion met
 Total energy in the final basis set =     -992.9356230638

                    Orbital Energies (a.u.)
 --------------------------------------------------------------

 Alpha MOs
 -- Occupied --
-19.1368 -19.1140 -19.1130 -14.3384 -14.3366 -10.2657 -10.2649 -10.2399
-10.2383 -10.2253 -10.2103 -10.2007 -10.1965 -10.1960 -10.1956 -10.1955
-10.1949 -10.1947 -10.1887 -10.1882 -10.1869 -10.1868  -1.0482  -1.0459
 -1.0374  -0.9571  -0.9499  -0.8807  -0.8572  -0.8047  -0.7774  -0.7685
 -0.7653  -0.7332  -0.6945  -0.6820  -0.6604  -0.6466  -0.6298  -0.6071
 -0.5894  -0.5536  -0.5501  -0.5346  -0.5241  -0.5123  -0.5001  -0.4834
 -0.4821  -0.4772  -0.4701  -0.4559  -0.4543  -0.4465  -0.4413  -0.4395
 -0.4373  -0.4256  -0.4206  -0.4119  -0.4048  -0.4017  -0.3981  -0.3884
 -0.3792  -0.3696  -0.3635  -0.3582  -0.3492  -0.3325  -0.2965  -0.2853
 -0.2755  -0.2755  -0.2702  -0.2642  -0.2625  -0.1944

          Ground-State Mulliken Net Atomic Charges

     Atom                 Charge (a.u.)
  ----------------------------------------
      1 C                     0.066376
      2 C                    -0.559241
      3 C                    -0.523064
      4 C                     0.187934
      5 C                     0.180809
      6 C                     0.019851
      7 C                    -0.184227
      8 C                    -0.173079
      9 C                     0.238384
     10 C                     0.234263
     11 C                    -0.150658
     12 C                    -0.076941
     13 C                    -0.102478
     14 C                    -0.503487
     15 O                    -0.368803
     16 O                    -0.348004
     17 H                     0.194809
     18 H                     0.217836
     19 H                     0.217862
     20 H                     0.186421
     21 H                     0.242603
     22 H                     0.250556
     23 N                    -0.304460
     24 C                    -0.388367
     25 H                     0.418788
     26 H                     0.176189
     27 H                     0.176759
     28 H                     0.181470
     29 N                    -0.135163
     30 C                    -0.187399
     31 C                    -0.351893
     32 O                    -0.353244
     33 H                     0.470978
     34 H                     0.180260
     35 H                     0.187540
     36 H                     0.175993
     37 H                     0.206513
     38 H                     0.298310
  ----------------------------------------
  Sum of atomic charges =    -0.000003

                    Cartesian Multipole Moments
 -----------------------------------------------------------------
    Charge (ESU x 10^10)
                -0.0000
    Dipole Moment (Debye)
         X      -2.3636      Y      -4.2082      Z      -1.7986
       Tot       5.1508
    Quadrupole Moments (Debye-Ang)
        XX    -126.4548     XY      17.4860     YY    -106.0947
        XZ      12.0069     YZ      -1.7277     ZZ    -131.5352

 Total job time:  141.93s(wall), 939.09s(cpu)
        *  Thank you very much for using Q-Chem.  Have a nice day.  *
