 Gaussian 16, Revision A.03,
 Gaussian 16:  ES64L-G16RevA.03 25-Dec-2016

 ----------------------------------------------------------------
 #P UB3LYP/6-311++G(d,p) SCRF=(PCM,Solvent=n,n-DiMethylFormamide)
 ----------------------------------------------------------------

 ------------------
 Radical PCM in DMF
 ------------------
 Symbolic Z-matrix:
 Charge = -1 Multiplicity = 2

                         Standard orientation:
 ---------------------------------------------------------------------
 Center     Atomic      Atomic             Coordinates (Angstroms)
 Number     Number       Type             X           Y           Z
 ---------------------------------------------------------------------
      1          6           0       -6.244578   -0.158249   -0.990133
      2          6           0       -6.805096   -1.423268   -0.988593
      3          6           0       -6.095218   -2.505643   -0.431623
      4          6           0       -4.967006    0.070862   -0.441161
      5          6           0       -4.253127   -1.018522    0.119048
      6          6           0       -4.839569   -2.299825    0.111679
      7          6           0       -4.397357    1.426798   -0.457145
      8          6           0       -3.078110    1.586865    0.123528
      9          6           0       -2.383015    0.518331    0.680687
     10          6           0       -2.917951   -0.827014    0.701921
     11          8           0       -5.040626    2.392331   -0.956826
     12          8           0       -2.275308   -1.796457    1.196217
     13          1           0       -7.790985   -1.583178   -1.415883
     14          6           0       -1.006991    0.685864    1.285278
     15          1           0       -6.534238   -3.499325   -0.429671
     16          6           0       -2.502913    2.984622    0.101233
     17          6           0        0.132943    0.339902    0.307099
     18          6           0        1.525584    0.459079    0.935897
     19          6           0        2.667740    0.107004   -0.024315
     20          1           0       -6.766953    0.693232   -1.411146
     21          1           0       -4.268951   -3.112677    0.546419
     22          1           0       -0.929597    0.009498    2.142338
     23          1           0       -0.868544    1.708133    1.652480
     24          1           0       -3.158230    3.628189   -0.486217
     25          1           0       -1.497113    3.010207   -0.332203
     26          1           0       -2.427814    3.409846    1.110697
     27          1           0        0.071542    0.993794   -0.572218
     28          1           0       -0.023388   -0.683572   -0.048094
     29          1           0        1.577925   -0.197157    1.814614
     30          1           0        1.672025    1.482084    1.310235
     31          1           0        2.614632    0.761210   -0.904809
     32          1           0        2.520327   -0.914747   -0.397320
     33          6           0        4.062123    0.219232    0.603261
     34          6           0        5.203275   -0.134200   -0.357587
     35          6           0        6.597402   -0.023209    0.270471
     36          6           0        7.737972   -0.376828   -0.690566
     37          6           0        9.132345   -0.265998   -0.063266
     38          6           0       10.264755   -0.621451   -1.031655
     39          1           0        4.115237   -0.435695    1.482995
     40          1           0        4.209162    1.241218    0.977657
     41          1           0        5.150422    0.520533   -1.237456
     42          1           0        5.056097   -1.155725   -0.731928
     43          1           0        6.650315   -0.678306    1.150035
     44          1           0        6.744664    0.998448    0.645058
     45          1           0        7.686055    0.277827   -1.570661
     46          1           0        7.591928   -1.398585   -1.065246
     47          1           0        9.185121   -0.920613    0.815440
     48          1           0        9.279193    0.754894    0.310536
     49          1           0       10.164706   -1.648969   -1.396206
     50          1           0       11.245122   -0.532598   -0.553981
     51          1           0       10.259574    0.038917   -1.904949
 ---------------------------------------------------------------------

 SCF Done:  E(UB3LYP) =  -967.980280236     A.U. after   18 cycles

 The electronic state is 2-A.
 Alpha  occ. eigenvalues --  -19.07016 -19.06936 -10.21467 -10.21359 -10.17045
 Alpha  occ. eigenvalues --  -10.16997 -10.16801 -10.16749 -10.16667 -10.16664
 Alpha  occ. eigenvalues --  -10.16496 -10.16137 -10.16074 -10.15825 -10.15804
 Alpha  occ. eigenvalues --  -10.15780 -10.15753 -10.15701 -10.15630 -10.15543
 Alpha  occ. eigenvalues --  -10.15450 -10.15406 -10.15042  -0.99494  -0.99207
 Alpha  occ. eigenvalues --   -0.85410  -0.81743  -0.80827  -0.79168  -0.76894
 Alpha  occ. eigenvalues --   -0.75144  -0.74638  -0.73410  -0.70551  -0.67933
 Alpha  occ. eigenvalues --   -0.65559  -0.64295  -0.61105  -0.59315  -0.58169
 Alpha  occ. eigenvalues --   -0.57504  -0.56965  -0.56836  -0.54681  -0.51124
 Alpha  occ. eigenvalues --   -0.48648  -0.48242  -0.46806  -0.46096  -0.45032
 Alpha  occ. eigenvalues --   -0.44007  -0.43288  -0.42572  -0.42286  -0.42136
 Alpha  occ. eigenvalues --   -0.41490  -0.41011  -0.40699  -0.40363  -0.39441
 Alpha  occ. eigenvalues --   -0.38969  -0.38360  -0.38091  -0.37650  -0.36935
 Alpha  occ. eigenvalues --   -0.36445  -0.35859  -0.35396  -0.34742  -0.34427
 Alpha  occ. eigenvalues --   -0.33668  -0.33594  -0.33006  -0.32939  -0.32361
 Alpha  occ. eigenvalues --   -0.32046  -0.32005  -0.31791  -0.31602  -0.29814
 Alpha  occ. eigenvalues --   -0.26371  -0.25359  -0.24116  -0.23642  -0.22920
 Alpha  occ. eigenvalues --   -0.14628
 Alpha virt. eigenvalues --   -0.02982  -0.01127  -0.00440  -0.00149   0.00401
 Alpha virt. eigenvalues --    0.00767   0.00856   0.01269   0.01626   0.01993
 Alpha virt. eigenvalues --    0.02366   0.02548   0.03344   0.03526   0.04112

  Beta  occ. eigenvalues --  -19.06400 -19.06334 -10.21292 -10.21186 -10.17010
  Beta  occ. eigenvalues --  -10.16961 -10.16747 -10.16703 -10.16659 -10.16651
  Beta  occ. eigenvalues --  -10.16362 -10.16074 -10.16004 -10.15825 -10.15804
  Beta  occ. eigenvalues --  -10.15780 -10.15752 -10.15701 -10.15628 -10.15530
  Beta  occ. eigenvalues --  -10.15450 -10.15416 -10.15053  -0.98425  -0.98121
  Beta  occ. eigenvalues --   -0.85205  -0.81483  -0.80743  -0.79095  -0.76804
  Beta  occ. eigenvalues --   -0.74998  -0.74461  -0.73300  -0.70363  -0.67797
  Beta  occ. eigenvalues --   -0.65156  -0.63962  -0.61030  -0.59219  -0.58002
  Beta  occ. eigenvalues --   -0.57478  -0.56940  -0.56735  -0.54418  -0.50926
  Beta  occ. eigenvalues --   -0.48436  -0.48218  -0.46766  -0.45856  -0.44970
  Beta  occ. eigenvalues --   -0.43945  -0.43197  -0.42246  -0.42115  -0.42022
  Beta  occ. eigenvalues --   -0.41246  -0.40812  -0.40346  -0.40012  -0.38997
  Beta  occ. eigenvalues --   -0.38567  -0.38320  -0.38014  -0.37475  -0.36400
  Beta  occ. eigenvalues --   -0.35974  -0.35531  -0.34749  -0.34218  -0.33767
  Beta  occ. eigenvalues --   -0.33583  -0.33156  -0.32900  -0.32803  -0.32308
  Beta  occ. eigenvalues --   -0.32011  -0.31980  -0.31787  -0.31538  -0.29729
  Beta  occ. eigenvalues --   -0.24705  -0.24228  -0.23551  -0.22652  -0.22348
  Beta virt. eigenvalues --   -0.08059  -0.02277  -0.00465  -0.00144  -0.00014
  Beta virt. eigenvalues --    0.00416   0.00771   0.00864   0.01275   0.01634
  Beta virt. eigenvalues --    0.02001   0.02376   0.02561   0.03354   0.03534

 Mulliken charges and spin densities:
               1          2
     1  C    0.180348   0.032722
     2  C   -0.445806   0.026276
     3  C   -0.453440   0.027744
     4  C    0.239941   0.012346
     5  C   -0.203826   0.020881
     6  C    0.089982   0.035143
     7  C   -0.851554   0.097326
     8  C    0.995347   0.091837
     9  C    1.078493   0.087031
    10  C   -0.917468   0.101818
    11  O   -0.482729   0.226064
    12  O   -0.461055   0.225568
    13  H    0.176998  -0.002319
    14  C   -0.477926   0.014363
    15  H    0.175681  -0.002223
    16  C   -0.546430  -0.002713
    17  C   -0.972364   0.000114
    18  C   -0.262876   0.005747
    19  C   -0.002149  -0.003909
    20  H    0.166816  -0.002231
    21  H    0.166428  -0.002495
    22  H    0.208678   0.003219
    23  H    0.177544   0.000619
    24  H    0.178535  -0.001620
    25  H    0.160536   0.004390
    26  H    0.174621   0.006093
    27  H    0.127484  -0.000632
    28  H    0.186250  -0.000517
    29  H    0.119526   0.000203
    30  H    0.110726  -0.000455
    31  H    0.128715   0.000120
    32  H    0.125271  -0.000174
    33  C    0.070656  -0.000415
    34  C   -0.007212  -0.000102
    35  C   -0.241232   0.000153
    36  C   -0.449393   0.000023
    37  C   -0.279590   0.000011
    38  C   -0.692211  -0.000005
    39  H    0.130072  -0.000002
    40  H    0.130478  -0.000000
    41  H    0.129201  -0.000005
    42  H    0.129893   0.000005
    43  H    0.126450   0.000004
    44  H    0.126264  -0.000002
    45  H    0.123542   0.000000
    46  H    0.123472  -0.000001
    47  H    0.130957  -0.000001
    48  H    0.130911   0.000000
    49  H    0.140112  -0.000000
    50  H    0.147346  -0.000001
    51  H    0.139987   0.000000
 Sum of Mulliken charges =  -1.00000   1.00000

 Dipole moment (field-independent basis, Debye):
    X=             18.3311    Y=             -0.8547    Z=             -0.2925  Tot=             18.3533
 Quadrupole moment (field-independent basis, Debye-Ang):
   XX=           -227.7424   YY=           -166.4679   ZZ=           -155.6973
   XY=             19.8065   XZ=             -3.8407   YZ=             10.4630

 Normal termination of Gaussian 16 at Sun Jan 21 08:30:50 2024.
