 Gaussian 16, Revision A.03,
 Gaussian 16:  ES64L-G16RevA.03 25-Dec-2016

 ----------------------------------------------------------------------
 #P UB3LYP/6-311++G(d,p) nosym opt freq SCRF=(PCM,Solvent=n,n-DiMethylF
 ormamide)
 ----------------------------------------------------------------------

 --------
 Oxidized
 --------
 Symbolic Z-matrix:
 Charge =  0 Multiplicity = 1

 SCF Done:  E(UB3LYP) =  -535.456327383     A.U. after   16 cycles
 SCF Done:  E(UB3LYP) =  -535.456393638     A.U. after   13 cycles
 SCF Done:  E(UB3LYP) =  -535.456424987     A.U. after   13 cycles
 SCF Done:  E(UB3LYP) =  -535.456460970     A.U. after   12 cycles
 SCF Done:  E(UB3LYP) =  -535.456470511     A.U. after   11 cycles
 SCF Done:  E(UB3LYP) =  -535.456481797     A.U. after   11 cycles
 SCF Done:  E(UB3LYP) =  -535.456488825     A.U. after   11 cycles
 SCF Done:  E(UB3LYP) =  -535.456498609     A.U. after   12 cycles
 SCF Done:  E(UB3LYP) =  -535.456507258     A.U. after   11 cycles
 SCF Done:  E(UB3LYP) =  -535.456517198     A.U. after   11 cycles
 SCF Done:  E(UB3LYP) =  -535.456540556     A.U. after   11 cycles
 SCF Done:  E(UB3LYP) =  -535.456549003     A.U. after   10 cycles
 SCF Done:  E(UB3LYP) =  -535.456559578     A.U. after   11 cycles
 SCF Done:  E(UB3LYP) =  -535.456563167     A.U. after   11 cycles
 SCF Done:  E(UB3LYP) =  -535.456564536     A.U. after   11 cycles
 SCF Done:  E(UB3LYP) =  -535.456564778     A.U. after   10 cycles
 SCF Done:  E(UB3LYP) =  -535.456564900     A.U. after   10 cycles
 SCF Done:  E(UB3LYP) =  -535.456564971     A.U. after    9 cycles
 SCF Done:  E(UB3LYP) =  -535.456564995     A.U. after    9 cycles
 Optimization completed.
    -- Stationary point found.
 Normal termination of Gaussian 16 at Sat Feb 10 10:47:51 2024.

 ----------------------------------------------------------------------
 #P Geom=AllCheck Guess=TCheck SCRF=Check GenChk UB3LYP/6-311++G(d,p) F
 req
 ----------------------------------------------------------------------

 Structure from the checkpoint file:  "083.chk"
 --------
 Oxidized
 --------
 Charge =  0 Multiplicity = 1

                          Input orientation:
 ---------------------------------------------------------------------
 Center     Atomic      Atomic             Coordinates (Angstroms)
 Number     Number       Type             X           Y           Z
 ---------------------------------------------------------------------
      1          6           0        1.549333    0.841503   -0.769341
      2          6           0        0.269024    1.560575   -0.588493
      3          6           0       -0.797354    0.944853   -0.072626
      4          6           0       -0.747510   -0.492383    0.301744
      5          6           0        0.492732   -1.259480    0.059019
      6          6           0        1.571530   -0.632029   -0.480787
      7          8           0        2.559649    1.441104   -1.105867
      8          8           0       -1.741781   -1.024708    0.787839
      9          6           0        0.500931   -2.711139    0.434481
     10          8           0        2.719718   -1.321200   -0.632979
     11          6           0        3.581448   -1.104621   -1.777165
     12          1           0        0.269001    2.608293   -0.865541
     13          1           0       -1.739966    1.451777    0.098108
     14          1           0        0.641538   -2.830099    1.514510
     15          1           0        1.308484   -3.238202   -0.070429
     16          1           0       -0.454829   -3.174267    0.184630
     17          1           0        4.108399   -2.047242   -1.915384
     18          1           0        4.285607   -0.299673   -1.580877
     19          1           0        2.992757   -0.879754   -2.667232
 ---------------------------------------------------------------------

 SCF Done:  E(UB3LYP) =  -535.456564995     A.U. after    1 cycles

 Alpha  occ. eigenvalues --  -19.17288 -19.14801 -19.13797 -10.29443 -10.28442
 Alpha  occ. eigenvalues --  -10.26730 -10.22722 -10.21351 -10.21224 -10.20877
 Alpha  occ. eigenvalues --  -10.17377  -1.09542  -1.06899  -1.06628  -0.86520
 Alpha  occ. eigenvalues --   -0.80890  -0.74362  -0.70324  -0.69511  -0.61823
 Alpha  occ. eigenvalues --   -0.60132  -0.54212  -0.52956  -0.50333  -0.48826
 Alpha  occ. eigenvalues --   -0.47479  -0.45629  -0.44829  -0.43972  -0.43778
 Alpha  occ. eigenvalues --   -0.42697  -0.40613  -0.40399  -0.39245  -0.37440
 Alpha  occ. eigenvalues --   -0.34307  -0.31305  -0.29040  -0.28320  -0.25953
 Alpha virt. eigenvalues --   -0.13532  -0.02415  -0.00788  -0.00356   0.00679
 Alpha virt. eigenvalues --    0.00877   0.02630   0.03042   0.03198   0.03760
 Alpha virt. eigenvalues --    0.04495   0.05934   0.06485   0.06518   0.07900

  Beta  occ. eigenvalues --  -19.17288 -19.14801 -19.13797 -10.29443 -10.28442
  Beta  occ. eigenvalues --  -10.26730 -10.22722 -10.21351 -10.21224 -10.20877
  Beta  occ. eigenvalues --  -10.17377  -1.09542  -1.06899  -1.06628  -0.86520
  Beta  occ. eigenvalues --   -0.80890  -0.74362  -0.70324  -0.69511  -0.61823
  Beta  occ. eigenvalues --   -0.60132  -0.54212  -0.52956  -0.50333  -0.48826
  Beta  occ. eigenvalues --   -0.47479  -0.45629  -0.44829  -0.43972  -0.43778
  Beta  occ. eigenvalues --   -0.42697  -0.40613  -0.40399  -0.39245  -0.37440
  Beta  occ. eigenvalues --   -0.34307  -0.31305  -0.29040  -0.28320  -0.25953
  Beta virt. eigenvalues --   -0.13532  -0.02415  -0.00788  -0.00356   0.00679
  Beta virt. eigenvalues --    0.00877   0.02630   0.03042   0.03198   0.03760
  Beta virt. eigenvalues --    0.04495   0.05934   0.06485   0.06518   0.07900

 Mulliken charges and spin densities:
               1          2
     1  C   -0.047217   0.000000
     2  C    0.028184  -0.000000
     3  C    0.305561   0.000000
     4  C   -1.223301  -0.000000
     5  C    2.137477   0.000000
     6  C   -1.517165   0.000000
     7  O   -0.270158  -0.000000
     8  O   -0.290032   0.000000
     9  C   -0.186442   0.000000
    10  O   -0.175578  -0.000000
    11  C   -0.313888   0.000000
    12  H    0.244050  -0.000000
    13  H    0.239975  -0.000000
    14  H    0.198654   0.000000
    15  H    0.181812  -0.000000
    16  H    0.168840  -0.000000
    17  H    0.156558  -0.000000
    18  H    0.190785  -0.000000
    19  H    0.171885   0.000000
 Sum of Mulliken charges =  -0.00000   0.00000

 Dipole moment (field-independent basis, Debye):
    X=              1.2465    Y=              0.2004    Z=             -2.1229  Tot=              2.4699
 Quadrupole moment (field-independent basis, Debye-Ang):
   XX=            -69.9507   YY=            -62.3638   ZZ=            -61.9507
   XY=            -11.3588   XZ=             -0.4474   YZ=              4.2886

  Exact polarizability: 193.803  26.907 142.804 -47.527 -24.181 104.464
 Approx polarizability: 250.708  53.859 159.452 -65.863 -34.451 124.694

                      1                      2                      3
                      A                      A                      A
 Frequencies --     33.4498                71.2605                74.6233
 Red. masses --      1.8836                 1.2500                 5.5452
 Frc consts  --      0.0012                 0.0037                 0.0182
 IR Inten    --     14.4267                 2.8510                11.9075

                      4                      5                      6
                      A                      A                      A
 Frequencies --     97.0428               144.8711               226.3000
 Red. masses --      2.9951                 1.4262                 3.1748
 Frc consts  --      0.0166                 0.0176                 0.0958
 IR Inten    --     11.7057                 6.0823                 2.1589

                      7                      8                      9
                      A                      A                      A
 Frequencies --    256.2002               279.4918               304.4558
 Red. masses --      4.2608                 5.1963                 3.0976
 Frc consts  --      0.1648                 0.2392                 0.1692
 IR Inten    --      2.7192                 8.6358                 4.1774

                     10                     11                     12
                      A                      A                      A
 Frequencies --    373.8009               396.9743               430.7566
 Red. masses --      5.0324                10.0022                 5.8103
 Frc consts  --      0.4143                 0.9287                 0.6352
 IR Inten    --      5.1360                24.6135                12.3333

                     13                     14                     15
                      A                      A                      A
 Frequencies --    464.4727               541.0987               609.0450
 Red. masses --     10.4044                 3.8204                 4.6258
 Frc consts  --      1.3225                 0.6590                 1.0110
 IR Inten    --      5.4725                 3.1950                 7.3355

                     16                     17                     18
                      A                      A                      A
 Frequencies --    619.9072               643.2270               754.6846
 Red. masses --      3.0116                 4.0715                 6.9647
 Frc consts  --      0.6819                 0.9925                 2.3371
 IR Inten    --     10.0930                26.0115                24.3978

                     19                     20                     21
                      A                      A                      A
 Frequencies --    786.7498               844.9792               853.6210
 Red. masses --      6.8175                 2.9108                 2.2277
 Frc consts  --      2.4863                 1.2245                 0.9564
 IR Inten    --      5.8348                73.2186                66.5246

                     22                     23                     24
                      A                      A                      A
 Frequencies --    988.7774              1005.5370              1031.2142
 Red. masses --      4.3939                 1.2523                 3.0254
 Frc consts  --      2.5310                 0.7461                 1.8955
 IR Inten    --     27.0425                 1.2146                88.7786

                     25                     26                     27
                      A                      A                      A
 Frequencies --   1047.9633              1101.7680              1144.4140
 Red. masses --      1.5303                 1.9010                 2.3495
 Frc consts  --      0.9902                 1.3596                 1.8129
 IR Inten    --     14.7510               146.1367                46.9220

                     28                     29                     30
                      A                      A                      A
 Frequencies --   1157.7307              1173.5126              1226.4437
 Red. masses --      1.2521                 1.5668                 1.9680
 Frc consts  --      0.9888                 1.2712                 1.7441
 IR Inten    --      0.9924               167.8142               289.5048

                     31                     32                     33
                      A                      A                      A
 Frequencies --   1308.7703              1338.6588              1385.7531
 Red. masses --      3.7698                 4.5045                 1.8474
 Frc consts  --      3.8045                 4.7559                 2.0902
 IR Inten    --    531.7250                74.1682                 7.8265

                     34                     35                     36
                      A                      A                      A
 Frequencies --   1403.9330              1458.9445              1473.0466
 Red. masses --      1.2959                 1.0795                 1.0959
 Frc consts  --      1.5050                 1.3538                 1.4011
 IR Inten    --     42.3623                 9.5359                25.8357

                     37                     38                     39
                      A                      A                      A
 Frequencies --   1477.0760              1482.5791              1486.4342
 Red. masses --      1.0815                 1.1200                 1.0454
 Frc consts  --      1.3902                 1.4504                 1.3609
 IR Inten    --     10.7576                 8.2086                44.9709

                     40                     41                     42
                      A                      A                      A
 Frequencies --   1627.4797              1667.8852              1683.6594
 Red. masses --      7.7813                11.4693                 9.4955
 Frc consts  --     12.1433                18.7983                15.8589
 IR Inten    --    347.3123               368.6748               664.2063

                     43                     44                     45
                      A                      A                      A
 Frequencies --   1710.4256              3029.4307              3053.1717
 Red. masses --      9.0999                 1.0474                 1.0299
 Frc consts  --     15.6854                 5.6635                 5.6562
 IR Inten    --    140.9877                19.3901                71.1597

                     46                     47                     48
                      A                      A                      A
 Frequencies --   3091.8125              3136.7054              3141.8706
 Red. masses --      1.0876                 1.1060                 1.1016
 Frc consts  --      6.1255                 6.4113                 6.4067
 IR Inten    --     18.2520                32.2488                 5.6277

                     49                     50                     51
                      A                      A                      A
 Frequencies --   3154.3940              3184.3639              3201.2460
 Red. masses --      1.1080                 1.0874                 1.1003
 Frc consts  --      6.4955                 6.4965                 6.6436
 IR Inten    --     18.8603                 4.1067                 2.7153

 - Thermochemistry -
 -------------------
 Temperature   298.150 Kelvin.  Pressure   1.00000 Atm.
 Atom     1 has atomic number  6 and mass  12.00000

 Molecular mass:   152.04734 amu.
 Principal axes and moments of inertia in atomic units:
                           1         2         3
     Eigenvalues --  1051.684621772.661922758.27061
           X            0.91502  -0.16208   0.36941
           Y            0.09692   0.97724   0.18870
           Z           -0.39159  -0.13686   0.90991
 This molecule is an asymmetric top.
 Rotational symmetry number  1.
 Warning -- assumption of classical behavior for rotation
           may cause significant error
 Rotational temperatures (Kelvin)      0.08236     0.04886     0.03140
 Rotational constants (GHZ):           1.71605     1.01810     0.65430
 Zero-point vibrational energy     377912.4 (Joules/Mol)
                                   90.32322 (Kcal/Mol)
 Warning -- explicit consideration of  16 degrees of freedom as
           vibrations may cause significant error
 Vibrational temperatures:     48.13   102.53   107.37   139.62   208.44
          (Kelvin)            325.60   368.61   402.13   438.04   537.82
                              571.16   619.76   668.27   778.52   876.28
                              891.91   925.46  1085.82  1131.96  1215.74
                             1228.17  1422.63  1446.74  1483.69  1507.79
                             1585.20  1646.56  1665.72  1688.42  1764.58
                             1883.03  1926.03  1993.79  2019.95  2099.10
                             2119.39  2125.18  2133.10  2138.65  2341.58
                             2399.71  2422.41  2460.92  4358.68  4392.83
                             4448.43  4513.02  4520.45  4538.47  4581.59
                             4605.88

 Zero-point correction=                           0.143939 (Hartree/Particle)
 Thermal correction to Energy=                    0.154902
 Thermal correction to Enthalpy=                  0.155846
 Thermal correction to Gibbs Free Energy=         0.106175
 Sum of electronic and zero-point Energies=           -535.312626
 Sum of electronic and thermal Energies=              -535.301663
 Sum of electronic and thermal Enthalpies=            -535.300719
 Sum of electronic and thermal Free Energies=         -535.350390

                     E (Thermal)             CV                S
                      KCal/Mol        Cal/Mol-Kelvin    Cal/Mol-Kelvin
 Total                   97.203             38.715            104.542
 Electronic               0.000              0.000              0.000
 Translational            0.889              2.981             40.967
 Rotational               0.889              2.981             30.021
 Vibrational             95.425             32.753             33.555
 Vibration     1          0.594              1.983              5.614
 Vibration     2          0.598              1.968              4.118
 Vibration     3          0.599              1.966              4.028
 Vibration     4          0.603              1.951              3.513
 Vibration     5          0.616              1.908              2.739
 Vibration     6          0.650              1.801              1.908
 Vibration     7          0.666              1.752              1.688
 Vibration     8          0.680              1.712              1.537
 Vibration     9          0.695              1.665              1.392
 Vibration    10          0.745              1.526              1.064
 Vibration    11          0.763              1.477              0.974
 Vibration    12          0.792              1.403              0.856
 Vibration    13          0.822              1.329              0.753
 Vibration    14          0.896              1.159              0.563
 Vibration    15          0.968              1.013              0.434
 Vibration    16          0.980              0.990              0.417

 Optimization completed.
    -- Stationary point found.
 Normal termination of Gaussian 16 at Sat Feb 10 10:55:13 2024.
