 Gaussian 16, Revision A.03,
 Gaussian 16:  ES64L-G16RevA.03 25-Dec-2016

 ----------------------------------------------------------------------
 #P UB3LYP/6-311++G(d,p) nosym opt freq SCRF=(PCM,Solvent=n,n-DiMethylF
 ormamide)
 ----------------------------------------------------------------------

 -------
 Radical
 -------
 Symbolic Z-matrix:
 Charge = -1 Multiplicity = 2

 SCF Done:  E(UB3LYP) =  -496.311221479     A.U. after   18 cycles
 SCF Done:  E(UB3LYP) =  -496.311447695     A.U. after   15 cycles
 SCF Done:  E(UB3LYP) =  -496.311480781     A.U. after   14 cycles
 SCF Done:  E(UB3LYP) =  -496.311483910     A.U. after   13 cycles
 SCF Done:  E(UB3LYP) =  -496.311485097     A.U. after   10 cycles
 SCF Done:  E(UB3LYP) =  -496.311486077     A.U. after   10 cycles
 SCF Done:  E(UB3LYP) =  -496.311487067     A.U. after   11 cycles
 SCF Done:  E(UB3LYP) =  -496.311487701     A.U. after   10 cycles
 SCF Done:  E(UB3LYP) =  -496.311488452     A.U. after   10 cycles
 SCF Done:  E(UB3LYP) =  -496.311488850     A.U. after   10 cycles
 Optimization completed.
    -- Stationary point found.
 Normal termination of Gaussian 16 at Sat Feb 10 11:31:10 2024.

 ----------------------------------------------------------------------
 #P Geom=AllCheck Guess=TCheck SCRF=Check GenChk UB3LYP/6-311++G(d,p) F
 req
 ----------------------------------------------------------------------

 Structure from the checkpoint file:  "108-rad.chk"
 -------
 Radical
 -------
 Charge = -1 Multiplicity = 2

                          Input orientation:
 ---------------------------------------------------------------------
 Center     Atomic      Atomic             Coordinates (Angstroms)
 Number     Number       Type             X           Y           Z
 ---------------------------------------------------------------------
      1          6           0       -1.757185   -3.721623    1.295465
      2          6           0       -0.371355   -3.957726    1.044014
      3          6           0        0.438303   -2.952469    0.575588
      4          6           0       -0.054501   -1.616163    0.313222
      5          6           0       -1.465127   -1.354633    0.559068
      6          6           0       -2.250359   -2.376015    1.028479
      7          8           0       -2.591372   -4.587064    1.731335
      8          8           0        0.720217   -0.705151   -0.116668
      9          8           0       -3.581225   -2.213465    1.288204
     10          6           0       -2.010908    0.022303    0.293192
     11          1           0        0.019363   -4.952433    1.234601
     12          1           0        1.491863   -3.130860    0.384647
     13          1           0       -1.522717    0.770078    0.927112
     14          1           0       -3.084217    0.064454    0.478558
     15          1           0       -1.825033    0.324999   -0.742160
     16          1           0       -3.858780   -3.100001    1.600469
 ---------------------------------------------------------------------

 SCF Done:  E(UB3LYP) =  -496.311488850     A.U. after    1 cycles

 Alpha  occ. eigenvalues --  -19.14274 -19.08637 -19.07468 -10.22105 -10.22016
 Alpha  occ. eigenvalues --  -10.21893 -10.16367 -10.16320 -10.16196 -10.15586
 Alpha  occ. eigenvalues --   -1.06133  -0.99427  -0.99278  -0.82297  -0.76248
 Alpha  occ. eigenvalues --   -0.69242  -0.66651  -0.59246  -0.57749  -0.51039
 Alpha  occ. eigenvalues --   -0.48583  -0.45762  -0.43550  -0.42849  -0.40204
 Alpha  occ. eigenvalues --   -0.39943  -0.39740  -0.39335  -0.37211  -0.35977
 Alpha  occ. eigenvalues --   -0.35490  -0.34489  -0.27984  -0.25748  -0.23939
 Alpha  occ. eigenvalues --   -0.22697  -0.16256
 Alpha virt. eigenvalues --   -0.00286   0.00405   0.01145   0.01449   0.02901
 Alpha virt. eigenvalues --    0.03477   0.03952   0.04187   0.05674   0.07283
 Alpha virt. eigenvalues --    0.07376   0.07666   0.08706   0.09452   0.10317

  Beta  occ. eigenvalues --  -19.14236 -19.07960 -19.06814 -10.21946 -10.21858
  Beta  occ. eigenvalues --  -10.21772 -10.16340 -10.16255 -10.15964 -10.15590
  Beta  occ. eigenvalues --   -1.05950  -0.98291  -0.98116  -0.81720  -0.76002
  Beta  occ. eigenvalues --   -0.68732  -0.65854  -0.58925  -0.57381  -0.50675
  Beta  occ. eigenvalues --   -0.48396  -0.45414  -0.42657  -0.42492  -0.39839
  Beta  occ. eigenvalues --   -0.39464  -0.39108  -0.39078  -0.35751  -0.35393
  Beta  occ. eigenvalues --   -0.34282  -0.33364  -0.25136  -0.24956  -0.23320
  Beta  occ. eigenvalues --   -0.21908
  Beta virt. eigenvalues --   -0.08914  -0.00252   0.01161   0.01488   0.01736
  Beta virt. eigenvalues --    0.03499   0.03997   0.04217   0.05158   0.05736
  Beta virt. eigenvalues --    0.07402   0.07576   0.07701   0.08830   0.09498

 Mulliken charges and spin densities:
               1          2
     1  C   -0.157448   0.146336
     2  C    0.011901   0.053685
     3  C    0.214564   0.178936
     4  C   -1.043549   0.076925
     5  C    2.000414   0.026610
     6  C   -1.567155   0.041268
     7  O   -0.541762   0.239402
     8  O   -0.497382   0.232904
     9  O   -0.296133   0.013875
    10  C   -0.272662   0.009173
    11  H    0.187344  -0.004774
    12  H    0.180358  -0.014083
    13  H    0.161424   0.001817
    14  H    0.172825  -0.000379
    15  H    0.159549   0.001606
    16  H    0.287714  -0.003301
 Sum of Mulliken charges =  -1.00000   1.00000

 Dipole moment (field-independent basis, Debye):
    X=              4.9139    Y=             11.2631    Z=             -3.5701  Tot=             12.7965
 Quadrupole moment (field-independent basis, Debye-Ang):
   XX=            -82.2048   YY=           -106.6351   ZZ=            -69.0748
   XY=            -26.2426   XZ=             11.1773   YZ=             16.7557

  Exact polarizability: 177.684  37.597 187.945 -33.041 -38.950  98.036
 Approx polarizability: 200.457  51.714 205.502 -40.172 -44.594 110.308

                      1                      2                      3
                      A                      A                      A
 Frequencies --     77.7574               134.2176               141.7299
 Red. masses --      1.1147                 5.8921                 4.1948
 Frc consts  --      0.0040                 0.0625                 0.0496
 IR Inten    --      1.2170                16.9019                 0.2325

                      4                      5                      6
                      A                      A                      A
 Frequencies --    259.9053               283.1542               322.2912
 Red. masses --      4.2964                 3.0167                 5.5584
 Frc consts  --      0.1710                 0.1425                 0.3402
 IR Inten    --      1.4051                 8.4586                25.9515

                      7                      8                      9
                      A                      A                      A
 Frequencies --    339.9248               384.9952               474.9330
 Red. masses --      5.4563                10.4634                 7.2122
 Frc consts  --      0.3715                 0.9138                 0.9585
 IR Inten    --      0.0247                29.5105                 7.6321

                     10                     11                     12
                      A                      A                      A
 Frequencies --    481.6056               508.5568               617.6911
 Red. masses --     11.0879                 3.9745                 4.0364
 Frc consts  --      1.5153                 0.6056                 0.9074
 IR Inten    --      0.0821                 0.0059                 1.4538

                     13                     14                     15
                      A                      A                      A
 Frequencies --    633.8979               648.6022               664.5902
 Red. masses --      2.4200                 1.0907                 6.2643
 Frc consts  --      0.5729                 0.2703                 1.6302
 IR Inten    --      8.3937               147.1976                10.2029

                     16                     17                     18
                      A                      A                      A
 Frequencies --    734.9973               771.3622               808.0865
 Red. masses --      8.1532                 7.6331                 2.0469
 Frc consts  --      2.5951                 2.6759                 0.7875
 IR Inten    --      1.5363                61.3676                82.5712

                     19                     20                     21
                      A                      A                      A
 Frequencies --    894.8403               920.5988              1023.4883
 Red. masses --      2.2125                 1.2376                 2.8749
 Frc consts  --      1.0438                 0.6180                 1.7743
 IR Inten    --     27.1936                 0.2350                81.4580

                     22                     23                     24
                      A                      A                      A
 Frequencies --   1044.3227              1084.3074              1162.7412
 Red. masses --      1.4656                 1.8433                 1.6424
 Frc consts  --      0.9417                 1.2769                 1.3082
 IR Inten    --      0.2575               150.4087                12.9128

                     25                     26                     27
                      A                      A                      A
 Frequencies --   1199.9954              1251.3240              1309.3950
 Red. masses --      4.1819                 3.6147                 1.8613
 Frc consts  --      3.5480                 3.3347                 1.8802
 IR Inten    --    323.4254                 5.4157               126.0900

                     28                     29                     30
                      A                      A                      A
 Frequencies --   1375.8989              1396.8853              1426.5491
 Red. masses --      1.7789                 1.3588                 5.4382
 Frc consts  --      1.9841                 1.5621                 6.5205
 IR Inten    --    116.0080                 1.5459               778.5911

                     31                     32                     33
                      A                      A                      A
 Frequencies --   1458.1224              1469.0310              1481.3858
 Red. masses --      4.3098                 1.0544                 1.2241
 Frc consts  --      5.3987                 1.3407                 1.5828
 IR Inten    --     81.3972                11.8607               106.8723

                     34                     35                     36
                      A                      A                      A
 Frequencies --   1509.2344              1570.9260              1665.2144
 Red. masses --      5.2031                 5.5054                 6.4619
 Frc consts  --      6.9828                 8.0048                10.5573
 IR Inten    --    845.0435                82.5294                 9.7309

                     37                     38                     39
                      A                      A                      A
 Frequencies --   3019.7639              3058.4030              3118.0524
 Red. masses --      1.0391                 1.0995                 1.0979
 Frc consts  --      5.5829                 6.0593                 6.2892
 IR Inten    --     68.7012                40.3140                20.7761

                     40                     41                     42
                      A                      A                      A
 Frequencies --   3151.8646              3170.3868              3531.0554
 Red. masses --      1.0859                 1.0950                 1.0641
 Frc consts  --      6.3560                 6.4850                 7.8172
 IR Inten    --     30.9159                27.8873               210.9604

 - Thermochemistry -
 -------------------
 Temperature   298.150 Kelvin.  Pressure   1.00000 Atm.
 Atom     1 has atomic number  6 and mass  12.00000

 Molecular mass:   138.03169 amu.
 Principal axes and moments of inertia in atomic units:
                           1         2         3
     Eigenvalues --   854.347841379.821172223.09454
           X            0.59891   0.77157   0.21445
           Y            0.72452  -0.63614   0.26532
           Z           -0.34113   0.00353   0.94001
 This molecule is an asymmetric top.
 Rotational symmetry number  1.
 Warning -- assumption of classical behavior for rotation
           may cause significant error
 Rotational temperatures (Kelvin)      0.10138     0.06277     0.03896
 Rotational constants (GHZ):           2.11242     1.30795     0.81181
 Zero-point vibrational energy     302548.1 (Joules/Mol)
                                   72.31072 (Kcal/Mol)
 Warning -- explicit consideration of  12 degrees of freedom as
           vibrations may cause significant error
 Vibrational temperatures:    111.88   193.11   203.92   373.95   407.40
          (Kelvin)            463.71   489.08   553.92   683.32   692.92
                              731.70   888.72   912.04   933.19   956.20
                             1057.50  1109.82  1162.66  1287.48  1324.54
                             1472.57  1502.55  1560.08  1672.93  1726.53
                             1800.38  1883.93  1979.61  2009.81  2052.49
                             2097.91  2113.61  2131.38  2171.45  2260.21
                             2395.87  4344.77  4400.36  4486.18  4534.83
                             4561.48  5080.40

 Zero-point correction=                           0.115234 (Hartree/Particle)
 Thermal correction to Energy=                    0.124002
 Thermal correction to Enthalpy=                  0.124947
 Thermal correction to Gibbs Free Energy=         0.080853
 Sum of electronic and zero-point Energies=           -496.196254
 Sum of electronic and thermal Energies=              -496.187486
 Sum of electronic and thermal Enthalpies=            -496.186542
 Sum of electronic and thermal Free Energies=         -496.230636

                     E (Thermal)             CV                S
                      KCal/Mol        Cal/Mol-Kelvin    Cal/Mol-Kelvin
 Total                   77.813             33.099             92.802
 Electronic               0.000              0.000              1.377
 Translational            0.889              2.981             40.679
 Rotational               0.889              2.981             29.351
 Vibrational             76.035             27.138             21.395
 Vibration     1          0.599              1.964              3.947
 Vibration     2          0.613              1.919              2.885
 Vibration     3          0.615              1.912              2.780
 Vibration     4          0.668              1.746              1.662
 Vibration     5          0.682              1.705              1.515
 Vibration     6          0.707              1.631              1.298
 Vibration     7          0.720              1.596              1.213
 Vibration     8          0.754              1.502              1.019
 Vibration     9          0.832              1.306              0.724
 Vibration    10          0.838              1.291              0.706
 Vibration    11          0.864              1.231              0.637
 Vibration    12          0.977              0.995              0.420

 Optimization completed.
    -- Stationary point found.
 Normal termination of Gaussian 16 at Sat Feb 10 11:39:19 2024.
