 Q-Chem 5.4, Q-Chem, Inc., Pleasanton, CA (2021)
 Q-Chem 5.4.0 for Intel X86 EM64T Linux

User input:
--------------------------------------------------------------
$molecule
0 1
N                 -4.6815940000      0.3903010000      0.3318700000
C                 -3.7041570000     -0.1485860000      0.6343970000
C                 -2.4970910000     -0.8079750000      1.0029970000
C                 -2.6259500000     -1.8998350000      1.9079670000
N                 -2.7257450000     -2.7872720000      2.6426990000
C                 -1.2656700000     -0.4094410000      0.5084000000
C                 -1.1526890000      0.7017260000     -0.4098970000
C                  0.0494580000      1.0905590000     -0.8928770000
C                  1.2655830000      0.4094150000     -0.5084400000
C                  1.1526420000     -0.7015170000      0.4100450000
C                 -0.0494770000     -1.0904270000      0.8930040000
C                  2.4970210000      0.8078750000     -1.0030090000
C                  3.7041120000      0.1484180000     -0.6345700000
N                  4.6815740000     -0.3905130000     -0.3321430000
C                  2.6260050000      1.8996520000     -1.9080990000
N                  2.7259140000      2.7868420000     -2.6429930000
H                 -2.0528800000      1.2245890000     -0.7093420000
H                  0.1141190000      1.9255000000     -1.5799680000
H                  2.0529570000     -1.2240580000      0.7097360000
H                 -0.1141320000     -1.9252510000      1.5802240000
$end

$rem
BASIS  =  6-311++G(d,p)
GUI  =  2
JOB_TYPE  =  SP
METHOD  =  B3LYP
SCF_CONVERGENCE  = 8
SOLVENT_METHOD = sm12
$end

$smx
solvent dimethylformamide
charges CM5
$end

--------------------------------------------------------------

             Standard Nuclear Orientation (Angstroms)
    I     Atom           X                Y                Z
 ----------------------------------------------------------------
    1      N      -4.6815940000     0.3903010000     0.3318700000
    2      C      -3.7041570000    -0.1485860000     0.6343970000
    3      C      -2.4970910000    -0.8079750000     1.0029970000
    4      C      -2.6259500000    -1.8998350000     1.9079670000
    5      N      -2.7257450000    -2.7872720000     2.6426990000
    6      C      -1.2656700000    -0.4094410000     0.5084000000
    7      C      -1.1526890000     0.7017260000    -0.4098970000
    8      C       0.0494580000     1.0905590000    -0.8928770000
    9      C       1.2655830000     0.4094150000    -0.5084400000
   10      C       1.1526420000    -0.7015170000     0.4100450000
   11      C      -0.0494770000    -1.0904270000     0.8930040000
   12      C       2.4970210000     0.8078750000    -1.0030090000
   13      C       3.7041120000     0.1484180000    -0.6345700000
   14      N       4.6815740000    -0.3905130000    -0.3321430000
   15      C       2.6260050000     1.8996520000    -1.9080990000
   16      N       2.7259140000     2.7868420000    -2.6429930000
   17      H      -2.0528800000     1.2245890000    -0.7093420000
   18      H       0.1141190000     1.9255000000    -1.5799680000
   19      H       2.0529570000    -1.2240580000     0.7097360000
   20      H      -0.1141320000    -1.9252510000     1.5802240000
 ----------------------------------------------------------------

   15    -678.7441043980      3.82e-09  Convergence criterion met
 Total energy in the final basis set =     -678.7573510640

                    Orbital Energies (a.u.)
 --------------------------------------------------------------

 Alpha MOs
 -- Occupied --
-14.3528 -14.3528 -14.3528 -14.3528 -10.2850 -10.2850 -10.2632 -10.2632
-10.2544 -10.2544 -10.2544 -10.2543 -10.2247 -10.2247 -10.2239 -10.2239
 -0.9627  -0.9604  -0.9470  -0.9469  -0.9221  -0.8836  -0.8338  -0.8036
 -0.7560  -0.6774  -0.6702  -0.6326  -0.5905  -0.5824  -0.5599  -0.4902
 -0.4801  -0.4705  -0.4609  -0.4487  -0.4375  -0.4109  -0.4103  -0.4073
 -0.4048  -0.4010  -0.3902  -0.3880  -0.3868  -0.3866  -0.3850  -0.3756
 -0.3709  -0.3389  -0.3082  -0.2659

          Ground-State Mulliken Net Atomic Charges

     Atom                 Charge (a.u.)
  ----------------------------------------
      1 N                    -0.632503
      2 C                    -2.446899
      3 C                     3.168304
      4 C                    -2.446347
      5 N                    -0.632839
      6 C                     2.329413
      7 C                     0.069070
      8 C                     0.068631
      9 C                     2.329517
     10 C                     0.069309
     11 C                     0.068302
     12 C                     3.168400
     13 C                    -2.446927
     14 N                    -0.632579
     15 C                    -2.446430
     16 N                    -0.632925
     17 H                     0.261576
     18 H                     0.261716
     19 H                     0.261522
     20 H                     0.261691
  ----------------------------------------
  Sum of atomic charges =     0.000000

                    Cartesian Multipole Moments
 -----------------------------------------------------------------
    Charge (ESU x 10^10)
                 0.0000
    Dipole Moment (Debye)
         X      -0.0001      Y       0.0012      Z       0.0009
       Tot       0.0015
    Quadrupole Moments (Debye-Ang)
        XX    -143.0066     XY      -9.0047     YY    -106.3354
        XZ      14.6090     YZ      14.1995     ZZ    -103.9696

 Total job time:  293.01s(wall), 1999.57s(cpu)
        *  Thank you very much for using Q-Chem.  Have a nice day.  *
