 Gaussian 16, Revision A.03,
 Gaussian 16:  ES64L-G16RevA.03 25-Dec-2016

 ----------------------------------------------
 #P UB3LYP/6-311++G(d,p) nosym opt freq SCF=YQC
 ----------------------------------------------

 -------
 Reduced
 -------
 Symbolic Z-matrix:
 Charge = -2 Multiplicity = 1

 SCF Done:  E(UB3LYP) =  -914.597782463     a.u. after    8 cycles
 SCF Done:  E(UB3LYP) =  -914.606232048     A.U. after   33 cycles
 SCF Done:  E(UB3LYP) =  -914.615451677     a.u. after   12 cycles
 SCF Done:  E(UB3LYP) =  -914.654377674     a.u. after   27 cycles
 SCF Done:  E(UB3LYP) =  -914.655114256     A.U. after   33 cycles
 SCF Done:  E(UB3LYP) =  -914.655114256     a.u. after    1 cycles
 SCF Done:  E(UB3LYP) =  -914.663378514     a.u. after   39 cycles
 SCF Done:  E(UB3LYP) =  -914.670144421     A.U. after   33 cycles
 SCF Done:  E(UB3LYP) =  -914.670144421     a.u. after    1 cycles
 SCF Done:  E(UB3LYP) =  -914.682711761     a.u. after   23 cycles
 SCF Done:  E(UB3LYP) =  -914.698038591     a.u. after    5 cycles
 SCF Done:  E(UB3LYP) =  -914.698085126     A.U. after   15 cycles
 SCF Done:  E(UB3LYP) =  -914.698071809     a.u. after    3 cycles
 SCF Done:  E(UB3LYP) =  -914.698089970     A.U. after   12 cycles
 SCF Done:  E(UB3LYP) =  -914.698078742     a.u. after    1 cycles
 SCF Done:  E(UB3LYP) =  -914.698092953     A.U. after   14 cycles
 SCF Done:  E(UB3LYP) =  -914.698092461     a.u. after    1 cycles
 SCF Done:  E(UB3LYP) =  -914.698093196     A.U. after   11 cycles
 Optimization completed.
    -- Stationary point found.
 Normal termination of Gaussian 16 at Fri Dec 22 09:26:26 2023.

 ----------------------------------------------------------------------
 #P Geom=AllCheck Guess=TCheck SCRF=Check GenChk UB3LYP/6-311++G(d,p) F
 req
 ----------------------------------------------------------------------

 Structure from the checkpoint file:  "200-an.chk"
 -------
 Reduced
 -------
 Charge = -2 Multiplicity = 1

                          Input orientation:
 ---------------------------------------------------------------------
 Center     Atomic      Atomic             Coordinates (Angstroms)
 Number     Number       Type             X           Y           Z
 ---------------------------------------------------------------------
      1          8           0        4.404408   -1.526145   -0.408367
      2          6           0        3.275063   -0.725351   -0.316919
      3          6           0        3.353208    0.673642   -0.369510
      4          6           0        2.200484    1.440194   -0.274345
      5          8           0        2.337555    2.829650   -0.333132
      6          6           0        0.914417    0.843298   -0.121620
      7          6           0       -0.314253    1.639545   -0.019284
      8          8           0       -0.338384    2.903491   -0.056717
      9          6           0       -1.553768    0.875778    0.133559
     10          6           0       -2.775381    1.567079    0.238376
     11          6           0       -3.991628    0.918937    0.385288
     12          6           0       -4.010344   -0.504739    0.432494
     13          6           0       -2.842566   -1.222611    0.334011
     14          6           0       -1.571501   -0.572729    0.181451
     15          6           0       -0.379982   -1.287008    0.080456
     16          8           0       -0.424127   -2.672446    0.129172
     17          6           0        0.859838   -0.614502   -0.069460
     18          6           0        2.068558   -1.400584   -0.169710
     19          8           0        2.108113   -2.731026   -0.130621
     20          1           0        3.982352   -2.412833   -0.335945
     21          1           0        4.325448    1.152690   -0.485334
     22          1           0        3.282075    2.982795   -0.441405
     23          1           0       -2.716527    2.650689    0.197776
     24          1           0       -4.917530    1.484383    0.463422
     25          1           0       -4.958090   -1.029816    0.547585
     26          1           0       -2.853034   -2.306621    0.369472
     27          1           0        0.535597   -2.955759    0.039304
 ---------------------------------------------------------------------

 SCF Done:  E(UB3LYP) =  -914.698093196     a.u. after    1 cycles
 SCF Done:  E(UB3LYP) =  -914.698093196     A.U. after    1 cycles

 Alpha  occ. eigenvalues --  -18.90408 -18.89444 -18.85378 -18.80932 -18.78973
 Alpha  occ. eigenvalues --   -9.97673  -9.95879  -9.95663  -9.94701  -9.94407
 Alpha  occ. eigenvalues --   -9.93708  -9.92656  -9.92653  -9.92453  -9.91892
 Alpha  occ. eigenvalues --   -9.91717  -9.91521  -9.91223  -9.90625  -0.80979
 Alpha  occ. eigenvalues --   -0.80321  -0.76522  -0.71492  -0.70249  -0.60421
 Alpha  occ. eigenvalues --   -0.57926  -0.53078  -0.50232  -0.48158  -0.46347
 Alpha  occ. eigenvalues --   -0.41502  -0.38793  -0.36977  -0.33711  -0.32072
 Alpha  occ. eigenvalues --   -0.31374  -0.27965  -0.25754  -0.24741  -0.23448
 Alpha  occ. eigenvalues --   -0.21688  -0.20645  -0.18978  -0.18620  -0.17481
 Alpha  occ. eigenvalues --   -0.17431  -0.15879  -0.14370  -0.14324  -0.14019
 Alpha  occ. eigenvalues --   -0.13049  -0.12622  -0.11443  -0.10898  -0.10746
 Alpha  occ. eigenvalues --   -0.09197  -0.09041  -0.07702  -0.06946  -0.03220
 Alpha  occ. eigenvalues --   -0.01221  -0.00304   0.00561   0.01951   0.04145
 Alpha  occ. eigenvalues --    0.06487   0.12148
 Alpha virt. eigenvalues --    0.15886   0.16649   0.17604   0.19280   0.20009
 Alpha virt. eigenvalues --    0.20587   0.20999   0.21312   0.22875   0.24261
 Alpha virt. eigenvalues --    0.25045   0.25885   0.25983   0.26515   0.26933

  Beta  occ. eigenvalues --  -18.90408 -18.89444 -18.85378 -18.80932 -18.78973
  Beta  occ. eigenvalues --   -9.97673  -9.95879  -9.95663  -9.94701  -9.94407
  Beta  occ. eigenvalues --   -9.93708  -9.92656  -9.92653  -9.92453  -9.91892
  Beta  occ. eigenvalues --   -9.91717  -9.91521  -9.91223  -9.90625  -0.80979
  Beta  occ. eigenvalues --   -0.80321  -0.76522  -0.71492  -0.70249  -0.60421
  Beta  occ. eigenvalues --   -0.57926  -0.53078  -0.50232  -0.48158  -0.46347
  Beta  occ. eigenvalues --   -0.41502  -0.38793  -0.36977  -0.33711  -0.32072
  Beta  occ. eigenvalues --   -0.31374  -0.27965  -0.25754  -0.24741  -0.23448
  Beta  occ. eigenvalues --   -0.21688  -0.20645  -0.18978  -0.18620  -0.17481
  Beta  occ. eigenvalues --   -0.17431  -0.15879  -0.14370  -0.14324  -0.14019
  Beta  occ. eigenvalues --   -0.13049  -0.12622  -0.11443  -0.10898  -0.10746
  Beta  occ. eigenvalues --   -0.09197  -0.09041  -0.07702  -0.06946  -0.03220
  Beta  occ. eigenvalues --   -0.01221  -0.00304   0.00561   0.01951   0.04145
  Beta  occ. eigenvalues --    0.06487   0.12148
  Beta virt. eigenvalues --    0.15886   0.16649   0.17604   0.19280   0.20009
  Beta virt. eigenvalues --    0.20587   0.20999   0.21312   0.22875   0.24261
  Beta virt. eigenvalues --    0.25045   0.25885   0.25983   0.26515   0.26933

 Mulliken charges and spin densities:
               1          2
     1  O   -0.346979   0.000000
     2  C   -0.472771   0.000000
     3  C    0.180770   0.000000
     4  C   -0.138432  -0.000000
     5  O   -0.204046   0.000000
     6  C    0.606940  -0.000000
     7  C   -0.452149   0.000000
     8  O   -0.448201  -0.000000
     9  C   -0.090174  -0.000000
    10  C    0.045459  -0.000000
    11  C   -0.570837   0.000000
    12  C   -0.427030   0.000000
    13  C   -0.163403  -0.000000
    14  C    0.335852   0.000000
    15  C    0.019674  -0.000000
    16  O   -0.474263   0.000000
    17  C    1.047329   0.000000
    18  C   -1.117334   0.000000
    19  O   -0.638026  -0.000000
    20  H    0.253423  -0.000000
    21  H    0.059893   0.000000
    22  H    0.210092  -0.000000
    23  H    0.122808  -0.000000
    24  H    0.072828   0.000000
    25  H    0.074348  -0.000000
    26  H    0.113934   0.000000
    27  H    0.400294  -0.000000
 Sum of Mulliken charges =  -2.00000   0.00000

 Dipole moment (field-independent basis, Debye):
    X=             -2.1050    Y=              0.5012    Z=              0.1929  Tot=              2.1724
 Quadrupole moment (field-independent basis, Debye-Ang):
   XX=           -179.5245   YY=           -170.4769   ZZ=           -122.3437
   XY=             17.1944   XZ=              5.4169   YZ=             -0.2574

  Exact polarizability: 404.478 -13.111 244.851 -29.367  -2.713 121.453
 Approx polarizability: 682.414 -25.245 458.260 -51.509  -6.295 184.908

 ******    1 imaginary frequencies (negative Signs) ******

                      1                      2                      3
                      A                      A                      A
 Frequencies --    -10.9693                57.1613                61.2524
 Red. masses --      1.3743                 4.2315                 4.9431
 Frc consts  --      0.0001                 0.0081                 0.0109
 IR Inten    --     50.8771                 2.6255                 3.8330

                      4                      5                      6
                      A                      A                      A
 Frequencies --    108.9105               136.1803               170.1154
 Red. masses --      8.8322                 5.1776                 8.2553
 Frc consts  --      0.0617                 0.0566                 0.1408
 IR Inten    --      1.3105                 0.2725                 1.7810

                      7                      8                      9
                      A                      A                      A
 Frequencies --    197.5396               205.1829               291.6750
 Red. masses --      6.2582                 6.6044                 5.7147
 Frc consts  --      0.1439                 0.1638                 0.2864
 IR Inten    --      6.5194                 2.0472                 3.8081

                     10                     11                     12
                      A                      A                      A
 Frequencies --    292.2372               305.9129               345.2072
 Red. masses --      5.7270                 7.1294                10.2102
 Frc consts  --      0.2882                 0.3931                 0.7169
 IR Inten    --      0.0205                 2.8512                13.9485

                     13                     14                     15
                      A                      A                      A
 Frequencies --    350.6292               352.1882               366.1801
 Red. masses --      7.2213                 9.0947                 7.6822
 Frc consts  --      0.5231                 0.6646                 0.6069
 IR Inten    --      5.5478                 8.3221                 0.0006

                     16                     17                     18
                      A                      A                      A
 Frequencies --    396.5017               413.9743               445.3104
 Red. masses --      7.0135                 8.7423                 3.5266
 Frc consts  --      0.6496                 0.8827                 0.4120
 IR Inten    --     18.7873                20.0197                 3.2324

                     19                     20                     21
                      A                      A                      A
 Frequencies --    472.8716               494.0474               504.4525
 Red. masses --     11.0181                 3.8789                 8.6724
 Frc consts  --      1.4516                 0.5578                 1.3003
 IR Inten    --      6.8801                25.2783                 1.4151

                     22                     23                     24
                      A                      A                      A
 Frequencies --    522.1283               574.1563               585.6567
 Red. masses --      8.7272                 7.2477                 4.5900
 Frc consts  --      1.4018                 1.4077                 0.9276
 IR Inten    --      8.0219                47.1147                 6.7776

                     25                     26                     27
                      A                      A                      A
 Frequencies --    619.5995               645.4779               680.8525
 Red. masses --      4.5672                 6.4024                 1.7757
 Frc consts  --      1.0331                 1.5716                 0.4850
 IR Inten    --      9.9658                 3.4074                 0.5936

                     28                     29                     30
                      A                      A                      A
 Frequencies --    687.5473               697.5315               705.5224
 Red. masses --      1.3410                 1.3771                 3.5562
 Frc consts  --      0.3735                 0.3948                 1.0429
 IR Inten    --      8.5344               116.7332                 6.3549

                     31                     32                     33
                      A                      A                      A
 Frequencies --    716.4308               735.6044               745.9958
 Red. masses --      7.0163                 3.0422                 5.6179
 Frc consts  --      2.1218                 0.9699                 1.8420
 IR Inten    --     27.2192                32.1244                 6.2785

                     34                     35                     36
                      A                      A                      A
 Frequencies --    779.5014               806.7734               829.6149
 Red. masses --      1.8556                 5.3128                 7.1588
 Frc consts  --      0.6643                 2.0374                 2.9030
 IR Inten    --      8.8801                 2.7461                49.0931

                     37                     38                     39
                      A                      A                      A
 Frequencies --    893.8674               895.7614               927.4841
 Red. masses --      9.0159                 1.0524                 6.4013
 Frc consts  --      4.2443                 0.4975                 3.2444
 IR Inten    --    122.4380                60.1486               145.9507

                     40                     41                     42
                      A                      A                      A
 Frequencies --    930.0366               955.1967              1011.8594
 Red. masses --      1.2421                 1.3220                 2.3972
 Frc consts  --      0.6330                 0.7106                 1.4461
 IR Inten    --      0.1744                 1.6082                62.8042

                     43                     44                     45
                      A                      A                      A
 Frequencies --   1045.9415              1089.3984              1104.6870
 Red. masses --      5.5076                 2.8426                 5.6470
 Frc consts  --      3.5500                 1.9876                 4.0602
 IR Inten    --    130.5122                 3.3381                73.1094

                     46                     47                     48
                      A                      A                      A
 Frequencies --   1134.2319              1160.7248              1177.8824
 Red. masses --      1.4968                 1.9060                 1.5490
 Frc consts  --      1.1346                 1.5130                 1.2662
 IR Inten    --     89.5390                 5.1043                12.7956

                     49                     50                     51
                      A                      A                      A
 Frequencies --   1202.1556              1219.3530              1248.6813
 Red. masses --      1.7300                 3.4137                 2.6131
 Frc consts  --      1.4730                 2.9904                 2.4006
 IR Inten    --    107.1154               120.7827               297.7181

                     52                     53                     54
                      A                      A                      A
 Frequencies --   1263.9226              1312.0105              1347.3494
 Red. masses --      2.4318                 3.5465                 6.5123
 Frc consts  --      2.2888                 3.5969                 6.9654
 IR Inten    --     43.8107                33.8262                25.7137

                     55                     56                     57
                      A                      A                      A
 Frequencies --   1358.0586              1383.0111              1408.3411
 Red. masses --      4.6570                 4.5010                 2.3967
 Frc consts  --      5.0605                 5.0723                 2.8007
 IR Inten    --    198.1149               144.6498               137.1858

                     58                     59                     60
                      A                      A                      A
 Frequencies --   1430.1549              1450.0272              1482.2053
 Red. masses --      2.7106                 2.9500                 3.2001
 Frc consts  --      3.2665                 3.6545                 4.1421
 IR Inten    --    685.0881               216.6257               102.0195

                     61                     62                     63
                      A                      A                      A
 Frequencies --   1498.2556              1521.9067              1539.2397
 Red. masses --      2.4541                 7.8817                 4.8586
 Frc consts  --      3.2458                10.7559                 6.7823
 IR Inten    --     95.0111               478.5333                35.1790

                     64                     65                     66
                      A                      A                      A
 Frequencies --   1586.3212              1600.0324              1619.6172
 Red. masses --      4.5140                 4.7892                 3.0969
 Frc consts  --      6.6926                 7.2239                 4.7863
 IR Inten    --     69.3710               623.8098                 1.7556

                     67                     68                     69
                      A                      A                      A
 Frequencies --   1656.7586              2989.2440              3089.6328
 Red. masses --      2.7084                 1.0739                 1.0835
 Frc consts  --      4.3801                 5.6537                 6.0937
 IR Inten    --     16.3183               553.8450                60.1939

                     70                     71                     72
                      A                      A                      A
 Frequencies --   3096.3841              3119.2268              3156.0809
 Red. masses --      1.0883                 1.0893                 1.0907
 Frc consts  --      6.1474                 6.2445                 6.4010
 IR Inten    --     80.5761                90.9815                41.0634

                     73                     74                     75
                      A                      A                      A
 Frequencies --   3167.8982              3449.9439              3800.3169
 Red. masses --      1.0909                 1.0635                 1.0650
 Frc consts  --      6.4502                 7.4579                 9.0623
 IR Inten    --     39.7057                64.5082                 0.3049

 - Thermochemistry -
 -------------------
 Temperature   298.150 Kelvin.  Pressure   1.00000 Atm.
 Atom     1 has atomic number  8 and mass  15.99491

 Molecular mass:   256.03717 amu.
 Principal axes and moments of inertia in atomic units:
                           1         2         3
     Eigenvalues --  2704.701005807.103978511.80455
           X            0.98538   0.13557   0.10321
           Y           -0.13949   0.98971   0.03174
           Z           -0.09784  -0.04568   0.99415
 This molecule is an asymmetric top.
 Rotational symmetry number  1.
 Warning -- assumption of classical behavior for rotation
           may cause significant error
 Rotational temperatures (Kelvin)      0.03202     0.01492     0.01018
 Rotational constants (GHZ):           0.66726     0.31078     0.21203
    1 imaginary frequencies ignored.
 Zero-point vibrational energy     488214.7 (Joules/Mol)
                                  116.68611 (Kcal/Mol)
 Warning -- explicit consideration of  24 degrees of freedom as
           vibrations may cause significant error
 Vibrational temperatures:     82.24    88.13   156.70   195.93   244.76
          (Kelvin)            284.22   295.21   419.66   420.46   440.14
                              496.68   504.48   506.72   526.85   570.48
                              595.62   640.70   680.36   710.82   725.79
                              751.23   826.08   842.63   891.47   928.70
                              979.59   989.23  1003.59  1015.09  1030.78
                             1058.37  1073.32  1121.53  1160.77  1193.63
                             1286.08  1288.80  1334.44  1338.12  1374.32
                             1455.84  1504.88  1567.40  1589.40  1631.91
                             1670.02  1694.71  1729.63  1754.38  1796.57
                             1818.50  1887.69  1938.54  1953.94  1989.84
                             2026.29  2057.67  2086.27  2132.56  2155.66
                             2189.68  2214.62  2282.36  2302.09  2330.27
                             2383.71  4300.86  4445.29  4455.01  4487.87
                             4540.90  4557.90  4963.70  5467.81

 Zero-point correction=                           0.185951 (Hartree/Particle)
 Thermal correction to Energy=                    0.200206
 Thermal correction to Enthalpy=                  0.201150
 Thermal correction to Gibbs Free Energy=         0.145216
 Sum of electronic and zero-point Energies=           -914.512142
 Sum of electronic and thermal Energies=              -914.497887
 Sum of electronic and thermal Enthalpies=            -914.496943
 Sum of electronic and thermal Free Energies=         -914.552878

                     E (Thermal)             CV                S
                      KCal/Mol        Cal/Mol-Kelvin    Cal/Mol-Kelvin
 Total                  125.631             57.968            117.725
 Electronic               0.000              0.000              0.000
 Translational            0.889              2.981             42.520
 Rotational               0.889              2.981             33.258
 Vibrational            123.854             52.007             41.946
 Vibration     1          0.596              1.975              4.553
 Vibration     2          0.597              1.973              4.416
 Vibration     3          0.606              1.942              3.288
 Vibration     4          0.614              1.917              2.857
 Vibration     5          0.625              1.879              2.434
 Vibration     6          0.637              1.843              2.156
 Vibration     7          0.640              1.833              2.086
 Vibration     8          0.687              1.689              1.464
 Vibration     9          0.688              1.688              1.461
 Vibration    10          0.696              1.662              1.384
 Vibration    11          0.724              1.585              1.188
 Vibration    12          0.728              1.574              1.163
 Vibration    13          0.729              1.571              1.156
 Vibration    14          0.739              1.542              1.096
 Vibration    15          0.763              1.478              0.976
 Vibration    16          0.778              1.440              0.913
 Vibration    17          0.805              1.371              0.810
 Vibration    18          0.830              1.310              0.730
 Vibration    19          0.850              1.263              0.673
 Vibration    20          0.860              1.240              0.647
 Vibration    21          0.877              1.201              0.605
 Vibration    22          0.930              1.087              0.496
 Vibration    23          0.943              1.062              0.475
 Vibration    24          0.980              0.991              0.417

                           ! Non-Optimized Parameters !
 Normal termination of Gaussian 16 at Fri Dec 22 10:37:54 2023.
