 Q-Chem 5.4, Q-Chem, Inc., Pleasanton, CA (2021)
 Q-Chem 5.4.0 for Intel X86 EM64T Linux

User input:
--------------------------------------------------------------
$molecule
-2 1
C                  0.2258410000     -0.6184930000     -0.0875550000
C                 -0.3771150000     -1.7925610000     -0.5491400000
C                 -1.7931220000     -1.9480680000     -0.6172110000
O                 -2.3653350000     -3.0152840000     -1.0326690000
C                 -2.5686660000     -0.7820080000     -0.1728470000
C                 -3.9764390000     -0.8263910000     -0.2011980000
C                 -4.7573170000      0.2447930000      0.2032100000
C                 -4.1290340000      1.4307160000      0.6619300000
C                 -2.7504680000      1.5076170000      0.7037340000
C                 -1.9293700000      0.4246770000      0.2964340000
C                 -0.4971370000      0.5398550000      0.3566780000
O                  0.1369630000      1.5968110000      0.7689640000
H                  0.2423770000     -2.6215430000     -0.8664230000
H                 -4.4227980000     -1.7496200000     -0.5586130000
H                 -5.8430730000      0.1786520000      0.1694350000
H                 -4.7327760000      2.2788110000      0.9808810000
H                 -2.2455870000      2.4035180000      1.0514350000
N                  1.6158670000     -0.3754860000     -0.0111880000
C                  2.7032020000     -1.1513970000     -0.2426920000
N                  3.9161220000     -0.5046160000      0.1009030000
C                  5.1451640000     -0.9613210000     -0.5272880000
O                  2.7118290000     -2.3066390000     -0.6670730000
H                  1.7231320000      0.5723740000      0.3682400000
H                  3.8401840000      0.5004670000      0.1749510000
H                  5.2016610000     -2.0465190000     -0.4476830000
H                  6.0057080000     -0.5263080000     -0.0112380000
H                  5.2195320000     -0.6951830000     -1.5964630000
$end

$rem
BASIS  =  6-311++G(d,p)
GUI  =  2
JOB_TYPE  =  SP
METHOD  =  B3LYP
SCF_CONVERGENCE  = 8
SOLVENT_METHOD = sm12
$end

$smx
solvent dimethylformamide
charges CM5
$end

--------------------------------------------------------------

             Standard Nuclear Orientation (Angstroms)
    I     Atom           X                Y                Z
 ----------------------------------------------------------------
    1      C       0.2258410000    -0.6184930000    -0.0875550000
    2      C      -0.3771150000    -1.7925610000    -0.5491400000
    3      C      -1.7931220000    -1.9480680000    -0.6172110000
    4      O      -2.3653350000    -3.0152840000    -1.0326690000
    5      C      -2.5686660000    -0.7820080000    -0.1728470000
    6      C      -3.9764390000    -0.8263910000    -0.2011980000
    7      C      -4.7573170000     0.2447930000     0.2032100000
    8      C      -4.1290340000     1.4307160000     0.6619300000
    9      C      -2.7504680000     1.5076170000     0.7037340000
   10      C      -1.9293700000     0.4246770000     0.2964340000
   11      C      -0.4971370000     0.5398550000     0.3566780000
   12      O       0.1369630000     1.5968110000     0.7689640000
   13      H       0.2423770000    -2.6215430000    -0.8664230000
   14      H      -4.4227980000    -1.7496200000    -0.5586130000
   15      H      -5.8430730000     0.1786520000     0.1694350000
   16      H      -4.7327760000     2.2788110000     0.9808810000
   17      H      -2.2455870000     2.4035180000     1.0514350000
   18      N       1.6158670000    -0.3754860000    -0.0111880000
   19      C       2.7032020000    -1.1513970000    -0.2426920000
   20      N       3.9161220000    -0.5046160000     0.1009030000
   21      C       5.1451640000    -0.9613210000    -0.5272880000
   22      O       2.7118290000    -2.3066390000    -0.6670730000
   23      H       1.7231320000     0.5723740000     0.3682400000
   24      H       3.8401840000     0.5004670000     0.1749510000
   25      H       5.2016610000    -2.0465190000    -0.4476830000
   26      H       6.0057080000    -0.5263080000    -0.0112380000
   27      H       5.2195320000    -0.6951830000    -1.5964630000
 ----------------------------------------------------------------

   17    -798.6967007307      8.84e-09  Convergence criterion met
 Total energy in the final basis set =     -798.9935691368

                    Orbital Energies (a.u.)
 --------------------------------------------------------------

 Alpha MOs
 -- Occupied --
-19.0819 -19.0316 -19.0248 -14.3304 -14.3261 -10.2918 -10.1956 -10.1875
-10.1839 -10.1804 -10.1752 -10.1715 -10.1695 -10.1691 -10.1552 -10.1523
-10.1337  -1.0431  -0.9576  -0.9433  -0.9242  -0.8954  -0.8447  -0.7794
 -0.7432  -0.7288  -0.6929  -0.6560  -0.6206  -0.6080  -0.5680  -0.5537
 -0.5458  -0.5105  -0.4844  -0.4682  -0.4522  -0.4488  -0.4365  -0.4247
 -0.4238  -0.4112  -0.4060  -0.3940  -0.3859  -0.3824  -0.3672  -0.3642
 -0.3436  -0.3427  -0.3292  -0.3213  -0.2895  -0.2714  -0.2552  -0.2491
 -0.2365  -0.2146  -0.2090  -0.2005  -0.1196

          Ground-State Mulliken Net Atomic Charges

     Atom                 Charge (a.u.)
  ----------------------------------------
      1 C                     0.761340
      2 C                    -0.646301
      3 C                    -1.883227
      4 O                    -0.403760
      5 C                    -2.158668
      6 C                    -0.243948
      7 C                     1.431283
      8 C                     1.624031
      9 C                     0.105278
     10 C                    -1.005394
     11 C                    -2.031312
     12 O                    -0.282023
     13 H                     0.047026
     14 H                     0.090249
     15 H                     0.386430
     16 H                     0.416929
     17 H                     0.126505
     18 N                    -0.416737
     19 C                     0.355334
     20 N                     0.284471
     21 C                     0.411115
     22 O                    -0.452378
     23 H                     0.488906
     24 H                     0.321536
     25 H                     0.180982
     26 H                     0.301129
     27 H                     0.191203
  ----------------------------------------
  Sum of atomic charges =    -2.000000

                    Cartesian Multipole Moments
 -----------------------------------------------------------------
    Charge (ESU x 10^10)
                -9.6064
    Dipole Moment (Debye)
         X      13.4322      Y       9.7786      Z       1.5606
       Tot      16.6877
    Quadrupole Moments (Debye-Ang)
        XX    -155.3376     XY      -6.9778     YY    -161.9793
        XZ      -4.9418     YZ     -17.2743     ZZ    -119.4421

 Total job time:  688.25s(wall), 4752.92s(cpu)
        *  Thank you very much for using Q-Chem.  Have a nice day.  *
