 Gaussian 16, Revision A.03,
 Gaussian 16:  ES64L-G16RevA.03 25-Dec-2016

 ----------------------------------------------------------------
 #P UB3LYP/6-311++G(d,p) SCRF=(PCM,Solvent=n,n-DiMethylFormamide)
 ----------------------------------------------------------------

 ------------------
 Radical PCM in DMF
 ------------------
 Symbolic Z-matrix:
 Charge = -1 Multiplicity = 2

                         Standard orientation:
 ---------------------------------------------------------------------
 Center     Atomic      Atomic             Coordinates (Angstroms)
 Number     Number       Type             X           Y           Z
 ---------------------------------------------------------------------
      1          6           0        0.136336   -1.479257   -0.000024
      2          6           0       -1.104565   -0.680880   -0.000001
      3          6           0       -1.104560    0.680881    0.000006
      4          6           0        0.136344    1.479249    0.000039
      5          6           0        1.366251    0.699583    0.000011
      6          6           0        1.366246   -0.699603   -0.000004
      7          8           0        0.124008   -2.718027    0.000035
      8          8           0        0.124024    2.718020   -0.000045
      9          6           0        2.584891   -1.433952   -0.000016
     10          6           0        2.584889    1.433945    0.000016
     11          7           0        3.580063   -2.025470   -0.000028
     12          7           0        3.580048    2.025483    0.000023
     13         17           0       -2.585298   -1.602546   -0.000003
     14         17           0       -2.585292    1.602556    0.000001
 ---------------------------------------------------------------------

 SCF Done:  E(UB3LYP) =  -1485.51394882     A.U. after   19 cycles

 The electronic state is 2-A.
 Alpha  occ. eigenvalues -- -101.57266-101.57266 -19.12039 -19.12038 -14.33111
 Alpha  occ. eigenvalues --  -14.33110 -10.27781 -10.27779 -10.26643 -10.26576
 Alpha  occ. eigenvalues --  -10.24073 -10.24022 -10.23131 -10.23129  -9.48709
 Alpha  occ. eigenvalues --   -9.48708  -7.25185  -7.25185  -7.24222  -7.24222
 Alpha  occ. eigenvalues --   -7.24111  -7.24110  -1.05576  -1.05284  -0.93556
 Alpha  occ. eigenvalues --   -0.92756  -0.92074  -0.86838  -0.86525  -0.77611
 Alpha  occ. eigenvalues --   -0.75081  -0.66568  -0.63978  -0.55605  -0.54883
 Alpha  occ. eigenvalues --   -0.53518  -0.48131  -0.47158  -0.45435  -0.44196
 Alpha  occ. eigenvalues --   -0.43902  -0.42714  -0.40923  -0.39360  -0.39229
 Alpha  occ. eigenvalues --   -0.37504  -0.37368  -0.36288  -0.35636  -0.35086
 Alpha  occ. eigenvalues --   -0.34389  -0.32268  -0.30919  -0.28872  -0.28308
 Alpha  occ. eigenvalues --   -0.27446  -0.20545
 Alpha virt. eigenvalues --   -0.08604  -0.02440  -0.02420  -0.00254   0.00679
 Alpha virt. eigenvalues --    0.01259   0.02302   0.02492   0.03219   0.04476
 Alpha virt. eigenvalues --    0.04713   0.05023   0.05549   0.05697   0.06168

  Beta  occ. eigenvalues -- -101.57265-101.57265 -19.11403 -19.11402 -14.32978
  Beta  occ. eigenvalues --  -14.32977 -10.27737 -10.27736 -10.26599 -10.26531
  Beta  occ. eigenvalues --  -10.23828 -10.23775 -10.23183 -10.23181  -9.48708
  Beta  occ. eigenvalues --   -9.48706  -7.25187  -7.25187  -7.24213  -7.24213
  Beta  occ. eigenvalues --   -7.24110  -7.24110  -1.04536  -1.04204  -0.93303
  Beta  occ. eigenvalues --   -0.92547  -0.91908  -0.86772  -0.85938  -0.77417
  Beta  occ. eigenvalues --   -0.74133  -0.66172  -0.63688  -0.55288  -0.54672
  Beta  occ. eigenvalues --   -0.53244  -0.47983  -0.45830  -0.44791  -0.43736
  Beta  occ. eigenvalues --   -0.43723  -0.40612  -0.40418  -0.39156  -0.39017
  Beta  occ. eigenvalues --   -0.36858  -0.36180  -0.35931  -0.35557  -0.34581
  Beta  occ. eigenvalues --   -0.34352  -0.32233  -0.28322  -0.28266  -0.27703
  Beta  occ. eigenvalues --   -0.26823
  Beta virt. eigenvalues --   -0.13846  -0.07066  -0.02354  -0.00757  -0.00185
  Beta virt. eigenvalues --    0.00720   0.01340   0.02318   0.02518   0.03273
  Beta virt. eigenvalues --    0.04584   0.05068   0.05518   0.05603   0.05739

 Mulliken charges and spin densities:
               1          2
     1  C   -1.563455   0.002643
     2  C    0.701261   0.019319
     3  C    0.701331   0.019317
     4  C   -1.563482   0.002641
     5  C    1.940195   0.199239
     6  C    1.940142   0.199236
     7  O   -0.336683   0.237632
     8  O   -0.336683   0.237632
     9  C   -1.392585  -0.022585
    10  C   -1.392560  -0.022585
    11  N   -0.276673   0.064848
    12  N   -0.276675   0.064850
    13  Cl   0.427935  -0.001094
    14  Cl   0.427932  -0.001094
 Sum of Mulliken charges =  -1.00000   1.00000

 Dipole moment (field-independent basis, Debye):
    X=             -8.2422    Y=             -0.0000    Z=              0.0000  Tot=              8.2422
 Quadrupole moment (field-independent basis, Debye-Ang):
   XX=           -137.8124   YY=           -138.8896   ZZ=            -92.1729
   XY=             -0.0001   XZ=              0.0000   YZ=              0.0004

 Normal termination of Gaussian 16 at Sun Jan 21 07:08:13 2024.
