 Gaussian 16, Revision A.03,
 Gaussian 16:  ES64L-G16RevA.03 25-Dec-2016

 ----------------------------------------------------------------
 #P UB3LYP/6-311++G(d,p) SCRF=(PCM,Solvent=n,n-DiMethylFormamide)
 ----------------------------------------------------------------

 -------
 Reduced
 -------
 Symbolic Z-matrix:
 Charge = -2 Multiplicity = 1

                         Standard orientation:
 ---------------------------------------------------------------------
 Center     Atomic      Atomic             Coordinates (Angstroms)
 Number     Number       Type             X           Y           Z
 ---------------------------------------------------------------------
      1          8           0        2.508476   -2.786135    0.000110
      2          6           0        2.488762   -1.417729    0.000020
      3          6           0        3.669763   -0.712509   -0.000083
      4          6           0        3.669765    0.712490   -0.000084
      5          6           0        2.488765    1.417708   -0.000017
      6          8           0        2.508469    2.786114    0.000085
      7          6           0        1.225295    0.722434   -0.000010
      8          6           0       -0.000001    1.447985   -0.000067
      9          8           0        0.000043    2.787390   -0.000091
     10          6           0       -1.225301    0.722461    0.000008
     11          6           0       -2.488762    1.417708    0.000018
     12          8           0       -2.508460    2.786130    0.000024
     13          6           0       -3.669766    0.712508    0.000047
     14          6           0       -3.669764   -0.712500    0.000013
     15          6           0       -2.488764   -1.417719   -0.000011
     16          8           0       -2.508437   -2.786115   -0.000112
     17          6           0       -1.225292   -0.722421    0.000030
     18          6           0       -0.000013   -1.447939    0.000058
     19          8           0       -0.000087   -2.787386   -0.000012
     20          6           0        1.225301   -0.722451    0.000034
     21          1           0        1.529493   -3.046936    0.000203
     22          1           0        4.605747   -1.264095   -0.000090
     23          1           0        4.605746    1.264081   -0.000095
     24          1           0        1.529469    3.046889    0.000149
     25          1           0       -1.529508    3.046838    0.000132
     26          1           0       -4.605745    1.264101    0.000045
     27          1           0       -4.605746   -1.264086   -0.000016
     28          1           0       -1.529420   -3.046932   -0.000086
 ---------------------------------------------------------------------

 SCF Done:  E(UB3LYP) =  -990.251253941     A.U. after   13 cycles

 The electronic state is 1-A.
 Alpha  occ. eigenvalues --  -19.10778 -19.10777 -19.10776 -19.10776 -19.06292
 Alpha  occ. eigenvalues --  -19.06291 -10.20715 -10.20715 -10.20714 -10.20714
 Alpha  occ. eigenvalues --  -10.20067 -10.20066 -10.15791 -10.15788 -10.15751
 Alpha  occ. eigenvalues --  -10.15751 -10.14587 -10.14587 -10.14544 -10.14543
 Alpha  occ. eigenvalues --   -1.02938  -1.02773  -1.02137  -1.02017  -0.96090
 Alpha  occ. eigenvalues --   -0.95903  -0.83715  -0.81580  -0.76719  -0.72293
 Alpha  occ. eigenvalues --   -0.72243  -0.70540  -0.65898  -0.62627  -0.61285
 Alpha  occ. eigenvalues --   -0.57644  -0.56181  -0.52754  -0.50476  -0.50286
 Alpha  occ. eigenvalues --   -0.49300  -0.49012  -0.48495  -0.44851  -0.42954
 Alpha  occ. eigenvalues --   -0.41826  -0.41165  -0.40224  -0.39876  -0.39210
 Alpha  occ. eigenvalues --   -0.39044  -0.38694  -0.38472  -0.38084  -0.37979
 Alpha  occ. eigenvalues --   -0.36559  -0.34416  -0.34308  -0.34270  -0.33432
 Alpha  occ. eigenvalues --   -0.32735  -0.31983  -0.28739  -0.28077  -0.24570
 Alpha  occ. eigenvalues --   -0.24535  -0.23108  -0.22792  -0.20488  -0.18560
 Alpha  occ. eigenvalues --   -0.12472
 Alpha virt. eigenvalues --   -0.01744  -0.00879   0.00376   0.01050   0.01394
 Alpha virt. eigenvalues --    0.02183   0.02839   0.03909   0.04643   0.04716
 Alpha virt. eigenvalues --    0.04743   0.04940   0.06362   0.07034   0.07345

  Beta  occ. eigenvalues --  -19.10778 -19.10777 -19.10776 -19.10776 -19.06292
  Beta  occ. eigenvalues --  -19.06291 -10.20715 -10.20715 -10.20714 -10.20714
  Beta  occ. eigenvalues --  -10.20067 -10.20066 -10.15791 -10.15788 -10.15751
  Beta  occ. eigenvalues --  -10.15751 -10.14587 -10.14587 -10.14544 -10.14543
  Beta  occ. eigenvalues --   -1.02938  -1.02773  -1.02137  -1.02017  -0.96090
  Beta  occ. eigenvalues --   -0.95903  -0.83715  -0.81580  -0.76719  -0.72293
  Beta  occ. eigenvalues --   -0.72243  -0.70540  -0.65898  -0.62627  -0.61285
  Beta  occ. eigenvalues --   -0.57644  -0.56181  -0.52754  -0.50476  -0.50286
  Beta  occ. eigenvalues --   -0.49300  -0.49012  -0.48495  -0.44851  -0.42954
  Beta  occ. eigenvalues --   -0.41826  -0.41165  -0.40224  -0.39876  -0.39210
  Beta  occ. eigenvalues --   -0.39044  -0.38694  -0.38472  -0.38084  -0.37979
  Beta  occ. eigenvalues --   -0.36559  -0.34416  -0.34308  -0.34270  -0.33432
  Beta  occ. eigenvalues --   -0.32735  -0.31983  -0.28739  -0.28077  -0.24570
  Beta  occ. eigenvalues --   -0.24535  -0.23108  -0.22792  -0.20488  -0.18560
  Beta  occ. eigenvalues --   -0.12472
  Beta virt. eigenvalues --   -0.01744  -0.00879   0.00376   0.01050   0.01394
  Beta virt. eigenvalues --    0.02183   0.02839   0.03909   0.04643   0.04716
  Beta virt. eigenvalues --    0.04743   0.04940   0.06362   0.07034   0.07345

 Mulliken charges and spin densities:
               1          2
     1  O   -0.475427   0.000000
     2  C   -0.332220   0.000000
     3  C   -0.206108   0.000000
     4  C   -0.206134  -0.000000
     5  C   -0.332188  -0.000000
     6  O   -0.475475  -0.000000
     7  C    0.431860   0.000000
     8  C   -0.273445   0.000000
     9  O   -0.726248  -0.000000
    10  C    0.431885  -0.000000
    11  C   -0.332178  -0.000000
    12  O   -0.475447   0.000000
    13  C   -0.206151   0.000000
    14  C   -0.206104   0.000000
    15  C   -0.332146   0.000000
    16  O   -0.475502   0.000000
    17  C    0.431779  -0.000000
    18  C   -0.273461  -0.000000
    19  O   -0.726262   0.000000
    20  C    0.431893   0.000000
    21  H    0.413080  -0.000000
    22  H    0.168650   0.000000
    23  H    0.168646  -0.000000
    24  H    0.413141   0.000000
    25  H    0.413117  -0.000000
    26  H    0.168649   0.000000
    27  H    0.168645  -0.000000
    28  H    0.413152   0.000000
 Sum of Mulliken charges =  -2.00000   0.00000

 Dipole moment (field-independent basis, Debye):
    X=              0.0004    Y=              0.0000    Z=              0.0007  Tot=              0.0008
 Quadrupole moment (field-independent basis, Debye-Ang):
   XX=           -173.5570   YY=           -187.5594   ZZ=           -125.9185
   XY=             -0.0022   XZ=             -0.0003   YZ=              0.0009

 Normal termination of Gaussian 16 at Tue Jan 16 06:27:55 2024.
