 Q-Chem 5.4, Q-Chem, Inc., Pleasanton, CA (2021)
 Q-Chem 5.4.0 for Intel X86 EM64T Linux

User input:
--------------------------------------------------------------
$molecule
0 1
C                  6.8985320000     -1.5894660000     -0.2041040000
C                  7.4737940000     -0.6504490000     -1.0573780000
C                  6.6436430000      0.3124630000     -1.6786450000
C                  5.2750690000      0.2936280000     -1.4189950000
C                  4.7024950000     -0.6496030000     -0.5626510000
C                  5.5258500000     -1.6046640000      0.0534770000
C                  4.9669450000     -2.6335040000      0.9757900000
C                  3.4962190000     -2.6045170000      1.2159390000
C                  2.6728350000     -1.6494500000      0.5997720000
C                  3.2317300000     -0.6207670000     -0.3227370000
C                  2.9236750000     -3.5475790000      2.0724280000
C                  1.5551000000     -3.5662440000      2.3322930000
C                  0.7249620000     -2.6033890000      1.7110190000
C                  1.3002170000     -1.6645310000      0.8574950000
O                  5.6838580000     -3.4651930000      1.5121700000
O                  2.5147720000      0.2106880000     -0.8594220000
C                  0.9757560000     -4.6009800000      3.2632320000
C                 -0.7613440000     -2.5862700000      1.9630680000
C                  8.9601610000     -0.6674310000     -1.3092300000
C                  7.2230350000      1.3474280000     -2.6093080000
H                  7.5143240000     -2.3366990000      0.2830080000
H                  4.6193730000      1.0211730000     -1.8832930000
H                  3.5792810000     -4.2751920000      2.5367460000
H                  0.6843450000     -0.9173830000      0.3703530000
H                  1.7543220000     -5.2594460000      3.6503020000
H                  0.2292720000     -5.2215360000      2.7567190000
H                  0.4726200000     -4.1344970000      4.1165400000
H                 -1.2284210000     -3.5308240000      1.6654510000
H                 -1.2438290000     -1.7820240000      1.4063330000
H                 -0.9854360000     -2.4437520000      3.0253100000
H                  9.4425810000     -1.4718000000     -0.7526080000
H                  9.4271340000      0.2770690000     -1.0113280000
H                  9.1844240000     -0.8097600000     -2.3714580000
H                  7.7262540000      0.8812150000     -3.4626960000
H                  7.9694660000      1.9678670000     -2.1025360000
H                  6.4444860000      2.0060050000     -2.9962260000
$end
$rem
MAX_SCF_CYCLES=200
BASIS  =  6-311++G(d,p)
GUI  =  2
JOB_TYPE  =  SP
METHOD  =  B3LYP
SOLVENT_METHOD = COSMO
$end
$solvent
dielectric 37.219
opticaldielectric 1.43
$end

--------------------------------------------------------------

             Standard Nuclear Orientation (Angstroms)
    I     Atom           X                Y                Z
 ----------------------------------------------------------------
    1      C       2.4908051471    -1.3836200682    -0.0001533999
    2      C       3.7088478149    -0.7075077761     0.0000514098
    3      C       3.7088684300     0.7075268126     0.0000600644
    4      C       2.4908120523     1.3836231921    -0.0000793525
    5      C       1.2718548116     0.7017185122    -0.0001433083
    6      C       1.2718460759    -0.7017303388    -0.0002126001
    7      C      -0.0000020437    -1.4788726480    -0.0002937359
    8      C      -1.2718571107    -0.7017424157    -0.0000790180
    9      C      -1.2718513347     0.7017446545    -0.0000401979
   10      C       0.0000166520     1.4788720485    -0.0002091578
   11      C      -2.4907902384    -1.3836133569     0.0000778571
   12      C      -3.7088788322    -0.7074951044     0.0002097513
   13      C      -3.7088670521     0.7074961437     0.0001795403
   14      C      -2.4907782342     1.3836141080     0.0000916591
   15      O      -0.0000038237    -2.7009095987    -0.0004881346
   16      O       0.0000299114     2.7009100769    -0.0004016351
   17      C      -5.0032949082    -1.4804456139     0.0003275460
   18      C      -5.0032566636     1.4804662676     0.0001050738
   19      C       5.0032499339    -1.4805069539     0.0003714338
   20      C       5.0032867065     1.4804838144     0.0003040348
   21      H       2.4658302456    -2.4672303734    -0.0002236766
   22      H       2.4657827251     2.4672306563    -0.0000566990
   23      H      -2.4658685933    -2.4672230735     0.0000161715
   24      H      -2.4658868707     2.4672266781     0.0000750952
   25      H      -4.8177814042    -2.5552248527     0.0002813037
   26      H      -5.6114122446    -1.2423923696    -0.8785396161
   27      H      -5.6113020010    -1.2424770437     0.8792957486
   28      H      -5.6112502393     1.2424097681    -0.8788670398
   29      H      -4.8176880189     2.5552320720     0.0000172444
   30      H      -5.6114340305     1.2425438299     0.8789679046
   31      H       4.8176327093    -2.5552687109     0.0002867911
   32      H       5.6110090675    -1.2425513136     0.8795162358
   33      H       5.6116316425    -1.2425623745    -0.8783400292
   34      H       5.6115027192     1.2426854024    -0.8785476017
   35      H       5.6111974100     1.2422683355     0.8792918689
   36      H       4.8177609442     2.5552618777     0.0005388569
 ----------------------------------------------------------------

    9    -846.2672412501      1.80e-06  Convergence criterion met
 Total energy in the final basis set =     -846.2672412501
    5    -846.2827352381      2.66e-06  Convergence criterion met
 Total energy in the final basis set =     -846.2827352381

                    Orbital Energies (a.u.)
 --------------------------------------------------------------

 Alpha MOs
 -- Occupied --
-19.1275 -19.1275 -10.2794 -10.2794 -10.2019 -10.2019 -10.2014 -10.2014
-10.2009 -10.2009 -10.2004 -10.2003 -10.1888 -10.1888 -10.1887 -10.1887
-10.1694 -10.1694 -10.1694 -10.1694  -1.0630  -1.0613  -0.8921  -0.8823
 -0.8262  -0.7949  -0.7845  -0.7835  -0.7272  -0.7200  -0.7164  -0.6830
 -0.6585  -0.6297  -0.6106  -0.6065  -0.5815  -0.5383  -0.5284  -0.5089
 -0.4805  -0.4758  -0.4634  -0.4563  -0.4558  -0.4454  -0.4435  -0.4425
 -0.4349  -0.4343  -0.4264  -0.4172  -0.4044  -0.4038  -0.3938  -0.3924
 -0.3917  -0.3917  -0.3701  -0.3692  -0.3595  -0.3580  -0.3527  -0.3505
 -0.2859  -0.2725  -0.2720  -0.2703  -0.2683  -0.2552

          Ground-State Mulliken Net Atomic Charges

     Atom                 Charge (a.u.)
  ----------------------------------------
      1 C                    -0.129972
      2 C                     0.366662
      3 C                     0.365569
      4 C                    -0.130502
      5 C                     0.107230
      6 C                     0.107726
      7 C                    -0.781429
      8 C                     0.106658
      9 C                     0.106476
     10 C                    -0.781321
     11 C                    -0.129544
     12 C                     0.366810
     13 C                     0.365159
     14 C                    -0.129824
     15 O                    -0.296207
     16 O                    -0.296155
     17 C                    -0.506513
     18 C                    -0.504727
     19 C                    -0.505195
     20 C                    -0.505857
     21 H                     0.159093
     22 H                     0.159116
     23 H                     0.159176
     24 H                     0.159171
     25 H                     0.186471
     26 H                     0.177860
     27 H                     0.177842
     28 H                     0.177782
     29 H                     0.186353
     30 H                     0.177783
     31 H                     0.186525
     32 H                     0.177851
     33 H                     0.177873
     34 H                     0.177792
     35 H                     0.177738
     36 H                     0.186520
  ----------------------------------------
  Sum of atomic charges =    -0.000009

                    Cartesian Multipole Moments
 -----------------------------------------------------------------
    Charge (ESU x 10^10)
                -0.0000
    Dipole Moment (Debye)
         X      -0.0003      Y      -0.0001      Z       0.0021
       Tot       0.0021
    Quadrupole Moments (Debye-Ang)
        XX     -66.3717     XY       0.0005     YY    -132.5613
        XZ       0.0020     YZ       0.0001     ZZ    -119.3944

 Total job time:  106.57s(wall), 813.49s(cpu)
        *  Thank you very much for using Q-Chem.  Have a nice day.  *
