 Gaussian 16, Revision A.03,
 Gaussian 16:  ES64L-G16RevA.03 25-Dec-2016

 --------------------------------------
 #P UB3LYP/6-311++G(d,p) nosym opt freq
 --------------------------------------

 --------
 Oxidized
 --------
 Symbolic Z-matrix:
 Charge =  0 Multiplicity = 1

 SCF Done:  E(UB3LYP) =  -846.263476369     A.U. after   15 cycles
 SCF Done:  E(UB3LYP) =  -846.263477051     A.U. after    9 cycles
 SCF Done:  E(UB3LYP) =  -846.263477933     A.U. after    9 cycles
 SCF Done:  E(UB3LYP) =  -846.263478802     A.U. after    9 cycles
 SCF Done:  E(UB3LYP) =  -846.263481442     A.U. after   11 cycles
 SCF Done:  E(UB3LYP) =  -846.263497514     A.U. after   12 cycles
 SCF Done:  E(UB3LYP) =  -846.263501210     A.U. after   12 cycles
 SCF Done:  E(UB3LYP) =  -846.263544789     A.U. after   11 cycles
 SCF Done:  E(UB3LYP) =  -846.263637240     A.U. after   11 cycles
 SCF Done:  E(UB3LYP) =  -846.263810246     A.U. after   13 cycles
 SCF Done:  E(UB3LYP) =  -846.266622336     A.U. after   13 cycles
 SCF Done:  E(UB3LYP) =  -846.267181502     A.U. after   13 cycles
 SCF Done:  E(UB3LYP) =  -846.267195137     A.U. after   12 cycles
 SCF Done:  E(UB3LYP) =  -846.267236899     A.U. after   11 cycles
 SCF Done:  E(UB3LYP) =  -846.267241488     A.U. after   10 cycles
 SCF Done:  E(UB3LYP) =  -846.267243814     A.U. after   10 cycles
 SCF Done:  E(UB3LYP) =  -846.267245213     A.U. after    9 cycles
 SCF Done:  E(UB3LYP) =  -846.267245686     A.U. after    8 cycles
 SCF Done:  E(UB3LYP) =  -846.267245827     A.U. after    8 cycles
 Optimization completed.
    -- Stationary point found.
 Normal termination of Gaussian 16 at Sat Jan 13 01:20:27 2024.

 ----------------------------------------------------------------------
 #P Geom=AllCheck Guess=TCheck SCRF=Check GenChk UB3LYP/6-311++G(d,p) F
 req
 ----------------------------------------------------------------------

 Structure from the checkpoint file:  "132.chk"
 --------
 Oxidized
 --------
 Charge =  0 Multiplicity = 1

                          Input orientation:
 ---------------------------------------------------------------------
 Center     Atomic      Atomic             Coordinates (Angstroms)
 Number     Number       Type             X           Y           Z
 ---------------------------------------------------------------------
      1          6           0        6.898532   -1.589466   -0.204104
      2          6           0        7.473794   -0.650449   -1.057378
      3          6           0        6.643643    0.312463   -1.678645
      4          6           0        5.275069    0.293628   -1.418995
      5          6           0        4.702495   -0.649603   -0.562651
      6          6           0        5.525850   -1.604664    0.053477
      7          6           0        4.966945   -2.633504    0.975790
      8          6           0        3.496219   -2.604517    1.215939
      9          6           0        2.672835   -1.649450    0.599772
     10          6           0        3.231730   -0.620767   -0.322737
     11          6           0        2.923675   -3.547579    2.072428
     12          6           0        1.555100   -3.566244    2.332293
     13          6           0        0.724962   -2.603389    1.711019
     14          6           0        1.300217   -1.664531    0.857495
     15          8           0        5.683858   -3.465193    1.512170
     16          8           0        2.514772    0.210688   -0.859422
     17          6           0        0.975756   -4.600980    3.263232
     18          6           0       -0.761344   -2.586270    1.963068
     19          6           0        8.960161   -0.667431   -1.309230
     20          6           0        7.223035    1.347428   -2.609308
     21          1           0        7.514324   -2.336699    0.283008
     22          1           0        4.619373    1.021173   -1.883293
     23          1           0        3.579281   -4.275192    2.536746
     24          1           0        0.684345   -0.917383    0.370353
     25          1           0        1.754322   -5.259446    3.650302
     26          1           0        0.229272   -5.221536    2.756719
     27          1           0        0.472620   -4.134497    4.116540
     28          1           0       -1.228421   -3.530824    1.665451
     29          1           0       -1.243829   -1.782024    1.406333
     30          1           0       -0.985436   -2.443752    3.025310
     31          1           0        9.442581   -1.471800   -0.752608
     32          1           0        9.427134    0.277069   -1.011328
     33          1           0        9.184424   -0.809760   -2.371458
     34          1           0        7.726254    0.881215   -3.462696
     35          1           0        7.969466    1.967867   -2.102536
     36          1           0        6.444486    2.006005   -2.996226
 ---------------------------------------------------------------------

 SCF Done:  E(UB3LYP) =  -846.267245827     A.U. after    2 cycles

 Alpha  occ. eigenvalues --  -19.11641 -19.11640 -10.26892 -10.26891 -10.20250
 Alpha  occ. eigenvalues --  -10.20250 -10.20202 -10.20202 -10.19723 -10.19722
 Alpha  occ. eigenvalues --  -10.19671 -10.19671 -10.18719 -10.18719 -10.18718
 Alpha  occ. eigenvalues --  -10.18718 -10.18063 -10.18063 -10.18062 -10.18062
 Alpha  occ. eigenvalues --   -1.05074  -1.04884  -0.88968  -0.88148  -0.82621
 Alpha  occ. eigenvalues --   -0.79654  -0.78470  -0.78436  -0.72945  -0.72348
 Alpha  occ. eigenvalues --   -0.72092  -0.68783  -0.65753  -0.63187  -0.61031
 Alpha  occ. eigenvalues --   -0.60662  -0.57770  -0.53534  -0.52811  -0.50557
 Alpha  occ. eigenvalues --   -0.48255  -0.47121  -0.46374  -0.45566  -0.45104
 Alpha  occ. eigenvalues --   -0.44404  -0.44330  -0.43959  -0.43586  -0.43567
 Alpha  occ. eigenvalues --   -0.42660  -0.41608  -0.41561  -0.40417  -0.40301
 Alpha  occ. eigenvalues --   -0.40261  -0.39799  -0.39690  -0.37579  -0.36918
 Alpha  occ. eigenvalues --   -0.36085  -0.36022  -0.35251  -0.34541  -0.27331
 Alpha  occ. eigenvalues --   -0.26958  -0.26830  -0.26450  -0.26095  -0.25565
 Alpha virt. eigenvalues --   -0.10604  -0.06273  -0.02765  -0.01842  -0.01383
 Alpha virt. eigenvalues --   -0.01231   0.00768   0.01040   0.01246   0.02307
 Alpha virt. eigenvalues --    0.02511   0.02940   0.03162   0.03518   0.03535

  Beta  occ. eigenvalues --  -19.11641 -19.11640 -10.26892 -10.26891 -10.20250
  Beta  occ. eigenvalues --  -10.20250 -10.20202 -10.20202 -10.19723 -10.19722
  Beta  occ. eigenvalues --  -10.19671 -10.19671 -10.18719 -10.18719 -10.18718
  Beta  occ. eigenvalues --  -10.18718 -10.18063 -10.18063 -10.18062 -10.18062
  Beta  occ. eigenvalues --   -1.05074  -1.04884  -0.88968  -0.88148  -0.82621
  Beta  occ. eigenvalues --   -0.79654  -0.78470  -0.78436  -0.72945  -0.72348
  Beta  occ. eigenvalues --   -0.72092  -0.68783  -0.65753  -0.63187  -0.61031
  Beta  occ. eigenvalues --   -0.60662  -0.57770  -0.53534  -0.52811  -0.50557
  Beta  occ. eigenvalues --   -0.48255  -0.47121  -0.46374  -0.45566  -0.45104
  Beta  occ. eigenvalues --   -0.44404  -0.44330  -0.43959  -0.43586  -0.43567
  Beta  occ. eigenvalues --   -0.42660  -0.41608  -0.41561  -0.40417  -0.40301
  Beta  occ. eigenvalues --   -0.40261  -0.39799  -0.39690  -0.37579  -0.36918
  Beta  occ. eigenvalues --   -0.36085  -0.36022  -0.35251  -0.34541  -0.27331
  Beta  occ. eigenvalues --   -0.26958  -0.26830  -0.26450  -0.26095  -0.25565
  Beta virt. eigenvalues --   -0.10604  -0.06273  -0.02765  -0.01842  -0.01383
  Beta virt. eigenvalues --   -0.01231   0.00768   0.01040   0.01246   0.02307
  Beta virt. eigenvalues --    0.02511   0.02940   0.03162   0.03518   0.03535

 Mulliken charges and spin densities:
               1          2
     1  C   -0.162041  -0.000000
     2  C    0.397900  -0.000000
     3  C    0.397919  -0.000000
     4  C   -0.162150   0.000000
     5  C    0.154287   0.000000
     6  C    0.154232  -0.000000
     7  C   -0.898258   0.000000
     8  C    0.154049  -0.000000
     9  C    0.154043   0.000000
    10  C   -0.898290  -0.000000
    11  C   -0.162334  -0.000000
    12  C    0.398075  -0.000000
    13  C    0.398051  -0.000000
    14  C   -0.162222   0.000000
    15  O   -0.206481  -0.000000
    16  O   -0.206480   0.000000
    17  C   -0.464523   0.000000
    18  C   -0.464544  -0.000000
    19  C   -0.464526  -0.000000
    20  C   -0.464534  -0.000000
    21  H    0.145337   0.000000
    22  H    0.145343   0.000000
    23  H    0.145337   0.000000
    24  H    0.145334   0.000000
    25  H    0.170763  -0.000000
    26  H    0.155414   0.000000
    27  H    0.155441   0.000000
    28  H    0.155431   0.000000
    29  H    0.170763   0.000000
    30  H    0.155428   0.000000
    31  H    0.170760   0.000000
    32  H    0.155428  -0.000000
    33  H    0.155430  -0.000000
    34  H    0.155461   0.000000
    35  H    0.155396   0.000000
    36  H    0.170761   0.000000
 Sum of Mulliken charges =  -0.00000   0.00000

 Dipole moment (field-independent basis, Debye):
    X=              0.0000    Y=              0.0008    Z=              0.0011  Tot=              0.0013
 Quadrupole moment (field-independent basis, Debye-Ang):
   XX=            -98.6369   YY=           -118.2686   ZZ=           -113.5387
   XY=             15.9283   XZ=            -16.4822   YZ=             -3.9527

  Exact polarizability: 305.100  28.955 204.422 -57.100 -76.450 186.597
 Approx polarizability: 444.000 -12.479 343.275 -35.540-120.658 292.357

                      1                      2                      3
                      A                      A                      A
 Frequencies --     31.2106                65.2542                85.9880
 Red. masses --      5.3758                 3.1999                 4.8241
 Frc consts  --      0.0031                 0.0080                 0.0210
 IR Inten    --      4.8096                 0.0001                 0.0000

                      4                      5                      6
                      A                      A                      A
 Frequencies --    116.2639               122.5067               122.6263
 Red. masses --      5.2554                 1.0366                 1.0348
 Frc consts  --      0.0419                 0.0092                 0.0092
 IR Inten    --      1.1835                 0.0017                 0.0000

                      7                      8                      9
                      A                      A                      A
 Frequencies --    128.3552               142.3138               165.9027
 Red. masses --      2.6048                 3.9540                 1.0968
 Frc consts  --      0.0253                 0.0472                 0.0178
 IR Inten    --      0.0000                 1.4431                 1.5206

                     10                     11                     12
                      A                      A                      A
 Frequencies --    173.4654               214.0093               224.6555
 Red. masses --      1.2116                 3.7569                 3.4369
 Frc consts  --      0.0215                 0.1014                 0.1022
 IR Inten    --      0.0000                 0.0000                 0.0000

                     13                     14                     15
                      A                      A                      A
 Frequencies --    227.2394               271.7294               290.4914
 Red. masses --      5.0172                 3.4822                 4.0033
 Frc consts  --      0.1526                 0.1515                 0.1990
 IR Inten    --      0.0000                 0.0000                 6.2605

                     16                     17                     18
                      A                      A                      A
 Frequencies --    300.0432               322.2303               355.7962
 Red. masses --      2.5630                 3.4490                 4.5783
 Frc consts  --      0.1359                 0.2110                 0.3415
 IR Inten    --      1.6253                 0.0000                 0.0000

                     19                     20                     21
                      A                      A                      A
 Frequencies --    359.4340               373.4315               391.5729
 Red. masses --      6.6556                10.0528                 3.7342
 Frc consts  --      0.5066                 0.8260                 0.3373
 IR Inten    --      0.0000                22.9633                 0.7403

                     22                     23                     24
                      A                      A                      A
 Frequencies --    441.2683               456.2115               472.6230
 Red. masses --      2.9444                 2.9786                12.7463
 Frc consts  --      0.3378                 0.3652                 1.6775
 IR Inten    --      7.9832                 0.0000                 0.0000

                     25                     26                     27
                      A                      A                      A
 Frequencies --    490.2547               517.6799               568.5575
 Red. masses --      3.3445                 6.0096                 3.5768
 Frc consts  --      0.4736                 0.9489                 0.6812
 IR Inten    --      0.0000                 0.0000                 1.4655

                     28                     29                     30
                      A                      A                      A
 Frequencies --    594.4881               602.2945               608.4169
 Red. masses --      4.5824                 5.6744                 6.4478
 Frc consts  --      0.9542                 1.2128                 1.4063
 IR Inten    --      0.0000                 0.0000                23.4531

                     31                     32                     33
                      A                      A                      A
 Frequencies --    689.4859               715.9753               722.5506
 Red. masses --      3.6508                 6.6992                 6.1888
 Frc consts  --      1.0226                 2.0234                 1.9037
 IR Inten    --      0.0000                 0.0000                 0.9596

                     34                     35                     36
                      A                      A                      A
 Frequencies --    726.5719               756.4447               759.7538
 Red. masses --      3.7600                 4.9215                 5.4314
 Frc consts  --      1.1695                 1.6592                 1.8472
 IR Inten    --      0.0000                 5.4486                25.7062

                     37                     38                     39
                      A                      A                      A
 Frequencies --    771.4298               796.2344               807.6241
 Red. masses --      3.8858                 5.9558                 5.5227
 Frc consts  --      1.3625                 2.2247                 2.1223
 IR Inten    --      0.0000                 0.0000                 0.0000

                     40                     41                     42
                      A                      A                      A
 Frequencies --    927.5382               931.8572               939.2524
 Red. masses --      1.3060                 1.3054                 1.3892
 Frc consts  --      0.6620                 0.6679                 0.7220
 IR Inten    --      0.0000                 0.0009                 0.0000

                     43                     44                     45
                      A                      A                      A
 Frequencies --    940.5260               985.6310              1010.9755
 Red. masses --      1.4428                 2.0072                 2.8593
 Frc consts  --      0.7520                 1.1489                 1.7218
 IR Inten    --     21.0434               124.6529                 6.9595

                     46                     47                     48
                      A                      A                      A
 Frequencies --   1012.6190              1031.2809              1032.1520
 Red. masses --      1.3882                 1.5455                 1.8555
 Frc consts  --      0.8387                 0.9684                 1.1647
 IR Inten    --      0.0000                 0.0000                 3.7119

                     49                     50                     51
                      A                      A                      A
 Frequencies --   1048.4132              1048.4524              1049.4081
 Red. masses --      2.1369                 1.4641                 1.4679
 Frc consts  --      1.3839                 0.9483                 0.9524
 IR Inten    --      1.9088                 0.0005                13.9938

                     52                     53                     54
                      A                      A                      A
 Frequencies --   1068.6125              1068.8443              1148.5025
 Red. masses --      1.6358                 1.6415                 6.1515
 Frc consts  --      1.1006                 1.1049                 4.7808
 IR Inten    --      0.0000                 0.0000                 0.0000

                     55                     56                     57
                      A                      A                      A
 Frequencies --   1176.3507              1205.6488              1218.5068
 Red. masses --      1.5327                 5.4506                 1.8519
 Frc consts  --      1.2496                 4.6680                 1.6200
 IR Inten    --      0.0000                 0.1061                94.4713

                     58                     59                     60
                      A                      A                      A
 Frequencies --   1222.9273              1266.8855              1272.4661
 Red. masses --      5.2535                 5.9225                 1.3381
 Frc consts  --      4.6291                 5.6006                 1.2766
 IR Inten    --      0.0000                 0.0000                 0.0000

                     61                     62                     63
                      A                      A                      A
 Frequencies --   1280.5280              1326.0677              1345.0102
 Red. masses --      1.3105                 8.7526                 7.0726
 Frc consts  --      1.2661                 9.0682                 7.5384
 IR Inten    --      4.4019               816.5376               100.2633

                     64                     65                     66
                      A                      A                      A
 Frequencies --   1355.5712              1406.4940              1410.5900
 Red. masses --      7.2055                 1.7392                 1.2597
 Frc consts  --      7.8012                 2.0271                 1.4768
 IR Inten    --      0.0020                12.4615                 0.0000

                     67                     68                     69
                      A                      A                      A
 Frequencies --   1417.5118              1421.6922              1421.7351
 Red. masses --      2.2478                 1.2469                 1.2389
 Frc consts  --      2.6611                 1.4849                 1.4754
 IR Inten    --      2.2397                11.2347                 0.2739

                     70                     71                     72
                      A                      A                      A
 Frequencies --   1438.5564              1478.3451              1478.3785
 Red. masses --      3.5176                 1.0448                 1.0448
 Frc consts  --      4.2890                 1.3454                 1.3454
 IR Inten    --      0.0000                 0.0018                 0.0000

                     73                     74                     75
                      A                      A                      A
 Frequencies --   1491.1171              1492.4845              1492.5279
 Red. masses --      1.1804                 1.0437                 1.0440
 Frc consts  --      1.5464                 1.3698                 1.3703
 IR Inten    --      9.3314                 0.0208                38.9455

                     76                     77                     78
                      A                      A                      A
 Frequencies --   1493.7131              1494.4264              1494.8824
 Red. masses --      1.2815                 1.1701                 1.1793
 Frc consts  --      1.6846                 1.5397                 1.5527
 IR Inten    --      0.0011                 0.7848                 0.0002

                     79                     80                     81
                      A                      A                      A
 Frequencies --   1516.3614              1521.8468              1586.5004
 Red. masses --      2.7756                 2.6859                 7.4141
 Frc consts  --      3.7603                 3.6651                10.9949
 IR Inten    --      0.0980                 0.0000                13.6114

                     82                     83                     84
                      A                      A                      A
 Frequencies --   1602.7837              1630.3525              1639.2789
 Red. masses --      8.3585                 6.4993                 6.0282
 Frc consts  --     12.6511                10.1783                 9.5442
 IR Inten    --      0.0000               273.6629                 0.0004

                     85                     86                     87
                      A                      A                      A
 Frequencies --   1710.9285              1724.7819              3020.6864
 Red. masses --     12.8253                11.6291                 1.0391
 Frc consts  --     22.1199                20.3829                 5.5860
 IR Inten    --      0.0000               279.8864                10.4903

                     88                     89                     90
                      A                      A                      A
 Frequencies --   3020.7215              3021.2133              3021.4079
 Red. masses --      1.0391                 1.0382                 1.0381
 Frc consts  --      5.5863                 5.5832                 5.5837
 IR Inten    --      5.1533               101.4232                 0.0373

                     91                     92                     93
                      A                      A                      A
 Frequencies --   3064.4175              3064.4701              3066.3151
 Red. masses --      1.0994                 1.0994                 1.0994
 Frc consts  --      6.0826                 6.0828                 6.0905
 IR Inten    --     15.2881                41.0730                 0.2740

                     94                     95                     96
                      A                      A                      A
 Frequencies --   3066.3430              3111.0883              3111.1200
 Red. masses --      1.0994                 1.0994                 1.0994
 Frc consts  --      6.0906                 6.2696                 6.2697
 IR Inten    --      0.1348                 2.3363                54.1478

                     97                     98                     99
                      A                      A                      A
 Frequencies --   3112.2139              3112.2295              3184.3958
 Red. masses --      1.0991                 1.0991                 1.0899
 Frc consts  --      6.2725                 6.2725                 6.5119
 IR Inten    --      0.8638                 0.1564                 0.0002

                    100                    101                    102
                      A                      A                      A
 Frequencies --   3184.7078              3185.9347              3186.5072
 Red. masses --      1.0902                 1.0903                 1.0906
 Frc consts  --      6.5146                 6.5206                 6.5244
 IR Inten    --      2.6723                13.4611                 0.0002

 - Thermochemistry -
 -------------------
 Temperature   298.150 Kelvin.  Pressure   1.00000 Atm.
 Atom     1 has atomic number  6 and mass  12.00000

 Molecular mass:   264.11503 amu.
 Principal axes and moments of inertia in atomic units:
                           1         2         3
     Eigenvalues --  2143.175599339.98025**********
           X            0.79791  -0.58668   0.13836
           Y            0.39310   0.68048   0.61840
           Z           -0.45696  -0.43904   0.77358
 This molecule is an asymmetric top.
 Rotational symmetry number  1.
 Warning -- assumption of classical behavior for rotation
           may cause significant error
 Rotational temperatures (Kelvin)      0.04041     0.00927     0.00757
 Rotational constants (GHZ):           0.84209     0.19323     0.15778
 Zero-point vibrational energy     758405.4 (Joules/Mol)
                                  181.26323 (Kcal/Mol)
 Warning -- explicit consideration of  30 degrees of freedom as
           vibrations may cause significant error
 Vibrational temperatures:     44.91    93.89   123.72   167.28   176.26
          (Kelvin)            176.43   184.67   204.76   238.70   249.58
                              307.91   323.23   326.95   390.96   417.95
                              431.70   463.62   511.91   517.15   537.28
                              563.39   634.89   656.39   680.00   705.37
                              744.83   818.03   855.34   866.57   875.38
                              992.02  1030.13  1039.59  1045.37  1088.36
                             1093.12  1109.92  1145.60  1161.99  1334.52
                             1340.73  1351.37  1353.21  1418.10  1454.57
                             1456.93  1483.78  1485.04  1508.43  1508.49
                             1509.86  1537.50  1537.83  1652.44  1692.51
                             1734.66  1753.16  1759.52  1822.77  1830.79
                             1842.39  1907.92  1935.17  1950.36  2023.63
                             2029.52  2039.48  2045.50  2045.56  2069.76
                             2127.01  2127.06  2145.38  2147.35  2147.41
                             2149.12  2150.15  2150.80  2181.71  2189.60
                             2282.62  2306.05  2345.71  2358.56  2461.64
                             2481.58  4346.09  4346.14  4346.85  4347.13
                             4409.01  4409.09  4411.74  4411.78  4476.16
                             4476.21  4477.78  4477.80  4581.64  4582.08
                             4583.85  4584.67

 Zero-point correction=                           0.288861 (Hartree/Particle)
 Thermal correction to Energy=                    0.306923
 Thermal correction to Enthalpy=                  0.307868
 Thermal correction to Gibbs Free Energy=         0.243378
 Sum of electronic and zero-point Energies=           -845.978384
 Sum of electronic and thermal Energies=              -845.960322
 Sum of electronic and thermal Enthalpies=            -845.959378
 Sum of electronic and thermal Free Energies=         -846.023868

                     E (Thermal)             CV                S
                      KCal/Mol        Cal/Mol-Kelvin    Cal/Mol-Kelvin
 Total                  192.597             69.670            135.730
 Electronic               0.000              0.000              0.000
 Translational            0.889              2.981             42.613
 Rotational               0.889              2.981             33.792
 Vibrational            190.820             63.708             59.325
 Vibration     1          0.594              1.983              5.751
 Vibration     2          0.597              1.971              4.292
 Vibration     3          0.601              1.959              3.749
 Vibration     4          0.608              1.936              3.162
 Vibration     5          0.610              1.930              3.060
 Vibration     6          0.610              1.930              3.059
 Vibration     7          0.611              1.925              2.971
 Vibration     8          0.616              1.911              2.773
 Vibration     9          0.624              1.884              2.481
 Vibration    10          0.627              1.875              2.398
 Vibration    11          0.644              1.820              2.009
 Vibration    12          0.649              1.803              1.921
 Vibration    13          0.651              1.799              1.901
 Vibration    14          0.675              1.725              1.585
 Vibration    15          0.686              1.691              1.471
 Vibration    16          0.693              1.674              1.417
 Vibration    17          0.707              1.631              1.299
 Vibration    18          0.731              1.563              1.140
 Vibration    19          0.734              1.556              1.125
 Vibration    20          0.745              1.527              1.066
 Vibration    21          0.759              1.488              0.994
 Vibration    22          0.801              1.380              0.823
 Vibration    23          0.814              1.347              0.777
 Vibration    24          0.829              1.311              0.730
 Vibration    25          0.846              1.272              0.683
 Vibration    26          0.873              1.211              0.615
 Vibration    27          0.925              1.099              0.507
 Vibration    28          0.952              1.044              0.459
 Vibration    29          0.961              1.027              0.446
 Vibration    30          0.967              1.014              0.435

 Optimization completed.
    -- Stationary point found.
 Normal termination of Gaussian 16 at Sat Jan 13 03:41:17 2024.
