 Q-Chem 5.4, Q-Chem, Inc., Pleasanton, CA (2021)
 Q-Chem 5.4.0 for Intel X86 EM64T Linux

User input:
--------------------------------------------------------------
$molecule
0 1
C                 -2.0354440000      3.0102280000      0.5322580000
C                 -2.7647160000      2.3199090000      1.4954690000
C                 -2.3086120000      1.0867450000      1.9648750000
C                 -0.8479520000      2.4638110000      0.0395770000
C                 -0.3865980000      1.2233060000      0.5096540000
C                 -1.1244690000      0.5394640000      1.4742480000
C                 -0.0641050000      3.1822750000     -0.9814950000
C                  1.1984350000      2.5571580000     -1.4701710000
C                  1.6589580000      1.3568770000     -1.0393730000
C                  0.8888770000      0.6237360000     -0.0127620000
O                 -0.3854740000      4.2658560000     -1.4565850000
O                  1.2747290000     -0.4577260000      0.4088550000
H                 -2.3689900000      3.9681250000      0.1523100000
H                 -3.6864120000      2.7403950000      1.8806600000
H                 -2.8781760000      0.5505150000      2.7154610000
H                 -0.7566030000     -0.4159150000      1.8272730000
C                  2.9417390000      0.7570500000     -1.5424070000
O                  1.8469380000      3.2884440000     -2.3913400000
H                  3.1161240000      1.0930480000     -2.5677970000
H                  2.8348080000     -0.3304370000     -1.5531530000
H                  1.3040050000      4.0872030000     -2.5330920000
C                  4.1592780000      1.1313140000     -0.6698780000
C                  5.4626720000      0.5109590000     -1.1833080000
C                  6.6848360000      0.8766210000     -0.3334930000
H                  3.9760080000      0.8012310000      0.3581380000
H                  4.2583480000      2.2223490000     -0.6411750000
H                  5.6328940000      0.8311430000     -2.2193560000
H                  5.3553430000     -0.5807240000     -1.2139130000
H                  6.5137690000      0.5558790000      0.7021290000
H                  6.7885600000      1.9689180000     -0.3003500000
C                  7.9925330000      0.2606030000     -0.8438230000
C                  9.2155200000      0.6263510000      0.0048460000
C                 10.5236990000      0.0102750000     -0.5039720000
C                 11.7468940000      0.3773750000      0.3439100000
C                 13.0552720000     -0.2384250000     -0.1641650000
C                 14.2791950000      0.1290010000      0.6825800000
C                 15.5814120000     -0.4907310000      0.1671070000
H                  8.1627210000      0.5804480000     -1.8800770000
H                  7.8887320000     -0.8316870000     -0.8767450000
H                  9.0447330000      0.3071560000      1.0411980000
H                  9.3191620000      1.7187660000      0.0375090000
H                 10.6939470000      0.3285350000     -1.5407360000
H                 10.4204490000     -1.0821690000     -0.5356190000
H                 11.5765700000      0.0593390000      1.3807510000
H                 11.8500920000      1.4698940000      0.3753590000
H                 13.2264060000      0.0788690000     -1.2012610000
H                 12.9535000000     -1.3312160000     -0.1950420000
H                 14.1090740000     -0.1885070000      1.7186470000
H                 14.3816780000      1.2206860000      0.7130820000
H                 15.5228100000     -1.5838180000      0.1580260000
H                 16.4336100000     -0.2095660000      0.7922320000
H                 15.7975210000     -0.1639480000     -0.8550850000
$end

$rem
BASIS  =  6-311++G(d,p)
GUI  =  2
JOB_TYPE  =  SP
METHOD  =  B3LYP
SCF_CONVERGENCE  = 8
SOLVENT_METHOD = sm12
$end

$smx
solvent dimethylformamide
charges CM5
$end

--------------------------------------------------------------

             Standard Nuclear Orientation (Angstroms)
    I     Atom           X                Y                Z
 ----------------------------------------------------------------
    1      C      -2.0354440000     3.0102280000     0.5322580000
    2      C      -2.7647160000     2.3199090000     1.4954690000
    3      C      -2.3086120000     1.0867450000     1.9648750000
    4      C      -0.8479520000     2.4638110000     0.0395770000
    5      C      -0.3865980000     1.2233060000     0.5096540000
    6      C      -1.1244690000     0.5394640000     1.4742480000
    7      C      -0.0641050000     3.1822750000    -0.9814950000
    8      C       1.1984350000     2.5571580000    -1.4701710000
    9      C       1.6589580000     1.3568770000    -1.0393730000
   10      C       0.8888770000     0.6237360000    -0.0127620000
   11      O      -0.3854740000     4.2658560000    -1.4565850000
   12      O       1.2747290000    -0.4577260000     0.4088550000
   13      H      -2.3689900000     3.9681250000     0.1523100000
   14      H      -3.6864120000     2.7403950000     1.8806600000
   15      H      -2.8781760000     0.5505150000     2.7154610000
   16      H      -0.7566030000    -0.4159150000     1.8272730000
   17      C       2.9417390000     0.7570500000    -1.5424070000
   18      O       1.8469380000     3.2884440000    -2.3913400000
   19      H       3.1161240000     1.0930480000    -2.5677970000
   20      H       2.8348080000    -0.3304370000    -1.5531530000
   21      H       1.3040050000     4.0872030000    -2.5330920000
   22      C       4.1592780000     1.1313140000    -0.6698780000
   23      C       5.4626720000     0.5109590000    -1.1833080000
   24      C       6.6848360000     0.8766210000    -0.3334930000
   25      H       3.9760080000     0.8012310000     0.3581380000
   26      H       4.2583480000     2.2223490000    -0.6411750000
   27      H       5.6328940000     0.8311430000    -2.2193560000
   28      H       5.3553430000    -0.5807240000    -1.2139130000
   29      H       6.5137690000     0.5558790000     0.7021290000
   30      H       6.7885600000     1.9689180000    -0.3003500000
   31      C       7.9925330000     0.2606030000    -0.8438230000
   32      C       9.2155200000     0.6263510000     0.0048460000
   33      C      10.5236990000     0.0102750000    -0.5039720000
   34      C      11.7468940000     0.3773750000     0.3439100000
   35      C      13.0552720000    -0.2384250000    -0.1641650000
   36      C      14.2791950000     0.1290010000     0.6825800000
   37      C      15.5814120000    -0.4907310000     0.1671070000
   38      H       8.1627210000     0.5804480000    -1.8800770000
   39      H       7.8887320000    -0.8316870000    -0.8767450000
   40      H       9.0447330000     0.3071560000     1.0411980000
   41      H       9.3191620000     1.7187660000     0.0375090000
   42      H      10.6939470000     0.3285350000    -1.5407360000
   43      H      10.4204490000    -1.0821690000    -0.5356190000
   44      H      11.5765700000     0.0593390000     1.3807510000
   45      H      11.8500920000     1.4698940000     0.3753590000
   46      H      13.2264060000     0.0788690000    -1.2012610000
   47      H      12.9535000000    -1.3312160000    -0.1950420000
   48      H      14.1090740000    -0.1885070000     1.7186470000
   49      H      14.3816780000     1.2206860000     0.7130820000
   50      H      15.5228100000    -1.5838180000     0.1580260000
   51      H      16.4336100000    -0.2095660000     0.7922320000
   52      H      15.7975210000    -0.1639480000    -0.8550850000
 ----------------------------------------------------------------

   15   -1043.0921258110      7.33e-09  Convergence criterion met
 Total energy in the final basis set =    -1043.1176873812

                    Orbital Energies (a.u.)
 --------------------------------------------------------------

 Alpha MOs
 -- Occupied --
-19.1784 -19.1481 -19.1257 -10.2919 -10.2778 -10.2668 -10.2103 -10.2089
-10.2037 -10.2004 -10.1985 -10.1967 -10.1965 -10.1764 -10.1686 -10.1653
-10.1634 -10.1634 -10.1628 -10.1624 -10.1624 -10.1620 -10.1618 -10.1576
 -1.1084  -1.0662  -1.0590  -0.8917  -0.8443  -0.8163  -0.8054  -0.7907
 -0.7792  -0.7731  -0.7493  -0.7208  -0.6964  -0.6758  -0.6555  -0.6423
 -0.6181  -0.6047  -0.5936  -0.5817  -0.5762  -0.5751  -0.5728  -0.5416
 -0.5174  -0.4964  -0.4887  -0.4795  -0.4755  -0.4716  -0.4641  -0.4587
 -0.4517  -0.4456  -0.4384  -0.4329  -0.4288  -0.4270  -0.4225  -0.4136
 -0.4079  -0.4030  -0.4009  -0.3895  -0.3818  -0.3800  -0.3751  -0.3734
 -0.3690  -0.3580  -0.3521  -0.3434  -0.3390  -0.3361  -0.3305  -0.3272
 -0.3255  -0.3236  -0.3231  -0.3044  -0.3001  -0.2885  -0.2788  -0.2760
 -0.2567

          Ground-State Mulliken Net Atomic Charges

     Atom                 Charge (a.u.)
  ----------------------------------------
      1 C                     0.334174
      2 C                     0.403962
      3 C                     0.386361
      4 C                     0.583429
      5 C                    -0.646900
      6 C                    -0.059449
      7 C                    -1.108877
      8 C                    -0.541437
      9 C                     1.519088
     10 C                    -1.469626
     11 O                    -0.294147
     12 O                    -0.285954
     13 H                     0.218098
     14 H                     0.329163
     15 H                     0.316195
     16 H                     0.186323
     17 C                    -0.263725
     18 O                    -0.197003
     19 H                     0.229647
     20 H                     0.183201
     21 H                     0.293600
     22 C                    -0.874263
     23 C                    -0.138682
     24 C                     0.050687
     25 H                     0.116418
     26 H                     0.141158
     27 H                     0.106241
     28 H                     0.105879
     29 H                     0.107736
     30 H                     0.110550
     31 C                     0.153872
     32 C                     0.115481
     33 C                    -0.048275
     34 C                    -0.313388
     35 C                    -0.572287
     36 C                    -0.348402
     37 C                    -0.655051
     38 H                     0.113874
     39 H                     0.113129
     40 H                     0.111355
     41 H                     0.112819
     42 H                     0.114428
     43 H                     0.113849
     44 H                     0.114360
     45 H                     0.114410
     46 H                     0.106670
     47 H                     0.106291
     48 H                     0.128946
     49 H                     0.129185
     50 H                     0.141569
     51 H                     0.163591
     52 H                     0.141729
  ----------------------------------------
  Sum of atomic charges =     0.000000

                    Cartesian Multipole Moments
 -----------------------------------------------------------------
    Charge (ESU x 10^10)
                -0.0000
    Dipole Moment (Debye)
         X      -2.5014      Y       0.8603      Z       1.4602
       Tot       3.0214
    Quadrupole Moments (Debye-Ang)
        XX    -141.7675     XY      -1.0003     YY    -152.3410
        XZ      -7.1391     YZ       2.9282     ZZ    -146.0551

 Total job time:  2269.59s(wall), 17222.44s(cpu)
        *  Thank you very much for using Q-Chem.  Have a nice day.  *
