 Gaussian 16, Revision A.03,
 Gaussian 16:  ES64L-G16RevA.03 25-Dec-2016

 ----------------------------------------------------------------------
 #P UB3LYP/6-311++G(d,p) nosym opt freq SCRF=(PCM,Solvent=n,n-DiMethylF
 ormamide)
 ----------------------------------------------------------------------

 -------
 Reduced
 -------
 Symbolic Z-matrix:
 Charge = -2 Multiplicity = 1

 SCF Done:  E(UB3LYP) =  -3777.72336749     A.U. after   19 cycles
 SCF Done:  E(UB3LYP) =  -3777.72551233     A.U. after   15 cycles
 SCF Done:  E(UB3LYP) =  -3777.72603007     A.U. after   16 cycles
 SCF Done:  E(UB3LYP) =  -3777.72611417     A.U. after   14 cycles
 SCF Done:  E(UB3LYP) =  -3777.72616408     A.U. after   12 cycles
 SCF Done:  E(UB3LYP) =  -3777.72617060     A.U. after   13 cycles
 SCF Done:  E(UB3LYP) =  -3777.72617427     A.U. after   11 cycles
 SCF Done:  E(UB3LYP) =  -3777.72617456     A.U. after   11 cycles
 Optimization completed.
    -- Stationary point found.
 Normal termination of Gaussian 16 at Sat Feb 10 19:06:22 2024.

 ----------------------------------------------------------------------
 #P Geom=AllCheck Guess=TCheck SCRF=Check GenChk UB3LYP/6-311++G(d,p) F
 req
 ----------------------------------------------------------------------

 Structure from the checkpoint file:  "160-an.chk"
 -------
 Reduced
 -------
 Charge = -2 Multiplicity = 1

                          Input orientation:
 ---------------------------------------------------------------------
 Center     Atomic      Atomic             Coordinates (Angstroms)
 Number     Number       Type             X           Y           Z
 ---------------------------------------------------------------------
      1          6           0       -1.825953    1.883908   -5.122128
      2          6           0       -1.673953    0.575077   -5.520207
      3          6           0       -1.227583   -0.400751   -4.586848
      4          6           0       -1.540751    2.316982   -3.795243
      5          6           0       -1.087297    1.322974   -2.850802
      6          6           0       -0.949001   -0.022913   -3.293509
      7          6           0       -1.730246    3.712468   -3.461934
      8          6           0       -0.797332    1.665564   -1.488154
      9          6           0       -1.343256    4.085333   -2.125756
     10          6           0       -0.939130    3.061326   -1.162999
     11          6           0       -1.335782    5.434577   -1.617523
     12          6           0       -1.081002    5.793750   -0.301949
     13          6           0       -0.783085    4.723812    0.600418
     14          6           0       -0.690465    3.431851    0.181602
     15          8           0       -2.226563    4.532655   -4.337476
     16          8           0       -0.437014    0.782549   -0.605748
     17          1           0       -2.169878    2.637450   -5.821266
     18          1           0       -1.893528    0.285574   -6.543502
     19          1           0       -1.109661   -1.434973   -4.895422
     20          1           0       -0.611426   -0.752119   -2.565589
     21         35           0       -0.450741    5.131868    2.469530
     22          1           0       -0.426867    2.635589    0.865555
     23          7           0       -1.144141    7.112341    0.164108
     24         17           0       -1.555622    6.835027   -2.710541
     25          1           0       -1.021668    7.807500   -0.559660
     26          1           0       -0.553872    7.293971    0.965030
 ---------------------------------------------------------------------

 SCF Done:  E(UB3LYP) =  -3777.72617456     A.U. after    2 cycles

 Alpha  occ. eigenvalues -- -482.82623-101.53526 -62.47909 -56.29925 -56.29564
 Alpha  occ. eigenvalues --  -56.29557 -19.02262 -19.01278 -14.31347 -10.21437
 Alpha  occ. eigenvalues --  -10.21337 -10.21146 -10.17853 -10.17761 -10.16206
 Alpha  occ. eigenvalues --  -10.15625 -10.15069 -10.15015 -10.14858 -10.14652
 Alpha  occ. eigenvalues --  -10.14643 -10.13985 -10.13912  -9.45003  -8.68876
 Alpha  occ. eigenvalues --   -7.21422  -7.20527  -7.20451  -6.51949  -6.50758
 Alpha  occ. eigenvalues --   -6.50739  -2.63053  -2.62714  -2.62697  -2.61754
 Alpha  occ. eigenvalues --   -2.61752  -0.93705  -0.93026  -0.92361  -0.84651
 Alpha  occ. eigenvalues --   -0.83184  -0.82562  -0.78686  -0.74715  -0.72436
 Alpha  occ. eigenvalues --   -0.71506  -0.70310  -0.64109  -0.61284  -0.59393
 Alpha  occ. eigenvalues --   -0.57142  -0.53640  -0.51951  -0.50883  -0.48868
 Alpha  occ. eigenvalues --   -0.46799  -0.43912  -0.43451  -0.42903  -0.41466
 Alpha  occ. eigenvalues --   -0.40614  -0.40149  -0.39261  -0.38078  -0.37162
 Alpha  occ. eigenvalues --   -0.36831  -0.35906  -0.34227  -0.33670  -0.32795
 Alpha  occ. eigenvalues --   -0.32327  -0.31748  -0.30837  -0.30407  -0.29956
 Alpha  occ. eigenvalues --   -0.28963  -0.27714  -0.23309  -0.22504  -0.22121
 Alpha  occ. eigenvalues --   -0.20379  -0.20199  -0.18957  -0.10895
 Alpha virt. eigenvalues --   -0.03273  -0.01740  -0.00098   0.00009   0.00678
 Alpha virt. eigenvalues --    0.01283   0.01520   0.02285   0.02376   0.03671
 Alpha virt. eigenvalues --    0.04198   0.04542   0.04921   0.05613   0.06013

  Beta  occ. eigenvalues -- -482.82623-101.53526 -62.47909 -56.29925 -56.29564
  Beta  occ. eigenvalues --  -56.29557 -19.02262 -19.01278 -14.31347 -10.21437
  Beta  occ. eigenvalues --  -10.21337 -10.21146 -10.17853 -10.17761 -10.16206
  Beta  occ. eigenvalues --  -10.15625 -10.15069 -10.15015 -10.14858 -10.14652
  Beta  occ. eigenvalues --  -10.14643 -10.13985 -10.13912  -9.45003  -8.68876
  Beta  occ. eigenvalues --   -7.21422  -7.20527  -7.20451  -6.51949  -6.50758
  Beta  occ. eigenvalues --   -6.50739  -2.63053  -2.62714  -2.62697  -2.61754
  Beta  occ. eigenvalues --   -2.61752  -0.93705  -0.93026  -0.92361  -0.84651
  Beta  occ. eigenvalues --   -0.83184  -0.82562  -0.78686  -0.74715  -0.72436
  Beta  occ. eigenvalues --   -0.71506  -0.70310  -0.64109  -0.61284  -0.59393
  Beta  occ. eigenvalues --   -0.57142  -0.53640  -0.51951  -0.50883  -0.48868
  Beta  occ. eigenvalues --   -0.46799  -0.43912  -0.43451  -0.42903  -0.41466
  Beta  occ. eigenvalues --   -0.40614  -0.40149  -0.39261  -0.38078  -0.37162
  Beta  occ. eigenvalues --   -0.36831  -0.35906  -0.34227  -0.33670  -0.32795
  Beta  occ. eigenvalues --   -0.32327  -0.31748  -0.30837  -0.30407  -0.29956
  Beta  occ. eigenvalues --   -0.28963  -0.27714  -0.23309  -0.22504  -0.22121
  Beta  occ. eigenvalues --   -0.20379  -0.20199  -0.18957  -0.10895
  Beta virt. eigenvalues --   -0.03273  -0.01740  -0.00098   0.00009   0.00678
  Beta virt. eigenvalues --    0.01283   0.01520   0.02285   0.02376   0.03671
  Beta virt. eigenvalues --    0.04198   0.04542   0.04921   0.05613   0.06013

 Mulliken charges and spin densities:
               1          2
     1  C    0.013227   0.000000
     2  C   -0.480609  -0.000000
     3  C   -0.482490  -0.000000
     4  C    0.054706   0.000000
     5  C    0.330153  -0.000000
     6  C   -0.070877   0.000000
     7  C   -1.625873   0.000000
     8  C   -0.475325   0.000000
     9  C    0.658612  -0.000000
    10  C    0.574637  -0.000000
    11  C    0.027209  -0.000000
    12  C   -0.860168  -0.000000
    13  C    0.303874  -0.000000
    14  C    0.119679   0.000000
    15  O   -0.578573  -0.000000
    16  O   -0.648854  -0.000000
    17  H    0.149866  -0.000000
    18  H    0.158633  -0.000000
    19  H    0.159955   0.000000
    20  H    0.145179   0.000000
    21  Br  -0.200984   0.000000
    22  H    0.201604   0.000000
    23  N   -0.229211  -0.000000
    24  Cl   0.269168  -0.000000
    25  H    0.238245   0.000000
    26  H    0.248218   0.000000
 Sum of Mulliken charges =  -2.00000   0.00000

 Dipole moment (field-independent basis, Debye):
    X=             13.6625    Y=            -28.0191    Z=             22.3067  Tot=             38.3317
 Quadrupole moment (field-independent basis, Debye-Ang):
   XX=           -166.3789   YY=           -255.6069   ZZ=           -232.0290
   XY=             55.9900   XZ=            -41.4332   YZ=             79.2102

  Exact polarizability: 202.966 -25.435 547.583  69.999 124.733 534.238
 Approx polarizability: 230.183 -37.399 609.612  81.019 111.364 587.111

                      1                      2                      3
                      A                      A                      A
 Frequencies --     38.3749                53.5830                84.3869
 Red. masses --     11.2391                 7.9311                 7.2746
 Frc consts  --      0.0098                 0.0134                 0.0305
 IR Inten    --      0.7769                17.5304                 1.0916

                      4                      5                      6
                      A                      A                      A
 Frequencies --    126.2949               134.0194               148.5826
 Red. masses --     10.9669                 6.0751                 6.4237
 Frc consts  --      0.1031                 0.0643                 0.0836
 IR Inten    --      5.8737                 5.3215                 4.0235

                      7                      8                      9
                      A                      A                      A
 Frequencies --    189.1729               192.3725               217.1235
 Red. masses --      9.7468                 7.5726                16.6401
 Frc consts  --      0.2055                 0.1651                 0.4622
 IR Inten    --     10.1562                 2.2309                 9.3018

                     10                     11                     12
                      A                      A                      A
 Frequencies --    266.1358               281.8446               307.9724
 Red. masses --      5.6990                 7.4011                 1.8137
 Frc consts  --      0.2378                 0.3464                 0.1014
 IR Inten    --      5.6295                 5.6053                40.3806

                     13                     14                     15
                      A                      A                      A
 Frequencies --    319.9896               328.1974               346.1822
 Red. masses --      5.1994                 4.6889                 2.7804
 Frc consts  --      0.3137                 0.2976                 0.1963
 IR Inten    --     13.1195                24.2458                28.3707

                     16                     17                     18
                      A                      A                      A
 Frequencies --    368.4611               375.0443               410.3992
 Red. masses --      8.8174                 9.7319                 7.2876
 Frc consts  --      0.7053                 0.8065                 0.7232
 IR Inten    --      6.2215                 1.6851                 0.1233

                     19                     20                     21
                      A                      A                      A
 Frequencies --    447.1019               476.6185               495.9267
 Red. masses --      3.9141                 8.1063                 9.4018
 Frc consts  --      0.4610                 1.0850                 1.3624
 IR Inten    --     11.4545                 5.7044                 5.1729

                     22                     23                     24
                      A                      A                      A
 Frequencies --    503.0959               541.3380               551.3467
 Red. masses --      4.2341                 5.7035                 4.4429
 Frc consts  --      0.6314                 0.9848                 0.7957
 IR Inten    --      4.6980                27.9759                17.8566

                     25                     26                     27
                      A                      A                      A
 Frequencies --    606.3482               629.4594               659.5771
 Red. masses --      5.7022                 2.3739                 6.7432
 Frc consts  --      1.2352                 0.5542                 1.7284
 IR Inten    --    175.8740               257.1879                94.0764

                     28                     29                     30
                      A                      A                      A
 Frequencies --    682.6323               691.4179               699.2485
 Red. masses --      2.9036                 5.7519                 2.7576
 Frc consts  --      0.7972                 1.6201                 0.7944
 IR Inten    --    375.6925                17.3337                79.6496

                     31                     32                     33
                      A                      A                      A
 Frequencies --    717.0726               749.1675               765.5069
 Red. masses --      6.1523                 8.8135                 5.3248
 Frc consts  --      1.8639                 2.9144                 1.8384
 IR Inten    --     19.2239               186.5189                33.4989

                     34                     35                     36
                      A                      A                      A
 Frequencies --    775.4994               800.9077               859.6049
 Red. masses --      1.8462                 3.9988                 1.6437
 Frc consts  --      0.6542                 1.5113                 0.7156
 IR Inten    --     55.3563                 0.9082                 0.2472

                     37                     38                     39
                      A                      A                      A
 Frequencies --    878.0396               928.2684               952.8125
 Red. masses --      6.3680                 1.3780                 8.3585
 Frc consts  --      2.8926                 0.6996                 4.4709
 IR Inten    --     17.5686                20.7044                 7.8515

                     40                     41                     42
                      A                      A                      A
 Frequencies --    981.1900               990.4891              1007.7082
 Red. masses --      1.3251                 1.2703                 3.8152
 Frc consts  --      0.7516                 0.7343                 2.2827
 IR Inten    --      4.1832                 2.4125                27.6906

                     43                     44                     45
                      A                      A                      A
 Frequencies --   1024.4124              1089.7435              1109.9317
 Red. masses --      2.0400                 4.3171                 2.2507
 Frc consts  --      1.2614                 3.0206                 1.6336
 IR Inten    --    154.9924               570.3369               208.2603

                     46                     47                     48
                      A                      A                      A
 Frequencies --   1127.3894              1140.3001              1177.7822
 Red. masses --      1.9095                 2.0261                 1.8591
 Frc consts  --      1.4299                 1.5522                 1.5194
 IR Inten    --    193.6485               161.9211                16.3653

                     49                     50                     51
                      A                      A                      A
 Frequencies --   1200.8179              1210.9547              1259.9743
 Red. masses --      1.9603                 2.2208                 3.2582
 Frc consts  --      1.6655                 1.9187                 3.0475
 IR Inten    --    244.7151               549.4331               152.2055

                     52                     53                     54
                      A                      A                      A
 Frequencies --   1295.0049              1301.8887              1344.1292
 Red. masses --      3.8030                 4.2929                 5.5520
 Frc consts  --      3.7576                 4.2869                 5.9100
 IR Inten    --    293.9831              1388.7592               823.6604

                     55                     56                     57
                      A                      A                      A
 Frequencies --   1357.1852              1419.6577              1444.1030
 Red. masses --      3.2144                 4.9064                 5.8321
 Frc consts  --      3.4884                 5.8261                 7.1660
 IR Inten    --   1255.7526               350.9167                 6.6118

                     58                     59                     60
                      A                      A                      A
 Frequencies --   1452.0534              1468.9775              1485.2622
 Red. masses --      4.4280                 3.0114                 4.3128
 Frc consts  --      5.5007                 3.8287                 5.6056
 IR Inten    --    439.9750                28.4181                 1.0938

                     61                     62                     63
                      A                      A                      A
 Frequencies --   1516.9971              1572.7782              1584.7129
 Red. masses --      5.4962                 7.8956                 5.0900
 Frc consts  --      7.4521                11.5072                 7.5312
 IR Inten    --     97.6699                44.6562                99.0609

                     64                     65                     66
                      A                      A                      A
 Frequencies --   1609.9954              1624.8649              3140.2152
 Red. masses --      5.2394                 1.2518                 1.0849
 Frc consts  --      8.0017                 1.9473                 6.3031
 IR Inten    --     11.1716               237.2346                26.3755

                     67                     68                     69
                      A                      A                      A
 Frequencies --   3155.9031              3175.9255              3180.4198
 Red. masses --      1.0896                 1.0914                 1.0925
 Frc consts  --      6.3939                 6.4858                 6.5110
 IR Inten    --     38.2467                42.1944                81.7449

                     70                     71                     72
                      A                      A                      A
 Frequencies --   3199.3156              3538.8089              3632.6373
 Red. masses --      1.0892                 1.0482                 1.0976
 Frc consts  --      6.5686                 7.7338                 8.5340
 IR Inten    --     17.2392                29.7951                63.4521

 - Thermochemistry -
 -------------------
 Temperature   298.150 Kelvin.  Pressure   1.00000 Atm.
 Atom     1 has atomic number  6 and mass  12.00000

 Molecular mass:   334.93487 amu.
 Principal axes and moments of inertia in atomic units:
                           1         2         3
     Eigenvalues --  3728.28162********************
           X            0.11337  -0.22149   0.96855
           Y            0.57587   0.80904   0.11761
           Z            0.80964  -0.54442  -0.21927
 This molecule is an asymmetric top.
 Rotational symmetry number  1.
 Warning -- assumption of classical behavior for rotation
           may cause significant error
 Rotational temperatures (Kelvin)      0.02323     0.00811     0.00603
 Rotational constants (GHZ):           0.48407     0.16896     0.12557
 Zero-point vibrational energy     451115.7 (Joules/Mol)
                                  107.81924 (Kcal/Mol)
 Warning -- explicit consideration of  25 degrees of freedom as
           vibrations may cause significant error
 Vibrational temperatures:     55.21    77.09   121.41   181.71   192.82
          (Kelvin)            213.78   272.18   276.78   312.39   382.91
                              405.51   443.10   460.39   472.20   498.08
                              530.13   539.61   590.47   643.28   685.75
                              713.53   723.84   778.86   793.26   872.40
                              905.65   948.98   982.16   994.80  1006.06
                             1031.71  1077.88  1101.39  1115.77  1152.33
                             1236.78  1263.30  1335.57  1370.88  1411.71
                             1425.09  1449.87  1473.90  1567.90  1596.94
                             1622.06  1640.64  1694.57  1727.71  1742.29
                             1812.82  1863.22  1873.13  1933.90  1952.69
                             2042.57  2077.74  2089.18  2113.53  2136.96
                             2182.62  2262.88  2280.05  2316.42  2337.82
                             4518.07  4540.64  4569.45  4575.91  4603.10
                             5091.56  5226.55

 Zero-point correction=                           0.171821 (Hartree/Particle)
 Thermal correction to Energy=                    0.187415
 Thermal correction to Enthalpy=                  0.188360
 Thermal correction to Gibbs Free Energy=         0.128006
 Sum of electronic and zero-point Energies=          -3777.554354
 Sum of electronic and thermal Energies=             -3777.538759
 Sum of electronic and thermal Enthalpies=           -3777.537815
 Sum of electronic and thermal Free Energies=        -3777.598168

                     E (Thermal)             CV                S
                      KCal/Mol        Cal/Mol-Kelvin    Cal/Mol-Kelvin
 Total                  117.605             60.701            127.024
 Electronic               0.000              0.000              0.000
 Translational            0.889              2.981             43.321
 Rotational               0.889              2.981             34.703
 Vibrational            115.827             54.740             49.001
 Vibration     1          0.594              1.982              5.341
 Vibration     2          0.596              1.976              4.681
 Vibration     3          0.601              1.960              3.786
 Vibration     4          0.611              1.927              3.002
 Vibration     5          0.613              1.919              2.888
 Vibration     6          0.618              1.904              2.690
 Vibration     7          0.633              1.855              2.236
 Vibration     8          0.634              1.850              2.205
 Vibration     9          0.646              1.815              1.983
 Vibration    10          0.672              1.735              1.621
 Vibration    11          0.681              1.707              1.522
 Vibration    12          0.698              1.659              1.373
 Vibration    13          0.706              1.635              1.310
 Vibration    14          0.711              1.619              1.269
 Vibration    15          0.724              1.583              1.184
 Vibration    16          0.741              1.537              1.086
 Vibration    17          0.746              1.523              1.059
 Vibration    18          0.775              1.448              0.925
 Vibration    19          0.806              1.367              0.805
 Vibration    20          0.833              1.302              0.719
 Vibration    21          0.851              1.259              0.668
 Vibration    22          0.858              1.243              0.650
 Vibration    23          0.896              1.159              0.562
 Vibration    24          0.907              1.137              0.541
 Vibration    25          0.965              1.018              0.439

                           ! Non-Optimized Parameters !
 Normal termination of Gaussian 16 at Sat Feb 10 20:08:28 2024.
