 Gaussian 16, Revision A.03,
 Gaussian 16:  ES64L-G16RevA.03 25-Dec-2016

 --------------------------------------
 #P UB3LYP/6-311++G(d,p) nosym opt freq
 --------------------------------------

 -------
 Reduced
 -------
 Symbolic Z-matrix:
 Charge = -2 Multiplicity = 1

 SCF Done:  E(UB3LYP) =  -685.664236418     A.U. after   40 cycles
 SCF Done:  E(UB3LYP) =  -685.719650797     A.U. after   25 cycles
 SCF Done:  E(UB3LYP) =  -685.764152474     A.U. after   17 cycles
 SCF Done:  E(UB3LYP) =  -685.774678906     A.U. after   17 cycles
 SCF Done:  E(UB3LYP) =  -685.779249063     A.U. after   17 cycles
 SCF Done:  E(UB3LYP) =  -685.779934327     A.U. after   16 cycles
 SCF Done:  E(UB3LYP) =  -685.781646938     A.U. after   14 cycles
 SCF Done:  E(UB3LYP) =  -685.781841488     A.U. after   14 cycles
 SCF Done:  E(UB3LYP) =  -685.781774921     A.U. after   14 cycles
 SCF Done:  E(UB3LYP) =  -685.781729774     A.U. after   14 cycles
 SCF Done:  E(UB3LYP) =  -685.781568086     A.U. after   14 cycles
 SCF Done:  E(UB3LYP) =  -685.781863939     A.U. after   10 cycles
 SCF Done:  E(UB3LYP) =  -685.781997272     A.U. after   13 cycles
 SCF Done:  E(UB3LYP) =  -685.781997077     A.U. after   12 cycles
 SCF Done:  E(UB3LYP) =  -685.781992102     A.U. after   12 cycles
 SCF Done:  E(UB3LYP) =  -685.782003335     A.U. after   12 cycles
 Optimization completed.
    -- Stationary point found.
 Normal termination of Gaussian 16 at Thu Dec 28 20:28:14 2023.

 ----------------------------------------------------------------------
 #P Geom=AllCheck Guess=TCheck SCRF=Check GenChk UB3LYP/6-311++G(d,p) F
 req
 ----------------------------------------------------------------------

 Structure from the checkpoint file:  "310-an.chk"
 -------
 Reduced
 -------
 Charge = -2 Multiplicity = 1

                          Input orientation:
 ---------------------------------------------------------------------
 Center     Atomic      Atomic             Coordinates (Angstroms)
 Number     Number       Type             X           Y           Z
 ---------------------------------------------------------------------
      1          8           0       -2.187535   -2.096816    0.207419
      2          6           0       -1.675562   -0.837444    0.100015
      3          6           0       -2.499402    0.271291    0.032664
      4          6           0       -1.953774    1.580429   -0.079372
      5          6           0       -0.585744    1.777551   -0.123786
      6          8           0       -0.052202    3.028394   -0.231089
      7          6           0        0.301315    0.648912   -0.056203
      8          6           0        1.733723    0.862844   -0.103181
      9          8           0        2.222827    2.095641   -0.208037
     10          6           0        2.528403   -0.286719   -0.032036
     11          6           0        1.984966   -1.590417    0.079505
     12          6           0        0.608448   -1.836590    0.127766
     13          8           0        0.076758   -3.051950    0.232255
     14          6           0       -0.248636   -0.670556    0.056740
     15          1           0       -1.316137   -2.697976    0.234780
     16          1           0       -3.576585    0.123684    0.066996
     17          1           0       -2.607840    2.448004   -0.131872
     18          1           0        0.987462    2.835179   -0.238417
     19          1           0        3.609132   -0.151730   -0.065434
     20          1           0        2.650383   -2.451729    0.131287
 ---------------------------------------------------------------------

 SCF Done:  E(UB3LYP) =  -685.782003335     A.U. after    1 cycles

 Alpha  occ. eigenvalues --  -18.83687 -18.83662 -18.78161 -18.78143  -9.94668
 Alpha  occ. eigenvalues --   -9.94666  -9.92741  -9.92739  -9.89484  -9.89440
 Alpha  occ. eigenvalues --   -9.89332  -9.89291  -9.87834  -9.87788  -0.75347
 Alpha  occ. eigenvalues --   -0.75172  -0.68240  -0.67988  -0.56616  -0.51731
 Alpha  occ. eigenvalues --   -0.45825  -0.44927  -0.39809  -0.34841  -0.32940
 Alpha  occ. eigenvalues --   -0.29100  -0.23531  -0.22217  -0.21890  -0.21087
 Alpha  occ. eigenvalues --   -0.18444  -0.14465  -0.14316  -0.14036  -0.12831
 Alpha  occ. eigenvalues --   -0.11622  -0.10632  -0.10111  -0.09482  -0.08629
 Alpha  occ. eigenvalues --   -0.07681  -0.05633  -0.05598  -0.01898   0.02153
 Alpha  occ. eigenvalues --    0.03207   0.03643   0.04479   0.07130   0.13132
 Alpha virt. eigenvalues --    0.18303   0.19148   0.20184   0.21026   0.22762
 Alpha virt. eigenvalues --    0.23888   0.25195   0.25970   0.27174   0.27786
 Alpha virt. eigenvalues --    0.28784   0.29732   0.30054   0.30214   0.30613

  Beta  occ. eigenvalues --  -18.83687 -18.83662 -18.78161 -18.78143  -9.94668
  Beta  occ. eigenvalues --   -9.94666  -9.92741  -9.92739  -9.89484  -9.89440
  Beta  occ. eigenvalues --   -9.89332  -9.89291  -9.87834  -9.87788  -0.75347
  Beta  occ. eigenvalues --   -0.75172  -0.68240  -0.67988  -0.56616  -0.51731
  Beta  occ. eigenvalues --   -0.45825  -0.44927  -0.39809  -0.34841  -0.32940
  Beta  occ. eigenvalues --   -0.29100  -0.23531  -0.22217  -0.21890  -0.21087
  Beta  occ. eigenvalues --   -0.18444  -0.14465  -0.14316  -0.14036  -0.12831
  Beta  occ. eigenvalues --   -0.11622  -0.10632  -0.10111  -0.09482  -0.08629
  Beta  occ. eigenvalues --   -0.07681  -0.05633  -0.05598  -0.01898   0.02153
  Beta  occ. eigenvalues --    0.03207   0.03643   0.04479   0.07130   0.13132
  Beta virt. eigenvalues --    0.18303   0.19148   0.20184   0.21026   0.22762
  Beta virt. eigenvalues --    0.23888   0.25195   0.25970   0.27174   0.27786
  Beta virt. eigenvalues --    0.28784   0.29732   0.30054   0.30214   0.30613

 Mulliken charges and spin densities:
               1          2
     1  O   -0.486068   0.000000
     2  C   -0.361988   0.000000
     3  C    0.126353  -0.000000
     4  C    0.127092   0.000000
     5  C   -0.361719  -0.000000
     6  O   -0.485128   0.000000
     7  C    0.298957  -0.000000
     8  C   -0.535179   0.000000
     9  O   -0.615099  -0.000000
    10  C    0.056916   0.000000
    11  C    0.057369  -0.000000
    12  C   -0.532471   0.000000
    13  O   -0.615124  -0.000000
    14  C    0.297519   0.000000
    15  H    0.371681  -0.000000
    16  H    0.078374   0.000000
    17  H    0.078441   0.000000
    18  H    0.370997  -0.000000
    19  H    0.064520  -0.000000
    20  H    0.064557  -0.000000
 Sum of Mulliken charges =  -2.00000  -0.00000

 Dipole moment (field-independent basis, Debye):
    X=             -2.0706    Y=              0.8608    Z=             -0.0218  Tot=              2.2425
 Quadrupole moment (field-independent basis, Debye-Ang):
   XX=           -124.8255   YY=           -148.5854   ZZ=            -92.1086
   XY=            -12.0494   XZ=              1.6305   YZ=              4.6162

  Exact polarizability: 224.549 -13.796 196.820  -1.817  -7.901  90.548
 Approx polarizability: 376.707 -19.853 336.717  -3.626 -14.979 136.985

                      1                      2                      3
                      A                      A                      A
 Frequencies --    102.7493               126.9622               142.1893
 Red. masses --     12.5508                 5.6417                 9.3463
 Frc consts  --      0.0781                 0.0536                 0.1113
 IR Inten    --      0.0001                 2.7977                 0.1186

                      4                      5                      6
                      A                      A                      A
 Frequencies --    202.5731               298.7875               361.2087
 Red. masses --      6.2170                 5.4337                 6.8651
 Frc consts  --      0.1503                 0.2858                 0.5277
 IR Inten    --      0.1561                 0.0876                 0.0000

                      7                      8                      9
                      A                      A                      A
 Frequencies --    371.2454               376.9237               409.2848
 Red. masses --      9.1796                 5.3605                10.9865
 Frc consts  --      0.7454                 0.4487                 1.0843
 IR Inten    --      0.0004               149.1369                 0.8094

                     10                     11                     12
                      A                      A                      A
 Frequencies --    428.9741               454.3801               460.2677
 Red. masses --     11.9429                 3.8934                 9.5956
 Frc consts  --      1.2949                 0.4736                 1.1977
 IR Inten    --     14.0510                 0.0000                 0.8382

                     13                     14                     15
                      A                      A                      A
 Frequencies --    490.1270               524.2297               527.8851
 Red. masses --     11.2268                 5.3289                 2.6993
 Frc consts  --      1.5890                 0.8628                 0.4432
 IR Inten    --      2.7425                 3.5558                 0.0318

                     16                     17                     18
                      A                      A                      A
 Frequencies --    631.3285               633.7946               647.2260
 Red. masses --      7.7656                 3.7366                 3.9872
 Frc consts  --      1.8236                 0.8844                 0.9841
 IR Inten    --     12.6952                 0.0002                26.5268

                     19                     20                     21
                      A                      A                      A
 Frequencies --    676.6958               741.4921               753.4848
 Red. masses --      2.1198                 7.4315                 6.0495
 Frc consts  --      0.5719                 2.4074                 2.0236
 IR Inten    --     59.9136                 0.0724                 0.0004

                     22                     23                     24
                      A                      A                      A
 Frequencies --    756.1200               761.9416               794.6382
 Red. masses --      6.3944                 1.7260                 2.3279
 Frc consts  --      2.1539                 0.5904                 0.8661
 IR Inten    --     92.7094                10.8472                56.5484

                     25                     26                     27
                      A                      A                      A
 Frequencies --    795.2205               831.0612               930.9246
 Red. masses --      1.3750                 1.4086                 7.7386
 Frc consts  --      0.5123                 0.5732                 3.9513
 IR Inten    --      0.0561                 0.0001               174.3938

                     28                     29                     30
                      A                      A                      A
 Frequencies --    950.5007              1068.1979              1112.9237
 Red. masses --      4.5739                 1.4083                 1.0472
 Frc consts  --      2.4347                 0.9468                 0.7642
 IR Inten    --     52.8327                 1.5471                68.7958

                     31                     32                     33
                      A                      A                      A
 Frequencies --   1116.7607              1128.2657              1144.0235
 Red. masses --      1.0471                 1.4558                 3.0105
 Frc consts  --      0.7694                 1.0919                 2.3214
 IR Inten    --     56.9855                46.6837                 1.4968

                     34                     35                     36
                      A                      A                      A
 Frequencies --   1180.0505              1207.9300              1252.9138
 Red. masses --      3.2629                 7.9549                 4.8140
 Frc consts  --      2.6770                 6.8386                 4.4524
 IR Inten    --     98.7654               198.4873                 1.8661

                     37                     38                     39
                      A                      A                      A
 Frequencies --   1263.2198              1279.8761              1332.8303
 Red. masses --      1.5942                 7.1126                 3.4098
 Frc consts  --      1.4988                 6.8646                 3.5689
 IR Inten    --    279.3133                 6.7350                22.5625

                     40                     41                     42
                      A                      A                      A
 Frequencies --   1364.1268              1386.1874              1398.9467
 Red. masses --      8.1993                 2.2497                 7.8081
 Frc consts  --      8.9895                 2.5469                 9.0033
 IR Inten    --     21.3653                65.8719               442.1482

                     43                     44                     45
                      A                      A                      A
 Frequencies --   1463.3421              1531.1682              1576.4245
 Red. masses --      3.8986                 3.0290                 4.9500
 Frc consts  --      4.9187                 4.1841                 7.2478
 IR Inten    --     17.8262               570.5818                29.9887

                     46                     47                     48
                      A                      A                      A
 Frequencies --   1613.3873              1663.7927              1670.9701
 Red. masses --      3.9452                 1.8462                 1.7288
 Frc consts  --      6.0506                 3.0111                 2.8440
 IR Inten    --    117.6126                48.8259               413.8187

                     49                     50                     51
                      A                      A                      A
 Frequencies --   2173.8369              2206.0567              3086.1353
 Red. masses --      1.0965                 1.0936                 1.0835
 Frc consts  --      3.0528                 3.1359                 6.0803
 IR Inten    --    165.1855              1237.8161                72.1030

                     52                     53                     54
                      A                      A                      A
 Frequencies --   3109.8749              3111.9680              3132.8443
 Red. masses --      1.0844                 1.0912                 1.0920
 Frc consts  --      6.1790                 6.2262                 6.3144
 IR Inten    --     58.1420               144.1504                90.5016

 - Thermochemistry -
 -------------------
 Temperature   298.150 Kelvin.  Pressure   1.00000 Atm.
 Atom     1 has atomic number  8 and mass  15.99491

 Molecular mass:   190.02661 amu.
 Principal axes and moments of inertia in atomic units:
                           1         2         3
     Eigenvalues --  1785.582092355.388594140.97067
           X            0.38354   0.92328   0.02129
           Y            0.92016  -0.38400   0.07641
           Z           -0.07872   0.00971   0.99685
 This molecule is an asymmetric top.
 Rotational symmetry number  1.
 Warning -- assumption of classical behavior for rotation
           may cause significant error
 Rotational temperatures (Kelvin)      0.04851     0.03677     0.02092
 Rotational constants (GHZ):           1.01073     0.76622     0.43583
 Zero-point vibrational energy     351452.5 (Joules/Mol)
                                   83.99916 (Kcal/Mol)
 Warning -- explicit consideration of  15 degrees of freedom as
           vibrations may cause significant error
 Vibrational temperatures:    147.83   182.67   204.58   291.46   429.89
          (Kelvin)            519.70   534.14   542.31   588.87   617.20
                              653.75   662.22   705.18   754.25   759.51
                              908.34   911.89   931.21   973.61  1066.84
                             1084.10  1087.89  1096.26  1143.31  1144.14
                             1195.71  1339.39  1367.56  1536.90  1601.25
                             1606.77  1623.32  1645.99  1697.83  1737.94
                             1802.66  1817.49  1841.46  1917.65  1962.67
                             1994.41  2012.77  2105.42  2203.01  2268.12
                             2321.30  2393.83  2404.15  3127.67  3174.02
                             4440.26  4474.42  4477.43  4507.46

 Zero-point correction=                           0.133861 (Hartree/Particle)
 Thermal correction to Energy=                    0.143989
 Thermal correction to Enthalpy=                  0.144933
 Thermal correction to Gibbs Free Energy=         0.098382
 Sum of electronic and zero-point Energies=           -685.648142
 Sum of electronic and thermal Energies=              -685.638014
 Sum of electronic and thermal Enthalpies=            -685.637070
 Sum of electronic and thermal Free Energies=         -685.683622

                     E (Thermal)             CV                S
                      KCal/Mol        Cal/Mol-Kelvin    Cal/Mol-Kelvin
 Total                   90.355             41.620             97.976
 Electronic               0.000              0.000              0.000
 Translational            0.889              2.981             41.632
 Rotational               0.889              2.981             31.233
 Vibrational             88.577             35.658             25.112
 Vibration     1          0.605              1.947              3.401
 Vibration     2          0.611              1.926              2.992
 Vibration     3          0.616              1.911              2.774
 Vibration     4          0.639              1.836              2.110
 Vibration     5          0.692              1.676              1.424
 Vibration     6          0.735              1.552              1.117
 Vibration     7          0.743              1.531              1.075
 Vibration     8          0.747              1.519              1.051
 Vibration     9          0.774              1.450              0.929
 Vibration    10          0.790              1.407              0.862
 Vibration    11          0.813              1.351              0.783
 Vibration    12          0.818              1.338              0.765
 Vibration    13          0.846              1.272              0.683
 Vibration    14          0.879              1.196              0.600
 Vibration    15          0.883              1.188              0.592

                           ! Non-Optimized Parameters !
 Normal termination of Gaussian 16 at Thu Dec 28 20:44:15 2023.
