 Q-Chem 5.4, Q-Chem, Inc., Pleasanton, CA (2021)
 Q-Chem 5.4.0 for Intel X86 EM64T Linux

User input:
--------------------------------------------------------------
$molecule
-1 2
C                  0.7272750000      1.1554440000     -1.5000130000
C                 -0.6748540000      0.9011160000     -1.7756280000
C                 -1.4724310000      0.1767610000     -0.9330790000
C                 -0.9997780000     -0.3938880000      0.3222070000
C                  0.4060460000     -0.1524890000      0.5903700000
C                  1.2070120000      0.5601150000     -0.2589520000
O                  1.4355300000      1.8481060000     -2.2657370000
O                 -1.7270150000     -1.0206110000      1.1260020000
S                  2.9488190000      0.7257370000      0.1910910000
C                  3.2368070000      2.5058600000      0.3860650000
C                  3.5720730000      3.2785850000     -0.7232170000
C                  3.1507930000      3.0583940000      1.6620700000
C                  3.3998930000      4.4193980000      1.8290030000
C                  3.8222420000      4.6375400000     -0.5424160000
C                  3.7357970000      5.2073050000      0.7280330000
O                  3.8050980000      0.2486640000     -0.9014650000
O                  3.1076650000      0.1391480000      1.5357660000
H                  3.6083430000      2.8175030000     -1.7002450000
H                  2.9057020000      2.4216430000      2.5028830000
H                  4.0802790000      5.2521150000     -1.3978340000
H                  3.3370410000      4.8609150000      2.8176480000
H                  3.9286590000      6.2668590000      0.8601650000
S                 -3.1828620000     -0.0978800000     -1.4458820000
C                 -4.2082470000      0.6782360000     -0.1667660000
C                 -4.6584090000      1.9803870000     -0.3734080000
C                 -4.5573670000     -0.0428190000      0.9726470000
C                 -5.3741450000      0.5633450000      1.9252580000
C                 -5.4718150000      2.5765290000      0.5884920000
C                 -5.8294110000      1.8683240000      1.7358020000
H                 -1.0768190000      1.3170370000     -2.6915980000
H                  0.8066530000     -0.5636650000      1.5090700000
H                 -4.3813600000      2.5022410000     -1.2808300000
H                 -4.1712750000     -1.0435140000      1.1068820000
H                 -5.6504220000      0.0151960000      2.8192550000
H                 -5.8293100000      3.5894360000      0.4384070000
H                 -6.4621620000      2.3346600000      2.4837770000
O                 -3.4873530000     -1.5337340000     -1.4563590000
O                 -3.3998820000      0.6905740000     -2.6741540000
$end

$rem
BASIS  =  6-311++G(d,p)
GUI  =  2
JOB_TYPE  =  SP
METHOD  =  B3LYP
SCF_CONVERGENCE  = 8
SOLVENT_METHOD = sm12
$end

$smx
solvent dimethylformamide
charges CM5
$end

--------------------------------------------------------------

             Standard Nuclear Orientation (Angstroms)
    I     Atom           X                Y                Z
 ----------------------------------------------------------------
    1      C       0.7272750000     1.1554440000    -1.5000130000
    2      C      -0.6748540000     0.9011160000    -1.7756280000
    3      C      -1.4724310000     0.1767610000    -0.9330790000
    4      C      -0.9997780000    -0.3938880000     0.3222070000
    5      C       0.4060460000    -0.1524890000     0.5903700000
    6      C       1.2070120000     0.5601150000    -0.2589520000
    7      O       1.4355300000     1.8481060000    -2.2657370000
    8      O      -1.7270150000    -1.0206110000     1.1260020000
    9      S       2.9488190000     0.7257370000     0.1910910000
   10      C       3.2368070000     2.5058600000     0.3860650000
   11      C       3.5720730000     3.2785850000    -0.7232170000
   12      C       3.1507930000     3.0583940000     1.6620700000
   13      C       3.3998930000     4.4193980000     1.8290030000
   14      C       3.8222420000     4.6375400000    -0.5424160000
   15      C       3.7357970000     5.2073050000     0.7280330000
   16      O       3.8050980000     0.2486640000    -0.9014650000
   17      O       3.1076650000     0.1391480000     1.5357660000
   18      H       3.6083430000     2.8175030000    -1.7002450000
   19      H       2.9057020000     2.4216430000     2.5028830000
   20      H       4.0802790000     5.2521150000    -1.3978340000
   21      H       3.3370410000     4.8609150000     2.8176480000
   22      H       3.9286590000     6.2668590000     0.8601650000
   23      S      -3.1828620000    -0.0978800000    -1.4458820000
   24      C      -4.2082470000     0.6782360000    -0.1667660000
   25      C      -4.6584090000     1.9803870000    -0.3734080000
   26      C      -4.5573670000    -0.0428190000     0.9726470000
   27      C      -5.3741450000     0.5633450000     1.9252580000
   28      C      -5.4718150000     2.5765290000     0.5884920000
   29      C      -5.8294110000     1.8683240000     1.7358020000
   30      H      -1.0768190000     1.3170370000    -2.6915980000
   31      H       0.8066530000    -0.5636650000     1.5090700000
   32      H      -4.3813600000     2.5022410000    -1.2808300000
   33      H      -4.1712750000    -1.0435140000     1.1068820000
   34      H      -5.6504220000     0.0151960000     2.8192550000
   35      H      -5.8293100000     3.5894360000     0.4384070000
   36      H      -6.4621620000     2.3346600000     2.4837770000
   37      O      -3.4873530000    -1.5337340000    -1.4563590000
   38      O      -3.3998820000     0.6905740000    -2.6741540000
 ----------------------------------------------------------------

   17   -1941.1552478088      5.61e-09  Convergence criterion met
 Total energy in the final basis set =    -1941.2480963321

                    Orbital Energies (a.u.)
 --------------------------------------------------------------

 Alpha MOs
 -- Occupied --
-89.0527 -89.0527 -19.1170 -19.1169 -19.1169 -19.1168 -19.0984 -19.0984
-10.2512 -10.2512 -10.2160 -10.2159 -10.2152 -10.2152 -10.1985 -10.1985
-10.1980 -10.1979 -10.1945 -10.1944 -10.1935 -10.1933 -10.1918 -10.1917
-10.1906 -10.1905  -8.1165  -8.1165  -6.0792  -6.0792  -6.0782  -6.0782
 -6.0776  -6.0776  -1.1103  -1.1102  -1.0268  -1.0246  -1.0060  -1.0059
 -0.8798  -0.8797  -0.8606  -0.8046  -0.7833  -0.7762  -0.7672  -0.7671
 -0.7220  -0.7078  -0.6666  -0.6322  -0.6264  -0.6259  -0.6187  -0.6001
 -0.5748  -0.5485  -0.5385  -0.5122  -0.5075  -0.5073  -0.4861  -0.4818
 -0.4796  -0.4773  -0.4616  -0.4593  -0.4567  -0.4520  -0.4483  -0.4424
 -0.4421  -0.4339  -0.4297  -0.4257  -0.4016  -0.3974  -0.3885  -0.3876
 -0.3836  -0.3828  -0.3642  -0.3640  -0.3428  -0.3412  -0.3284  -0.3283
 -0.3168  -0.3145  -0.3071  -0.3065  -0.3029  -0.2957  -0.2793  -0.2751
 -0.2737  -0.2737  -0.2613  -0.2530  -0.1883

 Beta MOs
 -- Occupied --
-89.0527 -89.0527 -19.1169 -19.1169 -19.1169 -19.1169 -19.0909 -19.0908
-10.2506 -10.2506 -10.2160 -10.2159 -10.2146 -10.2145 -10.1980 -10.1979
-10.1965 -10.1965 -10.1945 -10.1944 -10.1934 -10.1933 -10.1918 -10.1917
-10.1906 -10.1905  -8.1165  -8.1165  -6.0792  -6.0792  -6.0782  -6.0782
 -6.0777  -6.0776  -1.1102  -1.1102  -1.0143  -1.0121  -1.0058  -1.0054
 -0.8797  -0.8796  -0.8547  -0.8027  -0.7831  -0.7754  -0.7671  -0.7670
 -0.7133  -0.7063  -0.6646  -0.6310  -0.6264  -0.6258  -0.6147  -0.5996
 -0.5738  -0.5480  -0.5372  -0.5105  -0.5067  -0.5046  -0.4857  -0.4816
 -0.4795  -0.4772  -0.4601  -0.4591  -0.4555  -0.4511  -0.4481  -0.4420
 -0.4419  -0.4268  -0.4188  -0.4174  -0.3943  -0.3924  -0.3873  -0.3837
 -0.3821  -0.3688  -0.3641  -0.3638  -0.3422  -0.3404  -0.3278  -0.3274
 -0.3145  -0.3109  -0.3059  -0.3025  -0.2916  -0.2817  -0.2760  -0.2743
 -0.2710  -0.2691  -0.2550  -0.2472

          Ground-State Mulliken Net Atomic Charges

     Atom                 Charge (a.u.)    Spin (a.u.)
  --------------------------------------------------------
      1 C                    -0.845801       0.030517
      2 C                    -0.455996       0.118922
      3 C                     0.216978       0.092546
      4 C                    -0.838680       0.030589
      5 C                    -0.455427       0.119095
      6 C                     0.221002       0.092282
      7 O                    -0.262484       0.279252
      8 O                    -0.263004       0.279367
      9 S                    -0.121530      -0.031927
     10 C                    -1.231867       0.001481
     11 C                    -1.125092       0.020614
     12 C                     0.151136       0.000289
     13 C                     0.449853      -0.000948
     14 C                     0.297647      -0.002993
     15 C                     0.966397       0.001580
     16 O                    -0.137701       0.005945
     17 O                    -0.156059      -0.002781
     18 H                     0.174945      -0.001350
     19 H                     0.267851       0.000691
     20 H                     0.323185       0.000029
     21 H                     0.345955       0.000024
     22 H                     0.381755      -0.000081
     23 S                    -0.109982      -0.031861
     24 C                    -1.229576       0.001542
     25 C                     0.145408       0.000270
     26 C                    -1.123263       0.020623
     27 C                     0.296077      -0.003061
     28 C                     0.452539      -0.000946
     29 C                     0.966182       0.001592
     30 H                     0.251057      -0.011875
     31 H                     0.250980      -0.011883
     32 H                     0.268159       0.000703
     33 H                     0.174988      -0.001356
     34 H                     0.323269       0.000030
     35 H                     0.346022       0.000024
     36 H                     0.381805      -0.000081
     37 O                    -0.139467       0.005922
     38 O                    -0.157261      -0.002783
  --------------------------------------------------------
  Sum of atomic charges =    -1.000000

                    Cartesian Multipole Moments
 -----------------------------------------------------------------
    Charge (ESU x 10^10)
                -4.8032
    Dipole Moment (Debye)
         X      -1.2689      Y       4.8245      Z       6.6675
       Tot       8.3271
    Quadrupole Moments (Debye-Ang)
        XX    -208.2312     XY      -7.8616     YY    -157.2565
        XZ     -16.1646     YZ       9.4575     ZZ    -186.6613

 Total job time:  1777.79s(wall), 13649.44s(cpu)
        *  Thank you very much for using Q-Chem.  Have a nice day.  *
