 Gaussian 16, Revision A.03,
 Gaussian 16:  ES64L-G16RevA.03 25-Dec-2016

 --------------------------------------
 #P UB3LYP/6-311++G(d,p) nosym opt freq
 --------------------------------------

 -------
 Radical
 -------
 Symbolic Z-matrix:
 Charge = -1 Multiplicity = 2

 SCF Done:  E(UB3LYP) =  -696.187173709     A.U. after   22 cycles
 SCF Done:  E(UB3LYP) =  -696.216943197     A.U. after   16 cycles
 SCF Done:  E(UB3LYP) =  -696.224137345     A.U. after   16 cycles
 SCF Done:  E(UB3LYP) =  -696.227417479     A.U. after   16 cycles
 SCF Done:  E(UB3LYP) =  -696.230205948     A.U. after   15 cycles
 SCF Done:  E(UB3LYP) =  -696.232219290     A.U. after   16 cycles
 SCF Done:  E(UB3LYP) =  -696.233108964     A.U. after   15 cycles
 SCF Done:  E(UB3LYP) =  -696.233233155     A.U. after   14 cycles
 SCF Done:  E(UB3LYP) =  -696.233321883     A.U. after   14 cycles
 SCF Done:  E(UB3LYP) =  -696.233420189     A.U. after   14 cycles
 SCF Done:  E(UB3LYP) =  -696.233424973     A.U. after   12 cycles
 SCF Done:  E(UB3LYP) =  -696.233425136     A.U. after   10 cycles
 SCF Done:  E(UB3LYP) =  -696.233425487     A.U. after   10 cycles
 Optimization completed.
    -- Stationary point found.
 Normal termination of Gaussian 16 at Sun Dec 17 22:57:48 2023.

 ----------------------------------------------------------------------
 #P Geom=AllCheck Guess=TCheck SCRF=Check GenChk UB3LYP/6-311++G(d,p) F
 req
 ----------------------------------------------------------------------

 Structure from the checkpoint file:  "046-rad.chk"
 -------
 Radical
 -------
 Charge = -1 Multiplicity = 2

                          Input orientation:
 ---------------------------------------------------------------------
 Center     Atomic      Atomic             Coordinates (Angstroms)
 Number     Number       Type             X           Y           Z
 ---------------------------------------------------------------------
      1          6           0        2.621438   -0.338284   -1.937451
      2          6           0        2.591480   -0.005317   -0.425627
      3          6           0        2.803282    1.515777   -0.228499
      4          6           0        3.785560   -0.726927    0.229902
      5          6           0        1.240482   -0.434317    0.183808
      6          6           0        1.173433   -1.359825    1.196700
      7          6           0       -0.063360   -1.794424    1.800054
      8          8           0       -0.093501   -2.650050    2.733355
      9          6           0       -1.263537   -1.191344    1.272332
     10          6           0       -1.265041   -0.261002    0.261633
     11          6           0        0.005881    0.166109   -0.337462
     12          8           0        0.036278    1.024908   -1.273491
     13          6           0       -2.579178    0.352867   -0.264786
     14          6           0       -2.748722    0.033238   -1.770256
     15          6           0       -3.818517   -0.199179    0.466958
     16          6           0       -2.566356    1.887835   -0.062044
     17          1           0        3.580869   -0.032258   -2.374002
     18          1           0        2.508476   -1.416548   -2.092393
     19          1           0        1.813254    0.175759   -2.456043
     20          1           0        1.999255    2.076233   -0.703692
     21          1           0        3.762556    1.824507   -0.663525
     22          1           0        2.821091    1.762866    0.838288
     23          1           0        3.726352   -1.811939    0.103938
     24          1           0        3.854088   -0.513823    1.300633
     25          1           0        4.714891   -0.385706   -0.239397
     26          1           0        2.064638   -1.821969    1.604330
     27          1           0       -2.182890   -1.528337    1.736165
     28          1           0       -3.681555    0.471272   -2.148112
     29          1           0       -2.796357   -1.049641   -1.926812
     30          1           0       -1.910784    0.432293   -2.340282
     31          1           0       -3.790412    0.017640    1.538763
     32          1           0       -4.719137    0.268798    0.054384
     33          1           0       -3.917681   -1.281482    0.343146
     34          1           0       -3.499447    2.327566   -0.437211
     35          1           0       -2.482490    2.130809    1.002551
     36          1           0       -1.724342    2.333894   -0.589652
 ---------------------------------------------------------------------

 SCF Done:  E(UB3LYP) =  -696.233425487     A.U. after    1 cycles

 Alpha  occ. eigenvalues --  -18.93542 -18.93353 -10.08549 -10.07656 -10.06934
 Alpha  occ. eigenvalues --  -10.06933 -10.04746 -10.04746 -10.04058 -10.04056
 Alpha  occ. eigenvalues --  -10.03616 -10.03614 -10.03614 -10.03612 -10.02439
 Alpha  occ. eigenvalues --  -10.02438  -0.86074  -0.85205  -0.71184  -0.70498
 Alpha  occ. eigenvalues --   -0.66296  -0.60018  -0.57213  -0.57209  -0.56566
 Alpha  occ. eigenvalues --   -0.56527  -0.54115  -0.48334  -0.45910  -0.40629
 Alpha  occ. eigenvalues --   -0.40192  -0.35220  -0.34652  -0.33866  -0.32532
 Alpha  occ. eigenvalues --   -0.32370  -0.32227  -0.31475  -0.30051  -0.29182
 Alpha  occ. eigenvalues --   -0.27425  -0.27094  -0.26590  -0.26564  -0.25567
 Alpha  occ. eigenvalues --   -0.24951  -0.24942  -0.24854  -0.23848  -0.22475
 Alpha  occ. eigenvalues --   -0.21704  -0.21653  -0.21199  -0.21071  -0.20400
 Alpha  occ. eigenvalues --   -0.20242  -0.13908  -0.11804  -0.09887  -0.09344
 Alpha  occ. eigenvalues --   -0.02248
 Alpha virt. eigenvalues --    0.08025   0.08272   0.10134   0.10261   0.10566
 Alpha virt. eigenvalues --    0.10813   0.10841   0.12136   0.12227   0.12734
 Alpha virt. eigenvalues --    0.12919   0.13584   0.13765   0.13950   0.14252

  Beta  occ. eigenvalues --  -18.92875 -18.92586 -10.08377 -10.07574 -10.06940
  Beta  occ. eigenvalues --  -10.06939 -10.04747 -10.04746 -10.03970 -10.03968
  Beta  occ. eigenvalues --  -10.03611 -10.03609 -10.03608 -10.03607 -10.02308
  Beta  occ. eigenvalues --  -10.02307  -0.84905  -0.83871  -0.70916  -0.70446
  Beta  occ. eigenvalues --   -0.65887  -0.59782  -0.57196  -0.57150  -0.56546
  Beta  occ. eigenvalues --   -0.56511  -0.53174  -0.48035  -0.45639  -0.40368
  Beta  occ. eigenvalues --   -0.40056  -0.35080  -0.34457  -0.33832  -0.32308
  Beta  occ. eigenvalues --   -0.32205  -0.32173  -0.31450  -0.29986  -0.28532
  Beta  occ. eigenvalues --   -0.27403  -0.27074  -0.26518  -0.25889  -0.25236
  Beta  occ. eigenvalues --   -0.24847  -0.24556  -0.23733  -0.23659  -0.21657
  Beta  occ. eigenvalues --   -0.21486  -0.21371  -0.21140  -0.20251  -0.20129
  Beta  occ. eigenvalues --   -0.19355  -0.11018  -0.10514  -0.09253  -0.08691
  Beta virt. eigenvalues --    0.05018   0.08027   0.08272   0.10155   0.10264
  Beta virt. eigenvalues --    0.10568   0.10847   0.10869   0.12134   0.12750
  Beta virt. eigenvalues --    0.12813   0.12924   0.13602   0.13766   0.13959

 Mulliken charges and spin densities:
               1          2
     1  C   -0.712777   0.008227
     2  C    0.835328  -0.027324
     3  C   -0.713127   0.008233
     4  C   -0.483272   0.001709
     5  C    0.700593   0.062775
     6  C   -0.258893   0.093396
     7  C   -0.943576   0.073222
     8  O   -0.401629   0.273814
     9  C   -0.258975   0.093393
    10  C    0.701065   0.062845
    11  C   -0.823502   0.132955
    12  O   -0.342546   0.245474
    13  C    0.835034  -0.027316
    14  C   -0.712858   0.008242
    15  C   -0.483002   0.001708
    16  C   -0.712946   0.008222
    17  H    0.114251   0.000383
    18  H    0.119582   0.000908
    19  H    0.188697  -0.001390
    20  H    0.188776  -0.001389
    21  H    0.114209   0.000388
    22  H    0.119575   0.000898
    23  H    0.119436  -0.000607
    24  H    0.119383  -0.000605
    25  H    0.139111   0.000081
    26  H    0.164560  -0.008455
    27  H    0.164547  -0.008457
    28  H    0.114220   0.000386
    29  H    0.119564   0.000902
    30  H    0.188772  -0.001393
    31  H    0.119418  -0.000605
    32  H    0.139092   0.000081
    33  H    0.119371  -0.000606
    34  H    0.114235   0.000384
    35  H    0.119619   0.000904
    36  H    0.188666  -0.001381
 Sum of Mulliken charges =  -1.00000   1.00000

 Dipole moment (field-independent basis, Debye):
    X=              0.1324    Y=              3.7519    Z=             -3.3410  Tot=              5.0256
 Quadrupole moment (field-independent basis, Debye-Ang):
   XX=           -117.6903   YY=           -126.8156   ZZ=           -129.2018
   XY=              0.0148   XZ=              1.0180   YZ=             20.0876

  Exact polarizability: 221.772  -4.204 180.194  -3.973 -41.652 187.120
 Approx polarizability: 278.115  -1.672 294.676  -5.250 -90.134 310.047

                      1                      2                      3
                      A                      A                      A
 Frequencies --     43.3155                66.2844                84.5848
 Red. masses --      3.6131                 2.7435                 4.4057
 Frc consts  --      0.0040                 0.0071                 0.0186
 IR Inten    --      3.2339                 0.0017                 0.0444

                      4                      5                      6
                      A                      A                      A
 Frequencies --    152.2303               154.7724               172.4926
 Red. masses --      3.0204                 3.5861                 5.7014
 Frc consts  --      0.0412                 0.0506                 0.0999
 IR Inten    --      0.0007                 1.0984                 7.8259

                      7                      8                      9
                      A                      A                      A
 Frequencies --    229.3001               230.0558               236.6928
 Red. masses --      1.1139                 1.0763                 2.7256
 Frc consts  --      0.0345                 0.0336                 0.0900
 IR Inten    --      0.4380                 0.0137                 0.5162

                     10                     11                     12
                      A                      A                      A
 Frequencies --    259.2004               264.0041               274.7386
 Red. masses --      1.1975                 1.8294                 1.7215
 Frc consts  --      0.0474                 0.0751                 0.0766
 IR Inten    --      0.0590                 0.5319                 0.5642

                     13                     14                     15
                      A                      A                      A
 Frequencies --    284.9456               294.5072               300.3514
 Red. masses --      2.6993                 3.4679                 2.7304
 Frc consts  --      0.1291                 0.1772                 0.1451
 IR Inten    --      3.6253                 0.5277                 0.0006

                     16                     17                     18
                      A                      A                      A
 Frequencies --    313.8132               329.2801               331.4143
 Red. masses --      2.2710                 1.0480                 1.0480
 Frc consts  --      0.1318                 0.0669                 0.0678
 IR Inten    --      0.0123                 0.0756                 0.0015

                     19                     20                     21
                      A                      A                      A
 Frequencies --    362.0012               376.4846               393.9041
 Red. masses --      4.8198                 2.4873                 2.3001
 Frc consts  --      0.3721                 0.2077                 0.2103
 IR Inten    --     18.6648                 0.8446                 0.0000

                     22                     23                     24
                      A                      A                      A
 Frequencies --    400.8046               431.6742               453.2226
 Red. masses --      2.6195                 2.6231                 4.6628
 Frc consts  --      0.2479                 0.2880                 0.5643
 IR Inten    --      0.0055                 2.6849                 9.4289

                     25                     26                     27
                      A                      A                      A
 Frequencies --    454.8893               478.5251               517.6179
 Red. masses --      3.5893                 7.5192                 3.1089
 Frc consts  --      0.4376                 1.0144                 0.4908
 IR Inten    --      1.1074                 0.1562                 0.0480

                     28                     29                     30
                      A                      A                      A
 Frequencies --    559.6879               607.2316               659.7830
 Red. masses --      2.8979                 4.2777                 3.0652
 Frc consts  --      0.5348                 0.9293                 0.7862
 IR Inten    --      1.5284                 0.0000                 0.0000

                     31                     32                     33
                      A                      A                      A
 Frequencies --    671.6847               749.4465               801.2407
 Red. masses --      4.8370                 4.7687                 7.6951
 Frc consts  --      1.2858                 1.5781                 2.9107
 IR Inten    --      0.1715                 1.1853                 7.2297

                     34                     35                     36
                      A                      A                      A
 Frequencies --    808.1617               817.9203               871.8179
 Red. masses --      3.3031                 5.2029                 1.3796
 Frc consts  --      1.2711                 2.0508                 0.6178
 IR Inten    --      3.6494                25.1828                 0.0009

                     37                     38                     39
                      A                      A                      A
 Frequencies --    888.8936               892.3476               924.5899
 Red. masses --      2.6162                 1.7092                 1.7697
 Frc consts  --      1.2179                 0.8019                 0.8913
 IR Inten    --     19.0676                25.9852                 0.3201

                     40                     41                     42
                      A                      A                      A
 Frequencies --    925.0969               930.0006               932.2289
 Red. masses --      1.7702                 1.7974                 1.7297
 Frc consts  --      0.8926                 0.9159                 0.8856
 IR Inten    --      0.2899                 0.2196                10.8350

                     43                     44                     45
                      A                      A                      A
 Frequencies --    955.9219               956.8125               962.2153
 Red. masses --      1.2039                 1.2036                 3.3234
 Frc consts  --      0.6481                 0.6492                 1.8129
 IR Inten    --      0.1575                 0.3464                 2.3595

                     46                     47                     48
                      A                      A                      A
 Frequencies --   1042.0425              1043.0750              1047.3282
 Red. masses --      1.5239                 1.3860                 1.3751
 Frc consts  --      0.9750                 0.8885                 0.8887
 IR Inten    --     11.3022                 3.6102                 0.0181

                     49                     50                     51
                      A                      A                      A
 Frequencies --   1047.8798              1095.3619              1155.2718
 Red. masses --      1.3816                 2.2998                 3.6832
 Frc consts  --      0.8938                 1.6257                 2.8963
 IR Inten    --      0.0920                41.3749                 4.8552

                     52                     53                     54
                      A                      A                      A
 Frequencies --   1214.7350              1215.0506              1219.7615
 Red. masses --      2.6834                 2.6778                 2.5849
 Frc consts  --      2.3329                 2.3292                 2.2659
 IR Inten    --      0.8570                 7.8392                25.2966

                     55                     56                     57
                      A                      A                      A
 Frequencies --   1220.9255              1262.9470              1267.6323
 Red. masses --      2.3567                 2.3587                 2.4222
 Frc consts  --      2.0698                 2.2166                 2.2933
 IR Inten    --      0.7747                52.5198                 5.2494

                     58                     59                     60
                      A                      A                      A
 Frequencies --   1274.7917              1330.8025              1371.3063
 Red. masses --      1.8604                 2.1518                 1.2124
 Frc consts  --      1.7813                 2.2454                 1.3433
 IR Inten    --      4.9409                 4.1642                 1.1446

                     61                     62                     63
                      A                      A                      A
 Frequencies --   1371.7163              1378.1079              1379.7777
 Red. masses --      1.2125                 1.2403                 1.2625
 Frc consts  --      1.3442                 1.3879                 1.4161
 IR Inten    --     22.0469                 0.3199                52.3903

                     64                     65                     66
                      A                      A                      A
 Frequencies --   1407.3103              1408.8394              1413.2873
 Red. masses --      1.2646                 1.3607                 4.7122
 Frc consts  --      1.4757                 1.5913                 5.5455
 IR Inten    --     24.3636                13.5300                31.1756

                     67                     68                     69
                      A                      A                      A
 Frequencies --   1469.9683              1470.2715              1471.0173
 Red. masses --      1.0480                 1.0506                 2.2741
 Frc consts  --      1.3342                 1.3381                 2.8993
 IR Inten    --      0.1252                 0.8608                88.2202

                     70                     71                     72
                      A                      A                      A
 Frequencies --   1490.5218              1492.4264              1494.7362
 Red. masses --      1.0666                 1.5129                 1.0466
 Frc consts  --      1.3962                 1.9854                 1.3777
 IR Inten    --      0.1681                74.6857                 0.0067

                     73                     74                     75
                      A                      A                      A
 Frequencies --   1495.4145              1496.8135              1501.3691
 Red. masses --      1.0465                 1.0477                 1.5029
 Frc consts  --      1.3789                 1.3831                 1.9960
 IR Inten    --      2.6761                 1.0641                55.4353

                     76                     77                     78
                      A                      A                      A
 Frequencies --   1510.5525              1512.1218              1514.1307
 Red. masses --      1.0516                 1.0517                 2.1336
 Frc consts  --      1.4137                 1.4168                 2.8819
 IR Inten    --      0.0073                 5.7260               224.3898

                     79                     80                     81
                      A                      A                      A
 Frequencies --   1520.7304              1530.4699              1533.8106
 Red. masses --      3.2721                 1.1991                 1.1799
 Frc consts  --      4.4585                 1.6549                 1.6355
 IR Inten    --     17.9294                 6.7193                20.1592

                     82                     83                     84
                      A                      A                      A
 Frequencies --   1632.6690              2990.7703              2990.9577
 Red. masses --      6.5772                 1.0435                 1.0436
 Frc consts  --     10.3297                 5.4992                 5.5005
 IR Inten    --     20.3376                 6.1970                90.1777

                     85                     86                     87
                      A                      A                      A
 Frequencies --   2995.4569              2996.3476              3010.8554
 Red. masses --      1.0427                 1.0423                 1.0364
 Frc consts  --      5.5121                 5.5138                 5.5357
 IR Inten    --    113.2552                89.9943               197.4702

                     88                     89                     90
                      A                      A                      A
 Frequencies --   3011.5607              3050.3689              3050.8367
 Red. masses --      1.0365                 1.0961                 1.0960
 Frc consts  --      5.5388                 6.0092                 6.0104
 IR Inten    --      3.1241                 0.9717                66.4792

                     91                     92                     93
                      A                      A                      A
 Frequencies --   3052.7970              3053.1068              3066.2396
 Red. masses --      1.0960                 1.0961                 1.0990
 Frc consts  --      6.0183                 6.0199                 6.0879
 IR Inten    --     25.3842                26.0200                83.4842

                     94                     95                     96
                      A                      A                      A
 Frequencies --   3066.6787              3081.0262              3081.2555
 Red. masses --      1.0990                 1.1016                 1.1015
 Frc consts  --      6.0893                 6.1610                 6.1618
 IR Inten    --     93.2509                23.0780                63.4824

                     97                     98                     99
                      A                      A                      A
 Frequencies --   3123.6682              3124.0247              3125.9234
 Red. masses --      1.0967                 1.0966                 1.0960
 Frc consts  --      6.3046                 6.3054                 6.3100
 IR Inten    --      0.0428                 0.2356                 2.7279

                    100                    101                    102
                      A                      A                      A
 Frequencies --   3126.4797              3176.7090              3178.9816
 Red. masses --      1.0959                 1.0880                 1.0874
 Frc consts  --      6.3113                 6.4689                 6.4749
 IR Inten    --     21.2387                19.1039                15.1460

 - Thermochemistry -
 -------------------
 Temperature   298.150 Kelvin.  Pressure   1.00000 Atm.
 Atom     1 has atomic number  6 and mass  12.00000

 Molecular mass:   220.14633 amu.
 Principal axes and moments of inertia in atomic units:
                           1         2         3
     Eigenvalues --  2388.426904476.531946064.92005
           X            0.99713  -0.02395   0.07186
           Y           -0.06912  -0.67578   0.73386
           Z           -0.03098   0.73672   0.67549
 This molecule is an asymmetric top.
 Rotational symmetry number  1.
 Warning -- assumption of classical behavior for rotation
           may cause significant error
 Rotational temperatures (Kelvin)      0.03626     0.01935     0.01428
 Rotational constants (GHZ):           0.75562     0.40316     0.29757
 Zero-point vibrational energy     804280.5 (Joules/Mol)
                                  192.22766 (Kcal/Mol)
 Warning -- explicit consideration of  29 degrees of freedom as
           vibrations may cause significant error
 Vibrational temperatures:     62.32    95.37   121.70   219.03   222.68
          (Kelvin)            248.18   329.91   331.00   340.55   372.93
                              379.84   395.29   409.97   423.73   432.14
                              451.51   473.76   476.83   520.84   541.68
                              566.74   576.67   621.08   652.09   654.48
                              688.49   744.74   805.27   873.67   949.28
                              966.40  1078.29  1152.81  1162.76  1176.80
                             1254.35  1278.92  1283.89  1330.28  1331.01
                             1338.06  1341.27  1375.36  1376.64  1384.41
                             1499.27  1500.75  1506.87  1507.67  1575.98
                             1662.18  1747.73  1748.19  1754.96  1756.64
                             1817.10  1823.84  1834.14  1914.73  1973.00
                             1973.59  1982.79  1985.19  2024.81  2027.01
                             2033.41  2114.96  2115.39  2116.47  2144.53
                             2147.27  2150.59  2151.57  2153.58  2160.14
                             2173.35  2175.61  2178.50  2187.99  2202.00
                             2206.81  2349.05  4303.05  4303.32  4309.79
                             4311.08  4331.95  4332.96  4388.80  4389.47
                             4392.29  4392.74  4411.63  4412.27  4432.91
                             4433.24  4494.26  4494.77  4497.51  4498.31
                             4570.58  4573.85

 Zero-point correction=                           0.306334 (Hartree/Particle)
 Thermal correction to Energy=                    0.323228
 Thermal correction to Enthalpy=                  0.324172
 Thermal correction to Gibbs Free Energy=         0.263287
 Sum of electronic and zero-point Energies=           -695.927091
 Sum of electronic and thermal Energies=              -695.910198
 Sum of electronic and thermal Enthalpies=            -695.909253
 Sum of electronic and thermal Free Energies=         -695.970139

                     E (Thermal)             CV                S
                      KCal/Mol        Cal/Mol-Kelvin    Cal/Mol-Kelvin
 Total                  202.829             67.150            128.145
 Electronic               0.000              0.000              1.377
 Translational            0.889              2.981             42.070
 Rotational               0.889              2.981             32.539
 Vibrational            201.051             61.189             52.158
 Vibration     1          0.595              1.980              5.101
 Vibration     2          0.598              1.970              4.261
 Vibration     3          0.601              1.960              3.782
 Vibration     4          0.619              1.900              2.644
 Vibration     5          0.620              1.897              2.613
 Vibration     6          0.626              1.876              2.408
 Vibration     7          0.652              1.796              1.884
 Vibration     8          0.652              1.795              1.879
 Vibration     9          0.656              1.785              1.828
 Vibration    10          0.668              1.747              1.667
 Vibration    11          0.671              1.739              1.635
 Vibration    12          0.677              1.720              1.566
 Vibration    13          0.683              1.702              1.504
 Vibration    14          0.689              1.684              1.448
 Vibration    15          0.693              1.673              1.415
 Vibration    16          0.702              1.647              1.342
 Vibration    17          0.712              1.617              1.264
 Vibration    18          0.714              1.613              1.253
 Vibration    19          0.736              1.551              1.113
 Vibration    20          0.747              1.520              1.053
 Vibration    21          0.761              1.483              0.985
 Vibration    22          0.767              1.468              0.960
 Vibration    23          0.793              1.401              0.853
 Vibration    24          0.812              1.354              0.786
 Vibration    25          0.813              1.350              0.781
 Vibration    26          0.835              1.298              0.714
 Vibration    27          0.873              1.211              0.616
 Vibration    28          0.915              1.119              0.524
 Vibration    29          0.966              1.016              0.437

 Optimization completed.
    -- Stationary point found.
 Normal termination of Gaussian 16 at Mon Dec 18 00:26:39 2023.
