 Q-Chem 5.4, Q-Chem, Inc., Pleasanton, CA (2021)
 Q-Chem 5.4.0 for Intel X86 EM64T Linux

User input:
--------------------------------------------------------------
$molecule
-2 1
N                 -3.4330760000      1.6096380000      0.6423390000
C                 -2.8512930000      0.3416850000      0.3674620000
C                 -3.6698940000     -0.7664150000      0.3016760000
C                 -3.1407720000     -2.0562210000      0.0600430000
C                 -1.7816900000     -2.2618570000     -0.0540180000
N                 -1.3061570000     -3.5736720000     -0.3263120000
C                 -0.8652770000     -1.1436600000      0.0548150000
C                  0.5598050000     -1.3542440000      0.0400960000
O                  1.0644300000     -2.5749740000     -0.0182300000
C                  1.4208430000     -0.2003750000      0.0904120000
C                  2.8620250000     -0.3514930000      0.1382010000
N                  3.4585230000     -1.6333300000      0.2867760000
C                  3.6763830000      0.7605090000      0.0865970000
C                  3.1342060000      2.0621380000     -0.0311660000
C                  1.7709690000      2.2715230000     -0.0335970000
N                  1.2799520000      3.5972060000     -0.1854430000
C                  0.8621350000      1.1464620000      0.0677370000
C                 -0.5597350000      1.3542250000      0.1702040000
O                 -1.0641170000      2.5748610000      0.2301650000
C                 -1.4176900000      0.1974790000      0.2062670000
H                 -2.7125480000      2.3295590000      0.4656100000
H                 -4.2736130000      1.7531860000      0.0955320000
H                 -4.7408550000     -0.6377080000      0.4529200000
H                 -3.8117330000     -2.9068740000     -0.0522380000
H                 -1.7784790000     -4.2613130000      0.2482520000
H                 -0.2817770000     -3.5704410000     -0.1871570000
H                  4.2587470000     -1.7384590000     -0.3252940000
H                  2.7255640000     -2.3416440000      0.1142410000
H                  4.7551690000      0.6247670000      0.1515620000
H                  3.7973730000      2.9198660000     -0.1357380000
H                  0.2683860000      3.5823510000      0.0274020000
H                  1.7941980000      4.2472280000      0.3968930000
$end
$rem
MAX_SCF_CYCLES=200
BASIS  =  6-311++G(d,p)
GUI  =  2
JOB_TYPE  =  SP
METHOD  =  B3LYP
SOLVENT_METHOD = PCM
$end
$pcm
theory = CPCM
$end
$solvent
dielectric 37.219
opticaldielectric 1.43
$end

--------------------------------------------------------------

             Standard Nuclear Orientation (Angstroms)
    I     Atom           X                Y                Z
 ----------------------------------------------------------------
    1      N      -3.4330760000     1.6096380000     0.6423390000
    2      C      -2.8512930000     0.3416850000     0.3674620000
    3      C      -3.6698940000    -0.7664150000     0.3016760000
    4      C      -3.1407720000    -2.0562210000     0.0600430000
    5      C      -1.7816900000    -2.2618570000    -0.0540180000
    6      N      -1.3061570000    -3.5736720000    -0.3263120000
    7      C      -0.8652770000    -1.1436600000     0.0548150000
    8      C       0.5598050000    -1.3542440000     0.0400960000
    9      O       1.0644300000    -2.5749740000    -0.0182300000
   10      C       1.4208430000    -0.2003750000     0.0904120000
   11      C       2.8620250000    -0.3514930000     0.1382010000
   12      N       3.4585230000    -1.6333300000     0.2867760000
   13      C       3.6763830000     0.7605090000     0.0865970000
   14      C       3.1342060000     2.0621380000    -0.0311660000
   15      C       1.7709690000     2.2715230000    -0.0335970000
   16      N       1.2799520000     3.5972060000    -0.1854430000
   17      C       0.8621350000     1.1464620000     0.0677370000
   18      C      -0.5597350000     1.3542250000     0.1702040000
   19      O      -1.0641170000     2.5748610000     0.2301650000
   20      C      -1.4176900000     0.1974790000     0.2062670000
   21      H      -2.7125480000     2.3295590000     0.4656100000
   22      H      -4.2736130000     1.7531860000     0.0955320000
   23      H      -4.7408550000    -0.6377080000     0.4529200000
   24      H      -3.8117330000    -2.9068740000    -0.0522380000
   25      H      -1.7784790000    -4.2613130000     0.2482520000
   26      H      -0.2817770000    -3.5704410000    -0.1871570000
   27      H       4.2587470000    -1.7384590000    -0.3252940000
   28      H       2.7255640000    -2.3416440000     0.1142410000
   29      H       4.7551690000     0.6247670000     0.1515620000
   30      H       3.7973730000     2.9198660000    -0.1357380000
   31      H       0.2683860000     3.5823510000     0.0274020000
   32      H       1.7941980000     4.2472280000     0.3968930000
 ----------------------------------------------------------------

    8    -910.7029645497      7.66e-06  Convergence criterion met
 Total energy in the final basis set =     -910.7029645497

                    Orbital Energies (a.u.)
 --------------------------------------------------------------

 Alpha MOs
 -- Occupied --
-19.0330 -19.0330 -14.2715 -14.2715 -14.2715 -14.2715 -10.1867 -10.1867
-10.1783 -10.1783 -10.1782 -10.1782 -10.1463 -10.1463 -10.1460 -10.1459
-10.1353 -10.1352 -10.1348 -10.1348  -0.9543  -0.9507  -0.8830  -0.8741
 -0.8729  -0.8648  -0.8028  -0.7820  -0.7475  -0.7072  -0.6944  -0.6772
 -0.6357  -0.6054  -0.6001  -0.5458  -0.5264  -0.5246  -0.5030  -0.4817
 -0.4740  -0.4611  -0.4521  -0.4434  -0.4417  -0.4331  -0.4171  -0.4039
 -0.4023  -0.3898  -0.3795  -0.3689  -0.3567  -0.3566  -0.3500  -0.3438
 -0.3398  -0.3394  -0.3236  -0.3186  -0.3021  -0.2928  -0.2591  -0.2450
 -0.2291  -0.2167  -0.2140  -0.2010  -0.1817  -0.1681  -0.1068

          Ground-State Mulliken Net Atomic Charges

     Atom                 Charge (a.u.)
  ----------------------------------------
      1 N                    -0.517607
      2 C                    -0.272332
      3 C                    -0.412322
      4 C                    -0.420830
      5 C                    -0.274781
      6 N                    -0.517774
      7 C                     0.526152
      8 C                    -0.471914
      9 O                    -0.641354
     10 C                     0.516623
     11 C                    -0.272288
     12 N                    -0.518414
     13 C                    -0.414142
     14 C                    -0.419221
     15 C                    -0.269188
     16 N                    -0.517778
     17 C                     0.517146
     18 C                    -0.476718
     19 O                    -0.639596
     20 C                     0.514557
     21 H                     0.324849
     22 H                     0.256711
     23 H                     0.163678
     24 H                     0.163746
     25 H                     0.256719
     26 H                     0.325083
     27 H                     0.256715
     28 H                     0.325254
     29 H                     0.163687
     30 H                     0.163554
     31 H                     0.325153
     32 H                     0.256631
  ----------------------------------------
  Sum of atomic charges =    -2.000000

                    Cartesian Multipole Moments
 -----------------------------------------------------------------
    Charge (ESU x 10^10)
                -9.6064
    Dipole Moment (Debye)
         X       0.0085      Y      -0.0003      Z      -1.0123
       Tot       1.0124
    Quadrupole Moments (Debye-Ang)
        XX    -154.0574     XY       7.2256     YY    -168.5168
        XZ       0.8621     YZ      -1.3174     ZZ    -137.2519

 Total job time:  113.54s(wall), 452.91s(cpu)
        *  Thank you very much for using Q-Chem.  Have a nice day.  *
