 Q-Chem 5.4, Q-Chem, Inc., Pleasanton, CA (2021)
 Q-Chem 5.4.0 for Intel X86 EM64T Linux

User input:
--------------------------------------------------------------
$molecule
-2 1
C                 -1.7108190000     -2.4116760000      1.2050770000
C                 -2.2710770000     -2.1668160000     -0.1192970000
C                 -1.7314740000     -1.1043260000     -0.9199650000
C                 -0.6659440000     -0.2480580000     -0.5587640000
C                 -0.1249350000     -0.5404480000      0.7499650000
C                 -0.6147280000     -1.5428180000      1.5588180000
O                 -2.1014410000     -3.3154900000      2.0424480000
O                 -0.1979120000      0.7169080000     -1.2932540000
C                 -3.3586790000     -2.9890420000     -0.6484330000
C                 -4.0555030000     -3.9577280000      0.1385520000
C                 -3.8092050000     -2.8853510000     -2.0014480000
C                 -4.8510280000     -3.6535640000     -2.5071490000
C                 -5.0953410000     -4.7219500000     -0.3779910000
C                 -5.5220530000     -4.5891580000     -1.7083030000
H                 -2.1694260000     -0.8920620000     -1.8906480000
H                  0.7027330000      0.0851160000      1.0897730000
H                 -0.1799880000     -1.7220660000      2.5425300000
H                 -3.7206790000     -4.0758050000      1.1617810000
H                 -3.3177990000     -2.1907150000     -2.6702480000
H                 -5.1416060000     -3.5250430000     -3.5494850000
H                 -5.5888880000     -5.4421870000      0.2744230000
H                 -6.3351280000     -5.1914640000     -2.1066620000
$end
$rem
MAX_SCF_CYCLES=200
BASIS  =  6-311++G(d,p)
GUI  =  2
JOB_TYPE  =  SP
METHOD  =  B3LYP
SOLVENT_METHOD = COSMO
$end
$solvent
dielectric 37.219
opticaldielectric 1.43
$end

--------------------------------------------------------------

             Standard Nuclear Orientation (Angstroms)
    I     Atom           X                Y                Z
 ----------------------------------------------------------------
    1      C      -0.9958902284    -1.4363370247     0.0403799263
    2      C      -0.4061105550    -0.1031697037    -0.0109695533
    3      C      -1.2713057208     1.0415916940    -0.0566238098
    4      C      -2.6848805733     1.0182491006    -0.0399957981
    5      C      -3.2269930109    -0.3201811111     0.0353229854
    6      C      -2.4382157850    -1.4495116742     0.0717776487
    7      O      -0.3491332333    -2.5550878231     0.0679031089
    8      O      -3.4524506512     2.0659459815    -0.0934403083
    9      C       1.0439148643     0.0873292111    -0.0035493725
   10      C       1.9713616652    -0.9942702224    -0.1186438578
   11      C       1.6465785999     1.3779675979     0.1206442934
   12      C       3.0232432420     1.5678052942     0.1146451071
   13      C       3.3467266401    -0.7930863901    -0.1219985527
   14      C       3.9080306424     0.4881919319    -0.0092575131
   15      H      -0.8390384732     2.0347011021    -0.1338389415
   16      H      -4.3149729375    -0.4086992865     0.0525950758
   17      H      -2.8917711389    -2.4398283275     0.1205473046
   18      H       1.5445920071    -1.9871166050    -0.1905507057
   19      H       1.0132699880     2.2480242294     0.2355970202
   20      H       3.4152529503     2.5794698784     0.2160389738
   21      H       4.0015314308    -1.6593581685    -0.2156889828
   22      H       4.9850485668     0.6384696900    -0.0107911707
 ----------------------------------------------------------------

   11    -612.6645155820      8.58e-06  Convergence criterion met
 Total energy in the final basis set =     -612.6645155820
    6    -612.9528193149      5.07e-06  Convergence criterion met
 Total energy in the final basis set =     -612.9528193149

                    Orbital Energies (a.u.)
 --------------------------------------------------------------

 Alpha MOs
 -- Occupied --
-19.0275 -19.0231 -10.1828 -10.1741 -10.1682 -10.1611 -10.1593 -10.1573
-10.1543 -10.1448 -10.1411 -10.1323 -10.1296 -10.1217  -0.9441  -0.9334
 -0.8381  -0.7854  -0.7455  -0.7280  -0.6889  -0.6512  -0.5982  -0.5864
 -0.5524  -0.5300  -0.4877  -0.4490  -0.4452  -0.4345  -0.4116  -0.4057
 -0.3994  -0.3810  -0.3721  -0.3650  -0.3493  -0.3468  -0.3296  -0.3231
 -0.3211  -0.3129  -0.2675  -0.2433  -0.2336  -0.2044  -0.1997  -0.1977
 -0.1280

          Ground-State Mulliken Net Atomic Charges

     Atom                 Charge (a.u.)
  ----------------------------------------
      1 C                    -0.800594
      2 C                     1.469917
      3 C                    -0.866681
      4 C                    -0.360573
      5 C                    -0.102370
      6 C                    -0.234694
      7 O                    -0.689454
      8 O                    -0.791651
      9 C                     1.256871
     10 C                    -0.287168
     11 C                    -0.616434
     12 C                    -0.363028
     13 C                    -0.446570
     14 C                    -0.449926
     15 H                     0.089576
     16 H                     0.160567
     17 H                     0.160159
     18 H                     0.174110
     19 H                     0.116961
     20 H                     0.203709
     21 H                     0.198855
     22 H                     0.178417
  ----------------------------------------
  Sum of atomic charges =    -2.000000

                    Cartesian Multipole Moments
 -----------------------------------------------------------------
    Charge (ESU x 10^10)
                -9.6064
    Dipole Moment (Debye)
         X      14.7332      Y       0.4877      Z       0.1202
       Tot      14.7417
    Quadrupole Moments (Debye-Ang)
        XX    -144.8392     XY      26.0021     YY    -128.6749
        XZ      -1.2403     YZ       2.1960     ZZ     -94.5241

 Total job time:  42.40s(wall), 299.17s(cpu)
        *  Thank you very much for using Q-Chem.  Have a nice day.  *
