 Q-Chem 5.4, Q-Chem, Inc., Pleasanton, CA (2021)
 Q-Chem 5.4.0 for Intel X86 EM64T Linux

User input:
--------------------------------------------------------------
$molecule
-1 2
C                  1.4744550000      3.4216550000     -0.3428850000
C                  0.7170300000      3.1436470000     -1.4678150000
C                  0.0386360000      1.9165120000     -1.5706900000
C                  1.5733130000      2.4912030000      0.7072090000
C                  0.8909880000      1.2557660000      0.6038770000
C                  0.1279770000      0.9886310000     -0.5475360000
C                  2.3965760000      2.8359290000      1.8919280000
C                  2.4202050000      1.8213830000      2.9190120000
C                  1.7643590000      0.6043840000      2.8200240000
C                  0.9710240000      0.2448720000      1.6805200000
O                  3.0218840000      3.9159220000      1.9562070000
O                  0.3766780000     -0.8591610000      1.5940800000
S                  3.3280270000      2.1437750000      4.4350600000
O                  2.9014090000      3.4087180000      5.0506510000
O                  3.2812430000      0.9102610000      5.2472560000
C                  5.0657490000      2.3402780000      3.9438930000
C                  5.5367720000      3.5864330000      3.5361040000
C                  5.9091270000      1.2336290000      4.0188550000
C                  6.8814570000      3.7180090000      3.1939650000
C                  7.7373740000      2.6181800000      3.2599520000
C                  7.2512490000      1.3769040000      3.6713620000
H                  2.0088240000      4.3583590000     -0.2358490000
H                  0.6466880000      3.8718220000     -2.2700370000
H                 -0.5552690000      1.6978970000     -2.4530440000
H                 -0.3829580000      0.0341470000     -0.5994920000
H                  1.8357210000     -0.1142870000      3.6268890000
H                  4.8475310000      4.4165730000      3.4712120000
H                  5.5114570000      0.2851680000      4.3578760000
H                  7.2593550000      4.6822500000      2.8713670000
H                  8.7825310000      2.7277290000      2.9891960000
H                  7.9162290000      0.5216620000      3.7277440000
$end

$rem
BASIS  =  6-311++G(d,p)
GUI  =  2
JOB_TYPE  =  SP
METHOD  =  B3LYP
SCF_CONVERGENCE  = 8
SOLVENT_METHOD = sm12
$end

$smx
solvent dimethylformamide
charges CM5
$end

--------------------------------------------------------------

             Standard Nuclear Orientation (Angstroms)
    I     Atom           X                Y                Z
 ----------------------------------------------------------------
    1      C       1.4744550000     3.4216550000    -0.3428850000
    2      C       0.7170300000     3.1436470000    -1.4678150000
    3      C       0.0386360000     1.9165120000    -1.5706900000
    4      C       1.5733130000     2.4912030000     0.7072090000
    5      C       0.8909880000     1.2557660000     0.6038770000
    6      C       0.1279770000     0.9886310000    -0.5475360000
    7      C       2.3965760000     2.8359290000     1.8919280000
    8      C       2.4202050000     1.8213830000     2.9190120000
    9      C       1.7643590000     0.6043840000     2.8200240000
   10      C       0.9710240000     0.2448720000     1.6805200000
   11      O       3.0218840000     3.9159220000     1.9562070000
   12      O       0.3766780000    -0.8591610000     1.5940800000
   13      S       3.3280270000     2.1437750000     4.4350600000
   14      O       2.9014090000     3.4087180000     5.0506510000
   15      O       3.2812430000     0.9102610000     5.2472560000
   16      C       5.0657490000     2.3402780000     3.9438930000
   17      C       5.5367720000     3.5864330000     3.5361040000
   18      C       5.9091270000     1.2336290000     4.0188550000
   19      C       6.8814570000     3.7180090000     3.1939650000
   20      C       7.7373740000     2.6181800000     3.2599520000
   21      C       7.2512490000     1.3769040000     3.6713620000
   22      H       2.0088240000     4.3583590000    -0.2358490000
   23      H       0.6466880000     3.8718220000    -2.2700370000
   24      H      -0.5552690000     1.6978970000    -2.4530440000
   25      H      -0.3829580000     0.0341470000    -0.5994920000
   26      H       1.8357210000    -0.1142870000     3.6268890000
   27      H       4.8475310000     4.4165730000     3.4712120000
   28      H       5.5114570000     0.2851680000     4.3578760000
   29      H       7.2593550000     4.6822500000     2.8713670000
   30      H       8.7825310000     2.7277290000     2.9891960000
   31      H       7.9162290000     0.5216620000     3.7277440000
 ----------------------------------------------------------------

   17   -1315.0893652816      7.32e-09  Convergence criterion met
 Total energy in the final basis set =    -1315.1798151019

                    Orbital Energies (a.u.)
 --------------------------------------------------------------

 Alpha MOs
 -- Occupied --
-89.0469 -19.1111 -19.1110 -19.0901 -19.0885 -10.2459 -10.2346 -10.2131
-10.2026 -10.1960 -10.1924 -10.1923 -10.1908 -10.1903 -10.1896 -10.1893
-10.1883 -10.1875 -10.1854 -10.1846 -10.1840  -8.1105  -6.0733  -6.0723
 -6.0716  -1.1038  -1.0201  -1.0120  -0.9991  -0.8777  -0.8732  -0.8295
 -0.7820  -0.7657  -0.7642  -0.7619  -0.7094  -0.6726  -0.6362  -0.6278
 -0.6242  -0.5933  -0.5737  -0.5449  -0.5236  -0.5164  -0.4948  -0.4819
 -0.4781  -0.4733  -0.4574  -0.4520  -0.4427  -0.4415  -0.4380  -0.4307
 -0.4289  -0.4178  -0.4052  -0.3938  -0.3854  -0.3821  -0.3688  -0.3661
 -0.3626  -0.3533  -0.3362  -0.3217  -0.3083  -0.2999  -0.2950  -0.2775
 -0.2729  -0.2687  -0.2658  -0.2553  -0.2468  -0.1716

 Beta MOs
 -- Occupied --
-89.0469 -19.1110 -19.1109 -19.0846 -19.0810 -10.2451 -10.2338 -10.2131
-10.2011 -10.1959 -10.1923 -10.1922 -10.1908 -10.1899 -10.1896 -10.1891
-10.1882 -10.1873 -10.1846 -10.1839 -10.1823  -8.1106  -6.0733  -6.0723
 -6.0716  -1.1035  -1.0107  -0.9994  -0.9985  -0.8776  -0.8715  -0.8238
 -0.7814  -0.7656  -0.7629  -0.7603  -0.7025  -0.6686  -0.6348  -0.6259
 -0.6236  -0.5923  -0.5719  -0.5440  -0.5215  -0.5149  -0.4920  -0.4812
 -0.4776  -0.4725  -0.4572  -0.4511  -0.4418  -0.4410  -0.4376  -0.4265
 -0.4181  -0.4111  -0.4022  -0.3887  -0.3820  -0.3680  -0.3656  -0.3625
 -0.3568  -0.3521  -0.3355  -0.3210  -0.3051  -0.2988  -0.2807  -0.2732
 -0.2643  -0.2620  -0.2594  -0.2497  -0.2408

          Ground-State Mulliken Net Atomic Charges

     Atom                 Charge (a.u.)    Spin (a.u.)
  --------------------------------------------------------
      1 C                     0.459481       0.022575
      2 C                     1.152628       0.018854
      3 C                     1.259109       0.006541
      4 C                    -0.250017      -0.026995
      5 C                    -1.237981       0.025262
      6 C                     0.390636       0.022239
      7 C                    -1.341173       0.052048
      8 C                    -0.767907       0.106453
      9 C                    -0.578417       0.236183
     10 C                    -1.322985       0.066410
     11 O                    -0.213132       0.212523
     12 O                    -0.336580       0.274818
     13 S                    -0.175871      -0.024442
     14 O                    -0.145177       0.006795
     15 O                    -0.167671      -0.003009
     16 C                    -1.352404       0.004148
     17 C                    -1.039419       0.015979
     18 C                     0.022276       0.010604
     19 C                     0.351178      -0.005587
     20 C                     1.034512       0.005732
     21 C                     0.486383      -0.001867
     22 H                     0.171513      -0.001506
     23 H                     0.374681      -0.001510
     24 H                     0.377243      -0.000613
     25 H                     0.158357      -0.003653
     26 H                     0.197021      -0.018118
     27 H                     0.177432      -0.000909
     28 H                     0.249363       0.001065
     29 H                     0.331542       0.000141
     30 H                     0.387984      -0.000286
     31 H                     0.347397       0.000125
  --------------------------------------------------------
  Sum of atomic charges =    -1.000000

                    Cartesian Multipole Moments
 -----------------------------------------------------------------
    Charge (ESU x 10^10)
                -4.8032
    Dipole Moment (Debye)
         X      -7.3697      Y      -7.3585      Z     -15.7336
       Tot      18.8681
    Quadrupole Moments (Debye-Ang)
        XX    -134.4084     XY     -21.0745     YY    -165.3008
        XZ     -31.2384     YZ     -33.2665     ZZ    -201.4628

 Total job time:  991.67s(wall), 7679.55s(cpu)
        *  Thank you very much for using Q-Chem.  Have a nice day.  *
