 Q-Chem 5.4, Q-Chem, Inc., Pleasanton, CA (2021)
 Q-Chem 5.4.0 for Intel X86 EM64T Linux

User input:
--------------------------------------------------------------
$molecule
-2 1
O                 -1.2737810000      2.5864140000      0.3420740000
C                 -1.2420620000      1.3010460000      0.2201600000
C                 -2.4105110000      0.4863270000      0.1943640000
C                 -2.3509850000     -0.9035010000      0.0618090000
O                 -3.4939810000     -1.6871740000      0.0377370000
C                 -1.1624450000     -1.6624490000     -0.0601670000
O                 -1.2776810000     -2.9774100000     -0.1780190000
C                  0.0384730000     -0.9017420000     -0.0405930000
C                  1.3118080000     -1.5330020000     -0.1543930000
C                  2.4917350000     -0.8177570000     -0.1380840000
C                  2.4653820000      0.5995150000     -0.0040620000
C                  1.2403680000      1.2428010000      0.1086210000
C                  0.0121430000      0.5541690000      0.0966770000
H                 -3.3790600000      0.9751300000      0.2816810000
H                  1.3137120000     -2.6149100000     -0.2558660000
H                  3.4455990000     -1.3384900000     -0.2276540000
H                  3.3938350000      1.1687620000      0.0094880000
H                  1.1806530000      2.3232790000      0.2122870000
H                 -3.0537260000     -2.5738760000     -0.0642350000
$end
$rem
MAX_SCF_CYCLES=200
BASIS  =  6-311++G(d,p)
GUI  =  2
JOB_TYPE  =  SP
METHOD  =  B3LYP
SOLVENT_METHOD = COSMO
$end
$solvent
dielectric 37.219
opticaldielectric 1.43
$end

--------------------------------------------------------------

             Standard Nuclear Orientation (Angstroms)
    I     Atom           X                Y                Z
 ----------------------------------------------------------------
    1      O       0.2526933183    -3.0147768065    -0.0000478096
    2      C      -0.1598800544    -1.7909209676     0.0002859362
    3      C      -1.5373818275    -1.4273355602     0.0000314678
    4      C      -1.9597982607    -0.0953068821     0.0000446249
    5      O      -3.3027157884     0.2478187126    -0.0001230250
    6      C      -1.1050107589     1.0328978287     0.0000291991
    7      O      -1.6657560730     2.2336707127    -0.0001571416
    8      C       0.2843877807     0.7315109991     0.0000617499
    9      C       1.2627382776     1.7686474138     0.0001728095
   10      C       2.6167809170     1.5028699754     0.0001197463
   11      C       3.0797873603     0.1564149185    -0.0002156404
   12      C       2.1509479334    -0.8752977122    -0.0001596323
   13      C       0.7607163355    -0.6513571323     0.0000892670
   14      H      -2.2785795000    -2.2243711967    -0.0000012653
   15      H       0.8921896957     2.7901752024     0.0003749280
   16      H       3.3332005981     2.3249314137     0.0000499312
   17      H       4.1474626471    -0.0588063171    -0.0003713750
   18      H       2.4667240073    -1.9155047580    -0.0002082086
   19      H      -3.1944953213     1.2371374175     0.0000226311
 ----------------------------------------------------------------

   11    -610.4960847048      8.81e-06  Convergence criterion met
 Total energy in the final basis set =     -610.4960847048
    6    -610.7854241359      2.82e-06  Convergence criterion met
 Total energy in the final basis set =     -610.7854241359

                    Orbital Energies (a.u.)
 --------------------------------------------------------------

 Alpha MOs
 -- Occupied --
-19.1170 -19.0352 -19.0299 -10.1862 -10.1857 -10.1688 -10.1532 -10.1493
-10.1484 -10.1484 -10.1468 -10.1416 -10.1263  -1.0280  -0.9441  -0.9296
 -0.8274  -0.7685  -0.7266  -0.7037  -0.6479  -0.5933  -0.5786  -0.5375
 -0.5045  -0.4815  -0.4518  -0.4333  -0.4232  -0.4030  -0.3944  -0.3845
 -0.3734  -0.3638  -0.3534  -0.3508  -0.3266  -0.3209  -0.3061  -0.3017
 -0.2347  -0.2317  -0.2240  -0.2090  -0.2045  -0.1222

          Ground-State Mulliken Net Atomic Charges

     Atom                 Charge (a.u.)
  ----------------------------------------
      1 O                    -0.731230
      2 C                    -0.367264
      3 C                     0.309296
      4 C                    -0.176155
      5 O                    -0.380870
      6 C                    -0.714152
      7 O                    -0.780549
      8 C                     0.288790
      9 C                     0.019484
     10 C                    -0.411386
     11 C                    -0.472713
     12 C                     0.111575
     13 C                     0.169786
     14 H                     0.166390
     15 H                     0.159308
     16 H                     0.184554
     17 H                     0.179727
     18 H                     0.154012
     19 H                     0.291398
  ----------------------------------------
  Sum of atomic charges =    -2.000000

                    Cartesian Multipole Moments
 -----------------------------------------------------------------
    Charge (ESU x 10^10)
                -9.6064
    Dipole Moment (Debye)
         X       6.2956      Y       3.8627      Z       0.0030
       Tot       7.3861
    Quadrupole Moments (Debye-Ang)
        XX    -108.0155     XY      11.6411     YY    -133.7999
        XZ      -0.0014     YZ       0.0008     ZZ     -86.0788

 Total job time:  30.89s(wall), 225.84s(cpu)
        *  Thank you very much for using Q-Chem.  Have a nice day.  *
