 Gaussian 16, Revision A.03,
 Gaussian 16:  ES64L-G16RevA.03 25-Dec-2016

 ----------------------------------------------------------------------
 #P UB3LYP/6-311++G(d,p) nosym opt freq SCRF=(PCM,Solvent=n,n-DiMethylF
 ormamide)
 ----------------------------------------------------------------------

 -------
 Reduced
 -------
 Symbolic Z-matrix:
 Charge = -2 Multiplicity = 1

 SCF Done:  E(UB3LYP) =  -539.115855503     A.U. after   16 cycles
 SCF Done:  E(UB3LYP) =  -539.117187612     A.U. after   13 cycles
 SCF Done:  E(UB3LYP) =  -539.117341598     A.U. after   12 cycles
 SCF Done:  E(UB3LYP) =  -539.117410879     A.U. after   12 cycles
 SCF Done:  E(UB3LYP) =  -539.117424971     A.U. after   11 cycles
 SCF Done:  E(UB3LYP) =  -539.117433920     A.U. after   11 cycles
 SCF Done:  E(UB3LYP) =  -539.117436104     A.U. after   11 cycles
 SCF Done:  E(UB3LYP) =  -539.117437560     A.U. after   11 cycles
 SCF Done:  E(UB3LYP) =  -539.117437767     A.U. after    9 cycles
 SCF Done:  E(UB3LYP) =  -539.117437819     A.U. after    8 cycles
 SCF Done:  E(UB3LYP) =  -539.117437870     A.U. after    9 cycles
 SCF Done:  E(UB3LYP) =  -539.117437891     A.U. after    8 cycles
 Optimization completed.
    -- Stationary point found.
 Normal termination of Gaussian 16 at Sat Feb 10 10:29:27 2024.

 ----------------------------------------------------------------------
 #P Geom=AllCheck Guess=TCheck SCRF=Check GenChk UB3LYP/6-311++G(d,p) F
 req
 ----------------------------------------------------------------------

 Structure from the checkpoint file:  "053-an.chk"
 -------
 Reduced
 -------
 Charge = -2 Multiplicity = 1

                          Input orientation:
 ---------------------------------------------------------------------
 Center     Atomic      Atomic             Coordinates (Angstroms)
 Number     Number       Type             X           Y           Z
 ---------------------------------------------------------------------
      1          6           0        0.256270    1.479732   -0.799295
      2          6           0       -0.929599    0.679747   -0.784040
      3          6           0       -0.884074   -0.728172   -0.849860
      4          6           0        0.352136   -1.445535   -0.910939
      5          6           0        1.538001   -0.645548   -0.926302
      6          6           0        1.492478    0.762371   -0.860481
      7          8           0        0.210836    2.804175   -0.763036
      8          8           0        0.397564   -2.769974   -0.947404
      9          6           0        2.781705    1.557711   -0.856094
     10          6           0        2.875692   -1.351533   -1.006067
     11          6           0       -2.267296    1.385737   -0.704398
     12          6           0       -2.173303   -1.523510   -0.854369
     13          1           0        3.488289    1.202154   -0.095493
     14          1           0        2.559362    2.607146   -0.659953
     15          1           0        3.315748    1.505802   -1.816198
     16          1           0        2.724945   -2.394579   -1.288271
     17          1           0        3.412492   -1.349427   -0.045070
     18          1           0        3.550410   -0.885102   -1.733170
     19          1           0       -2.116571    2.428781   -0.422174
     20          1           0       -2.942083    0.919304    0.022638
     21          1           0       -2.804005    1.383638   -1.665446
     22          1           0       -2.879823   -1.167941   -1.615026
     23          1           0       -2.707427   -1.471612    0.105690
     24          1           0       -1.950946   -2.572942   -1.050502
 ---------------------------------------------------------------------

 SCF Done:  E(UB3LYP) =  -539.117437891     A.U. after    1 cycles

 Alpha  occ. eigenvalues --  -18.99795 -18.99794 -10.14870 -10.14868 -10.12887
 Alpha  occ. eigenvalues --  -10.12887 -10.12865 -10.12865 -10.11373 -10.11371
 Alpha  occ. eigenvalues --  -10.11324 -10.11323  -0.90253  -0.89808  -0.77722
 Alpha  occ. eigenvalues --   -0.74796  -0.68776  -0.68556  -0.66213  -0.59511
 Alpha  occ. eigenvalues --   -0.59156  -0.50162  -0.49238  -0.45189  -0.40255
 Alpha  occ. eigenvalues --   -0.39999  -0.39152  -0.37680  -0.36823  -0.36799
 Alpha  occ. eigenvalues --   -0.36384  -0.35530  -0.34969  -0.33711  -0.33245
 Alpha  occ. eigenvalues --   -0.32769  -0.31186  -0.28787  -0.28620  -0.28334
 Alpha  occ. eigenvalues --   -0.20125  -0.18283  -0.17980  -0.17423  -0.10405
 Alpha virt. eigenvalues --   -0.00258   0.00918   0.01695   0.03092   0.03140
 Alpha virt. eigenvalues --    0.03868   0.03944   0.04189   0.04767   0.05936
 Alpha virt. eigenvalues --    0.06011   0.06210   0.07185   0.07819   0.08138

  Beta  occ. eigenvalues --  -18.99795 -18.99794 -10.14870 -10.14868 -10.12887
  Beta  occ. eigenvalues --  -10.12887 -10.12865 -10.12865 -10.11373 -10.11371
  Beta  occ. eigenvalues --  -10.11324 -10.11323  -0.90253  -0.89808  -0.77722
  Beta  occ. eigenvalues --   -0.74796  -0.68776  -0.68556  -0.66213  -0.59511
  Beta  occ. eigenvalues --   -0.59156  -0.50162  -0.49238  -0.45189  -0.40255
  Beta  occ. eigenvalues --   -0.39999  -0.39152  -0.37680  -0.36823  -0.36799
  Beta  occ. eigenvalues --   -0.36384  -0.35530  -0.34969  -0.33711  -0.33245
  Beta  occ. eigenvalues --   -0.32769  -0.31186  -0.28787  -0.28620  -0.28334
  Beta  occ. eigenvalues --   -0.20125  -0.18283  -0.17980  -0.17423  -0.10405
  Beta virt. eigenvalues --   -0.00258   0.00918   0.01695   0.03092   0.03140
  Beta virt. eigenvalues --    0.03868   0.03944   0.04189   0.04767   0.05936
  Beta virt. eigenvalues --    0.06011   0.06210   0.07185   0.07819   0.08138

 Mulliken charges and spin densities:
               1          2
     1  C   -1.577032  -0.000000
     2  C    0.826891  -0.000000
     3  C    0.757618   0.000000
     4  C   -1.576838  -0.000000
     5  C    0.826739   0.000000
     6  C    0.757736  -0.000000
     7  O   -0.749506  -0.000000
     8  O   -0.749510   0.000000
     9  C   -0.552781   0.000000
    10  C   -0.545142   0.000000
    11  C   -0.545152   0.000000
    12  C   -0.552766  -0.000000
    13  H    0.124656  -0.000000
    14  H    0.171471   0.000000
    15  H    0.126156   0.000000
    16  H    0.167201   0.000000
    17  H    0.128906  -0.000000
    18  H    0.121481   0.000000
    19  H    0.167215   0.000000
    20  H    0.121479  -0.000000
    21  H    0.128907   0.000000
    22  H    0.124658  -0.000000
    23  H    0.126155  -0.000000
    24  H    0.171461   0.000000
 Sum of Mulliken charges =  -2.00000   0.00000

 Dipole moment (field-independent basis, Debye):
    X=             -2.9223    Y=             -0.1643    Z=              8.2153  Tot=              8.7211
 Quadrupole moment (field-independent basis, Debye-Ang):
   XX=            -90.2256   YY=           -148.7823   ZZ=            -89.7837
   XY=              1.9779   XZ=              2.7385   YZ=             -1.9420

  Exact polarizability: 253.575  -0.492 251.027  -2.765   2.194 139.592
 Approx polarizability: 261.447  -0.722 270.757  -2.766   2.347 151.956

                      1                      2                      3
                      A                      A                      A
 Frequencies --     93.8148               106.7850               112.1860
 Red. masses --      1.5400                 1.0411                 1.0932
 Frc consts  --      0.0080                 0.0070                 0.0081
 IR Inten    --     17.8675                 0.0000                 2.4575

                      4                      5                      6
                      A                      A                      A
 Frequencies --    125.7135               126.5536               138.8881
 Red. masses --      2.6257                 1.0494                 2.2873
 Frc consts  --      0.0244                 0.0099                 0.0260
 IR Inten    --      7.9297                 0.0005                13.5271

                      7                      8                      9
                      A                      A                      A
 Frequencies --    168.3813               204.3255               293.6752
 Red. masses --      3.4552                 2.9410                 2.6116
 Frc consts  --      0.0577                 0.0723                 0.1327
 IR Inten    --      0.0000                 0.8161                31.8782

                     10                     11                     12
                      A                      A                      A
 Frequencies --    316.3714               326.9366               332.7169
 Red. masses --      2.6506                 3.2686                 2.4459
 Frc consts  --      0.1563                 0.2058                 0.1595
 IR Inten    --      0.0000                 0.0000                 5.7906

                     13                     14                     15
                      A                      A                      A
 Frequencies --    346.6497               383.0762               394.2023
 Red. masses --      3.7600                 8.3518                 6.4579
 Frc consts  --      0.2662                 0.7221                 0.5913
 IR Inten    --      0.0000                28.3156                 0.0000

                     16                     17                     18
                      A                      A                      A
 Frequencies --    446.9538               467.6423               553.1453
 Red. masses --      4.8468                 6.6032                 3.7913
 Frc consts  --      0.5705                 0.8508                 0.6835
 IR Inten    --      0.0000                 0.0000                 0.9121

                     19                     20                     21
                      A                      A                      A
 Frequencies --    554.9579               603.9005               665.0417
 Red. masses --      6.2736                 4.7468                 3.0140
 Frc consts  --      1.1384                 1.0200                 0.7854
 IR Inten    --      0.0000                85.4472                 0.0000

                     22                     23                     24
                      A                      A                      A
 Frequencies --    705.0013               763.4624               845.5640
 Red. masses --      6.4173                 5.3479                 2.3115
 Frc consts  --      1.8792                 1.8366                 0.9737
 IR Inten    --     12.2465                 0.0000                83.5624

                     25                     26                     27
                      A                      A                      A
 Frequencies --    859.8361               972.0981               993.1343
 Red. masses --      3.0688                 1.4022                 1.8593
 Frc consts  --      1.3367                 0.7807                 1.0805
 IR Inten    --      1.0160                 0.0000                 0.4243

                     28                     29                     30
                      A                      A                      A
 Frequencies --   1022.7906              1024.2502              1031.3870
 Red. masses --      3.4982                 1.4222                 1.4095
 Frc consts  --      2.1561                 0.8791                 0.8834
 IR Inten    --      0.0000                 1.2266                 0.0000

                     31                     32                     33
                      A                      A                      A
 Frequencies --   1047.0205              1056.1952              1077.3041
 Red. masses --      1.5166                 1.5049                 2.5955
 Frc consts  --      0.9796                 0.9891                 1.7748
 IR Inten    --      0.0000                22.1439               514.5052

                     34                     35                     36
                      A                      A                      A
 Frequencies --   1085.1805              1141.6332              1207.1318
 Red. masses --      2.1804                 5.3411                 5.3965
 Frc consts  --      1.5129                 4.1014                 4.6331
 IR Inten    --      0.0000                 0.0000               280.4060

                     37                     38                     39
                      A                      A                      A
 Frequencies --   1282.0814              1320.3905              1363.7909
 Red. masses --      3.9382                 9.2033                 2.9556
 Frc consts  --      3.8140                 9.4536                 3.2388
 IR Inten    --    533.3978                 0.0000               463.1248

                     40                     41                     42
                      A                      A                      A
 Frequencies --   1367.5059              1374.2901              1385.0737
 Red. masses --      1.2521                 1.3522                 1.2793
 Frc consts  --      1.3796                 1.5047                 1.4459
 IR Inten    --      0.0000               116.0223                 0.0979

                     43                     44                     45
                      A                      A                      A
 Frequencies --   1385.2744              1427.2177              1452.2128
 Red. masses --      1.8013                 6.5065                 1.2439
 Frc consts  --      2.0366                 7.8087                 1.5456
 IR Inten    --    634.5039                63.9841                 0.0000

                     46                     47                     48
                      A                      A                      A
 Frequencies --   1469.3359              1469.4843              1473.2673
 Red. masses --      1.0764                 1.0808                 1.0579
 Frc consts  --      1.3692                 1.3751                 1.3529
 IR Inten    --     91.7883                 0.0031                27.7927

                     49                     50                     51
                      A                      A                      A
 Frequencies --   1485.6058              1490.4724              1496.2179
 Red. masses --      1.0648                 1.0775                 1.0849
 Frc consts  --      1.3846                 1.4103                 1.4309
 IR Inten    --      0.0000                 3.2919                 0.0000

                     52                     53                     54
                      A                      A                      A
 Frequencies --   1498.7395              1524.6300              1581.8693
 Red. masses --      1.0562                 3.5060                 6.6235
 Frc consts  --      1.3979                 4.8017                 9.7652
 IR Inten    --     57.8230                 0.0000                 0.0000

                     55                     56                     57
                      A                      A                      A
 Frequencies --   2959.0480              2960.6332              2966.7616
 Red. masses --      1.0590                 1.0597                 1.0517
 Frc consts  --      5.4631                 5.4727                 5.4537
 IR Inten    --    409.1537                 0.0002               358.3395

                     58                     59                     60
                      A                      A                      A
 Frequencies --   2968.6343              3004.2333              3004.3093
 Red. masses --      1.0527                 1.0878                 1.0883
 Frc consts  --      5.4661                 5.7843                 5.7875
 IR Inten    --      0.0000                 0.0094               212.3207

                     61                     62                     63
                      A                      A                      A
 Frequencies --   3017.5611              3017.8015              3098.5530
 Red. masses --      1.0799                 1.0790                 1.0925
 Frc consts  --      5.7935                 5.7897                 6.1798
 IR Inten    --    195.2569                 0.0006                18.2248

                     64                     65                     66
                      A                      A                      A
 Frequencies --   3098.6352              3099.3108              3099.5033
 Red. masses --      1.0924                 1.0923                 1.0925
 Frc consts  --      6.1800                 6.1821                 6.1837
 IR Inten    --      0.0007                88.1179                 0.0000

 - Thermochemistry -
 -------------------
 Temperature   298.150 Kelvin.  Pressure   1.00000 Atm.
 Atom     1 has atomic number  6 and mass  12.00000

 Molecular mass:   164.08373 amu.
 Principal axes and moments of inertia in atomic units:
                           1         2         3
     Eigenvalues --  1680.057661731.862553367.42408
           X            0.99917  -0.02603   0.03141
           Y            0.02723   0.99889  -0.03841
           Z           -0.03038   0.03923   0.99877
 This molecule is an asymmetric top.
 Rotational symmetry number  1.
 Warning -- assumption of classical behavior for rotation
           may cause significant error
 Rotational temperatures (Kelvin)      0.05155     0.05001     0.02572
 Rotational constants (GHZ):           1.07421     1.04208     0.53594
 Zero-point vibrational energy     500854.6 (Joules/Mol)
                                  119.70712 (Kcal/Mol)
 Warning -- explicit consideration of  20 degrees of freedom as
           vibrations may cause significant error
 Vibrational temperatures:    134.98   153.64   161.41   180.87   182.08
          (Kelvin)            199.83   242.26   293.98   422.53   455.19
                              470.39   478.71   498.75   551.16   567.17
                              643.07   672.83   795.85   798.46   868.88
                              956.85  1014.34  1098.45  1216.58  1237.11
                             1398.63  1428.90  1471.57  1473.67  1483.94
                             1506.43  1519.63  1550.00  1561.33  1642.56
                             1736.79  1844.63  1899.75  1962.19  1967.54
                             1977.30  1992.81  1993.10  2053.45  2089.41
                             2114.05  2114.26  2119.70  2137.46  2144.46
                             2152.72  2156.35  2193.60  2275.96  4257.41
                             4259.69  4268.51  4271.20  4322.42  4322.53
                             4341.60  4341.94  4458.13  4458.24  4459.22
                             4459.49

 Zero-point correction=                           0.190765 (Hartree/Particle)
 Thermal correction to Energy=                    0.203537
 Thermal correction to Enthalpy=                  0.204481
 Thermal correction to Gibbs Free Energy=         0.152559
 Sum of electronic and zero-point Energies=           -538.926672
 Sum of electronic and thermal Energies=              -538.913901
 Sum of electronic and thermal Enthalpies=            -538.912957
 Sum of electronic and thermal Free Energies=         -538.964878

                     E (Thermal)             CV                S
                      KCal/Mol        Cal/Mol-Kelvin    Cal/Mol-Kelvin
 Total                  127.721             47.222            109.278
 Electronic               0.000              0.000              0.000
 Translational            0.889              2.981             41.194
 Rotational               0.889              2.981             30.661
 Vibrational            125.944             41.260             37.423
 Vibration     1          0.603              1.954              3.579
 Vibration     2          0.606              1.944              3.327
 Vibration     3          0.607              1.939              3.231
 Vibration     4          0.611              1.927              3.011
 Vibration     5          0.611              1.927              2.998
 Vibration     6          0.614              1.914              2.819
 Vibration     7          0.625              1.881              2.453
 Vibration     8          0.640              1.834              2.094
 Vibration     9          0.688              1.686              1.453
 Vibration    10          0.703              1.642              1.329
 Vibration    11          0.711              1.622              1.275
 Vibration    12          0.715              1.610              1.247
 Vibration    13          0.725              1.582              1.181
 Vibration    14          0.752              1.506              1.027
 Vibration    15          0.761              1.483              0.984
 Vibration    16          0.806              1.368              0.805
 Vibration    17          0.825              1.322              0.744
 Vibration    18          0.909              1.133              0.538
 Vibration    19          0.910              1.129              0.534
 Vibration    20          0.962              1.024              0.443

 Optimization completed.
    -- Stationary point found.
 Normal termination of Gaussian 16 at Sat Feb 10 10:42:23 2024.
