 Q-Chem 5.4, Q-Chem, Inc., Pleasanton, CA (2021)
 Q-Chem 5.4.0 for Intel X86 EM64T Linux

User input:
--------------------------------------------------------------
$molecule
-2 1
C                 -1.8530470000      3.4775310000     -0.9478230000
C                 -2.9568100000      2.9047780000     -0.3706950000
C                 -0.5997390000      2.7934800000     -1.0264190000
C                 -0.5316780000      1.4648620000     -0.4724980000
C                 -2.9032410000      1.6056960000      0.1748170000
C                 -1.6906930000      0.9212730000      0.1087020000
C                  0.5090470000      3.4942120000     -1.6602080000
C                  1.7895620000      2.7869710000     -1.7362320000
C                  1.8412280000      1.4449650000     -1.1719490000
C                  0.7339770000      0.7655420000     -0.5481280000
C                  3.0877360000      0.7477630000     -1.2427220000
C                  3.2395250000     -0.5190490000     -0.7411870000
C                  2.1640890000     -1.1945570000     -0.1286490000
C                  0.9399620000     -0.5325520000     -0.0490440000
O                  0.3405710000      4.6748710000     -2.1200250000
O                  2.8333970000      3.2978660000     -2.2683670000
O                  4.4699280000     -1.2004860000     -0.8142070000
O                 -4.1884230000      3.5838860000     -0.2963530000
H                 -1.8743240000      4.4791930000     -1.3742140000
H                 -3.7847850000      1.1649040000      0.6291360000
H                 -1.6532360000     -0.0793900000      0.5302490000
H                  3.9058210000      1.2858530000     -1.7189370000
H                  2.2987160000     -2.1971600000      0.2644010000
H                  0.1136830000     -1.0562520000      0.4236410000
H                  5.0746790000     -0.5959830000     -1.2564720000
H                 -4.0376570000      4.4393810000     -0.7112590000
$end
$rem
MAX_SCF_CYCLES=200
BASIS  =  6-311++G(d,p)
GUI  =  2
JOB_TYPE  =  SP
METHOD  =  B3LYP
SOLVENT_METHOD = COSMO
$end
$solvent
dielectric 37.219
opticaldielectric 1.43
$end

--------------------------------------------------------------

             Standard Nuclear Orientation (Angstroms)
    I     Atom           X                Y                Z
 ----------------------------------------------------------------
    1      C       2.8262085582    -0.5192040090    -0.0002399631
    2      C       3.5445158123     0.6484646686    -0.0000513677
    3      C       1.3962385901    -0.5275667295    -0.0002387170
    4      C       0.7240093421     0.7471074841    -0.0000125430
    5      C       2.8987792888     1.9018964789     0.0001969913
    6      C       1.5049091800     1.9162069385     0.0003339402
    7      C       0.7323901751    -1.8242646520    -0.0003147427
    8      C      -0.7324264644    -1.8242628941     0.0002841034
    9      C      -1.3962497914    -0.5275735052     0.0002307010
   10      C      -0.7239723345     0.7471092058     0.0000375749
   11      C      -2.8262188037    -0.5191917239     0.0003308889
   12      C      -3.5445196002     0.6484699208    -0.0000554221
   13      C      -2.8987496266     1.9018882525    -0.0003324486
   14      C      -1.5048809149     1.9161876642    -0.0001606494
   15      O       1.4258472468    -2.8979912459    -0.0003555846
   16      O      -1.4258766115    -2.8979945821     0.0004325817
   17      O      -4.9529150036     0.6499605405    -0.0001709943
   18      O       4.9529130889     0.6499124855     0.0000240527
   19      H       3.3062988716    -1.4964972346    -0.0002487575
   20      H       3.4801662500     2.8183090115     0.0008577170
   21      H       1.0109056884     2.8838803064     0.0007122601
   22      H      -3.3062898476    -1.4964922285     0.0007284979
   23      H      -3.4801131381     2.8183171735    -0.0002458457
   24      H      -1.0108822003     2.8838627238    -0.0003451122
   25      H      -5.2126663659    -0.2770102982    -0.0006938463
   26      H       5.2126305128    -0.2770696353    -0.0002554340
 ----------------------------------------------------------------

   11    -839.4163038257      5.73e-06  Convergence criterion met
 Total energy in the final basis set =     -839.4163038257
    6    -839.7104988210      3.84e-06  Convergence criterion met
 Total energy in the final basis set =     -839.7104988210

                    Orbital Energies (a.u.)
 --------------------------------------------------------------

 Alpha MOs
 -- Occupied --
-19.1414 -19.1414 -19.0268 -19.0268 -10.2158 -10.2158 -10.1723 -10.1719
-10.1606 -10.1606 -10.1553 -10.1549 -10.1527 -10.1527 -10.1496 -10.1496
-10.1437 -10.1437  -1.0417  -1.0417  -0.9584  -0.9310  -0.8469  -0.8216
 -0.7598  -0.7405  -0.7262  -0.6941  -0.6599  -0.6155  -0.5970  -0.5685
 -0.5683  -0.5293  -0.5211  -0.4949  -0.4618  -0.4562  -0.4372  -0.4281
 -0.4164  -0.4112  -0.4025  -0.3941  -0.3931  -0.3910  -0.3740  -0.3706
 -0.3699  -0.3564  -0.3452  -0.3315  -0.3218  -0.3193  -0.3117  -0.2864
 -0.2463  -0.2372  -0.2295  -0.2190  -0.1938  -0.1864  -0.1188

          Ground-State Mulliken Net Atomic Charges

     Atom                 Charge (a.u.)
  ----------------------------------------
      1 C                     0.163026
      2 C                    -0.551838
      3 C                     0.543020
      4 C                     0.419201
      5 C                    -0.550182
      6 C                    -0.320854
      7 C                    -0.412828
      8 C                    -0.413781
      9 C                     0.543436
     10 C                     0.419593
     11 C                     0.162882
     12 C                    -0.552056
     13 C                    -0.549701
     14 C                    -0.321108
     15 O                    -0.723777
     16 O                    -0.723789
     17 O                    -0.350828
     18 O                    -0.350786
     19 H                     0.146389
     20 H                     0.207783
     21 H                     0.117081
     22 H                     0.146388
     23 H                     0.207799
     24 H                     0.116876
     25 H                     0.314025
     26 H                     0.314032
  ----------------------------------------
  Sum of atomic charges =    -2.000000

                    Cartesian Multipole Moments
 -----------------------------------------------------------------
    Charge (ESU x 10^10)
                -9.6064
    Dipole Moment (Debye)
         X      -0.0005      Y      15.6174      Z       0.0006
       Tot      15.6174
    Quadrupole Moments (Debye-Ang)
        XX    -149.8410     XY       0.0018     YY    -171.3250
        XZ       0.0133     YZ       0.0042     ZZ    -116.2044

 Total job time:  63.14s(wall), 481.66s(cpu)
        *  Thank you very much for using Q-Chem.  Have a nice day.  *
