 Q-Chem 5.4, Q-Chem, Inc., Pleasanton, CA (2021)
 Q-Chem 5.4.0 for Intel X86 EM64T Linux

User input:
--------------------------------------------------------------
$molecule
0 1
C                 -1.3509150000      1.9274880000      0.8183630000
C                 -2.6652790000      1.3991290000      0.3112820000
C                 -2.6761330000      0.2378820000     -0.3610790000
C                 -1.4554690000     -0.5334660000     -0.6606590000
C                 -0.1243980000     -0.0058370000     -0.1949090000
C                 -0.1125040000      1.1544140000      0.4923570000
O                 -1.5263510000     -1.5820690000     -1.2814450000
H                 -3.5905860000     -0.2077950000     -0.7342320000
O                 -1.3106260000      2.9458190000      1.4810820000
I                  1.6735270000      2.0070080000      1.2120960000
C                  1.0856490000     -0.8215370000     -0.5353740000
C                 -3.8878360000      2.2433320000      0.5999300000
C                 -3.9376260000      3.4508890000     -0.3631160000
C                 -5.2017420000      1.4545540000      0.5591140000
H                  0.7953840000     -1.7078980000     -1.0963490000
H                  1.6121530000     -1.1267050000      0.3734220000
H                  1.7911250000     -0.2333420000     -1.1290860000
H                 -3.7521480000      2.6450730000      1.6088710000
H                 -4.7855750000      4.0928850000     -0.1103950000
H                 -4.0618230000      3.1156620000     -1.3971810000
H                 -3.0298880000      4.0524160000     -0.2976470000
H                 -6.0270070000      2.0990090000      0.8716980000
H                 -5.1772230000      0.5912990000      1.2292340000
H                 -5.4339090000      1.0979600000     -0.4489160000
$end
$rem
MAX_SCF_CYCLES=200
BASIS  =  6-311++G(d,p)
GUI  =  2
JOB_TYPE  =  SP
METHOD  =  B3LYP
SOLVENT_METHOD = COSMO
$end
$solvent
dielectric 37.219
opticaldielectric 1.43
$end

--------------------------------------------------------------

             Standard Nuclear Orientation (Angstroms)
    I     Atom           X                Y                Z
 ----------------------------------------------------------------
    1      C      -0.6527279096    -0.6850244640    -0.1599675709
    2      C      -2.0400596512    -0.1030496515    -0.1384488728
    3      C      -2.1781993163     1.2292825863    -0.0578885877
    4      C      -1.0350369057     2.1550262190     0.0466338696
    5      C       0.3617264072     1.5930459494     0.0638343146
    6      C       0.5034122609     0.2552341162    -0.0302030334
    7      O      -1.2222839791     3.3588363777     0.1224454959
    8      H      -3.1477651107     1.7130546117    -0.0593841506
    9      O      -0.4888455297    -1.8824594752    -0.2907714758
   10      I       2.3953404206    -0.6696691051    -0.0271436863
   11      C       1.4869756667     2.5753994514     0.1833849295
   12      C      -3.1861171801    -1.0895745259    -0.2013996806
   13      C      -3.3851022292    -1.7596300257     1.1768459898
   14      C      -4.4967276357    -0.4760702744    -0.7074613596
   15      H       1.0955571086     3.5890604878     0.2455569409
   16      H       2.1567460170     2.4999949770    -0.6779895436
   17      H       2.0879442656     2.3651440857     1.0726504173
   18      H      -2.8764044931    -1.8758325555    -0.8968458456
   19      H      -4.1704264915    -2.5172968156     1.1116454293
   20      H      -3.6870051432    -1.0211730934     1.9255972503
   21      H      -2.4726649802    -2.2504016140     1.5184754866
   22      H      -5.2494992439    -1.2599644842    -0.8212071203
   23      H      -4.3685070356     0.0099452865    -1.6781412982
   24      H      -4.9008421581     0.2610801782    -0.0071143452
 ----------------------------------------------------------------

    9   -7457.7839958083      6.50e-06  Convergence criterion met
 Total energy in the final basis set =    -7457.7839958083
    5   -7457.7958441780      3.31e-06  Convergence criterion met
 Total energy in the final basis set =    -7457.7958441780

                    Orbital Energies (a.u.)
 --------------------------------------------------------------

 Alpha MOs
 -- Occupied --
********-176.3092-165.7128-165.7109-165.7107 -35.8056 -31.2987 -31.2932
-31.2926 -22.9492 -22.9480 -22.9476 -22.9437 -22.9437 -19.1483 -19.1458
-10.2973 -10.2912 -10.2470 -10.2288 -10.2207 -10.2039 -10.1916 -10.1765
-10.1632 -10.1617  -6.3550  -4.7670  -4.7535  -4.7522  -2.0330  -2.0288
 -2.0278  -2.0162  -2.0161  -1.0835  -1.0772  -0.8759  -0.8359  -0.7795
 -0.7407  -0.6967  -0.6896  -0.6716  -0.6227  -0.5945  -0.5676  -0.5396
 -0.5031  -0.4794  -0.4685  -0.4560  -0.4548  -0.4381  -0.4347  -0.4214
 -0.4156  -0.4075  -0.4013  -0.3872  -0.3805  -0.3636  -0.3528  -0.3430
 -0.3246  -0.3010  -0.2977  -0.2862  -0.2711  -0.2626

          Ground-State Mulliken Net Atomic Charges

     Atom                 Charge (a.u.)
  ----------------------------------------
      1 C                    -1.090975
      2 C                     1.195909
      3 C                    -0.361172
      4 C                    -0.941171
      5 C                     1.087262
      6 C                     0.104916
      7 O                    -0.293984
      8 H                     0.231403
      9 O                    -0.213608
     10 I                     0.042721
     11 C                    -0.348058
     12 C                     0.083981
     13 C                    -0.728452
     14 C                    -0.562045
     15 H                     0.199647
     16 H                     0.189076
     17 H                     0.186855
     18 H                     0.224190
     19 H                     0.162955
     20 H                     0.161817
     21 H                     0.174269
     22 H                     0.190315
     23 H                     0.149123
     24 H                     0.155025
  ----------------------------------------
  Sum of atomic charges =     0.000000

                    Cartesian Multipole Moments
 -----------------------------------------------------------------
    Charge (ESU x 10^10)
                 0.0000
    Dipole Moment (Debye)
         X      -1.4136      Y       0.1259      Z       0.1666
       Tot       1.4290
    Quadrupole Moments (Debye-Ang)
        XX     -87.1212     XY       8.0286     YY    -116.5520
        XZ       0.8347     YZ      -1.2414     ZZ     -99.5856

 Total job time:  41.34s(wall), 296.95s(cpu)
        *  Thank you very much for using Q-Chem.  Have a nice day.  *
