 Gaussian 16, Revision A.03,
 Gaussian 16:  ES64L-G16RevA.03 25-Dec-2016

 -------------------------------
 #P UB3LYP/genecp nosym opt freq
 -------------------------------

 --------
 Oxidized
 --------
 Symbolic Z-matrix:
 Charge =  0 Multiplicity = 1

 SCF Done:  E(UB3LYP) =  -836.066247360     A.U. after   18 cycles
 Optimization completed.
    -- Stationary point found.
 Normal termination of Gaussian 16 at Sat Jan  6 19:50:23 2024.

 ------------------------------------------------------------------
 #P Geom=AllCheck Guess=TCheck SCRF=Check GenChk UB3LYP/GenECP Freq
 ------------------------------------------------------------------

 Structure from the checkpoint file:  "007.chk"
 --------
 Oxidized
 --------
 Charge =  0 Multiplicity = 1

                          Input orientation:
 ---------------------------------------------------------------------
 Center     Atomic      Atomic             Coordinates (Angstroms)
 Number     Number       Type             X           Y           Z
 ---------------------------------------------------------------------
      1          6           0       -1.350915    1.927488    0.818363
      2          6           0       -2.665279    1.399129    0.311282
      3          6           0       -2.676133    0.237882   -0.361079
      4          6           0       -1.455469   -0.533466   -0.660659
      5          6           0       -0.124398   -0.005837   -0.194909
      6          6           0       -0.112504    1.154414    0.492357
      7          8           0       -1.526351   -1.582069   -1.281445
      8          1           0       -3.590586   -0.207795   -0.734232
      9          8           0       -1.310626    2.945819    1.481082
     10         53           0        1.673527    2.007008    1.212096
     11          6           0        1.085649   -0.821537   -0.535374
     12          6           0       -3.887836    2.243332    0.599930
     13          6           0       -3.937626    3.450889   -0.363116
     14          6           0       -5.201742    1.454554    0.559114
     15          1           0        0.795384   -1.707898   -1.096349
     16          1           0        1.612153   -1.126705    0.373422
     17          1           0        1.791125   -0.233342   -1.129086
     18          1           0       -3.752148    2.645073    1.608871
     19          1           0       -4.785575    4.092885   -0.110395
     20          1           0       -4.061823    3.115662   -1.397181
     21          1           0       -3.029888    4.052416   -0.297647
     22          1           0       -6.027007    2.099009    0.871698
     23          1           0       -5.177223    0.591299    1.229234
     24          1           0       -5.433909    1.097960   -0.448916
 ---------------------------------------------------------------------

 SCF Done:  E(UB3LYP) =  -836.066247360     A.U. after    1 cycles

 Alpha  occ. eigenvalues --  -19.14643 -19.14286 -10.29603 -10.28945 -10.24879
 Alpha  occ. eigenvalues --  -10.23070 -10.22618 -10.21066 -10.20194 -10.18416
 Alpha  occ. eigenvalues --  -10.17676 -10.17462  -6.85615  -4.88076  -4.86941
 Alpha  occ. eigenvalues --   -4.86800  -1.92894  -1.92536  -1.92428  -1.91443
 Alpha  occ. eigenvalues --   -1.91440  -1.08090  -1.07372  -0.88018  -0.84317
 Alpha  occ. eigenvalues --   -0.78848  -0.75001  -0.70727  -0.70275  -0.69463
 Alpha  occ. eigenvalues --   -0.63244  -0.60419  -0.57525  -0.54211  -0.50454
 Alpha  occ. eigenvalues --   -0.47969  -0.46991  -0.46284  -0.45984  -0.44523
 Alpha  occ. eigenvalues --   -0.43817  -0.42491  -0.41798  -0.41544  -0.40772
 Alpha  occ. eigenvalues --   -0.39989  -0.38483  -0.37174  -0.36475  -0.35389
 Alpha  occ. eigenvalues --   -0.32492  -0.30379  -0.29661  -0.28440  -0.26898
 Alpha  occ. eigenvalues --   -0.26365
 Alpha virt. eigenvalues --   -0.13772  -0.04652  -0.03759  -0.01422  -0.00788
 Alpha virt. eigenvalues --   -0.00336   0.01047   0.01141   0.02043   0.03196
 Alpha virt. eigenvalues --    0.03260   0.03840   0.04415   0.04556   0.05041

  Beta  occ. eigenvalues --  -19.14643 -19.14286 -10.29603 -10.28945 -10.24879
  Beta  occ. eigenvalues --  -10.23070 -10.22618 -10.21066 -10.20194 -10.18416
  Beta  occ. eigenvalues --  -10.17676 -10.17462  -6.85615  -4.88076  -4.86941
  Beta  occ. eigenvalues --   -4.86800  -1.92894  -1.92536  -1.92428  -1.91443
  Beta  occ. eigenvalues --   -1.91440  -1.08090  -1.07372  -0.88018  -0.84317
  Beta  occ. eigenvalues --   -0.78848  -0.75001  -0.70727  -0.70275  -0.69463
  Beta  occ. eigenvalues --   -0.63244  -0.60419  -0.57525  -0.54211  -0.50454
  Beta  occ. eigenvalues --   -0.47969  -0.46991  -0.46284  -0.45984  -0.44523
  Beta  occ. eigenvalues --   -0.43817  -0.42491  -0.41798  -0.41544  -0.40772
  Beta  occ. eigenvalues --   -0.39989  -0.38483  -0.37174  -0.36475  -0.35389
  Beta  occ. eigenvalues --   -0.32492  -0.30379  -0.29661  -0.28440  -0.26898
  Beta  occ. eigenvalues --   -0.26365
  Beta virt. eigenvalues --   -0.13772  -0.04652  -0.03759  -0.01422  -0.00788
  Beta virt. eigenvalues --   -0.00336   0.01047   0.01141   0.02043   0.03196
  Beta virt. eigenvalues --    0.03260   0.03840   0.04415   0.04556   0.05041

 Mulliken charges and spin densities:
               1          2
     1  C   -1.414010  -0.000000
     2  C    1.149913  -0.000000
     3  C   -0.174837   0.000000
     4  C   -1.021366   0.000000
     5  C    1.163001  -0.000000
     6  C    0.282785   0.000000
     7  O   -0.211815   0.000000
     8  H    0.201266   0.000000
     9  O   -0.139850   0.000000
    10  I   -0.044056  -0.000000
    11  C   -0.345442  -0.000000
    12  C    0.073683   0.000000
    13  C   -0.689491   0.000000
    14  C   -0.508605  -0.000000
    15  H    0.206026  -0.000000
    16  H    0.163715   0.000000
    17  H    0.162438   0.000000
    18  H    0.224217  -0.000000
    19  H    0.145717   0.000000
    20  H    0.147146  -0.000000
    21  H    0.178454   0.000000
    22  H    0.174336   0.000000
    23  H    0.138293  -0.000000
    24  H    0.138485  -0.000000
 Sum of Mulliken charges =  -0.00000   0.00000

 Dipole moment (field-independent basis, Debye):
    X=             -1.0454    Y=              0.2423    Z=             -0.1799  Tot=              1.0881
 Quadrupole moment (field-independent basis, Debye-Ang):
   XX=            -86.0481   YY=           -107.5092   ZZ=           -102.5397
   XY=             -5.7420   XZ=             -1.3073   YZ=             -6.8401

  Exact polarizability: 185.029   0.975 172.779  12.717  36.321 125.092
 Approx polarizability: 243.648  20.054 327.751  22.603  96.620 225.308

                      1                      2                      3
                      A                      A                      A
 Frequencies --     34.3920                64.1370                71.6638
 Red. masses --      4.3627                 3.3488                 2.0840
 Frc consts  --      0.0030                 0.0081                 0.0063
 IR Inten    --      1.5696                 2.4451                 0.1596

                      4                      5                      6
                      A                      A                      A
 Frequencies --     87.4324               115.3274               127.5368
 Red. masses --      1.4724                 5.0351                 5.4521
 Frc consts  --      0.0066                 0.0395                 0.0522
 IR Inten    --      1.2371                 3.1207                 0.4554

                      7                      8                      9
                      A                      A                      A
 Frequencies --    191.8678               209.1679               222.7882
 Red. masses --      4.3097                 3.8817                 5.0067
 Frc consts  --      0.0935                 0.1001                 0.1464
 IR Inten    --      0.6522                 0.1848                 0.1252

                     10                     11                     12
                      A                      A                      A
 Frequencies --    231.6962               247.9183               269.3487
 Red. masses --      1.6702                 1.9962                 1.0851
 Frc consts  --      0.0528                 0.0723                 0.0464
 IR Inten    --      0.1577                 0.1654                 0.0115

                     13                     14                     15
                      A                      A                      A
 Frequencies --    298.8116               347.6480               406.8325
 Red. masses --      3.6024                 3.6006                 2.9133
 Frc consts  --      0.1895                 0.2564                 0.2841
 IR Inten    --      1.6715                 1.0981                 0.1911

                     16                     17                     18
                      A                      A                      A
 Frequencies --    420.8343               448.0703               472.8595
 Red. masses --      6.6256                 4.4587                 6.5220
 Frc consts  --      0.6913                 0.5274                 0.8592
 IR Inten    --     20.9747                 4.8980                 1.1567

                     19                     20                     21
                      A                      A                      A
 Frequencies --    502.3595               543.2409               673.0338
 Red. masses --      5.1628                 3.6777                 4.6551
 Frc consts  --      0.7677                 0.6395                 1.2424
 IR Inten    --      1.6310                 7.1815                 0.5356

                     22                     23                     24
                      A                      A                      A
 Frequencies --    686.9465               712.5292               729.7143
 Red. masses --      5.8403                 4.9447                 5.1721
 Frc consts  --      1.6238                 1.4791                 1.6227
 IR Inten    --     25.5264                 5.1270                17.7501

                     25                     26                     27
                      A                      A                      A
 Frequencies --    793.9647               839.9318               885.3616
 Red. masses --      8.3503                 3.1604                 2.8061
 Frc consts  --      3.1014                 1.3136                 1.2960
 IR Inten    --      3.9833                 6.8478                30.1383

                     28                     29                     30
                      A                      A                      A
 Frequencies --    920.5543               937.3969               969.1772
 Red. masses --      1.4208                 1.1752                 1.4874
 Frc consts  --      0.7094                 0.6084                 0.8232
 IR Inten    --     19.6973                 3.9461                 0.6967

                     31                     32                     33
                      A                      A                      A
 Frequencies --   1024.7579              1041.4676              1051.8848
 Red. masses --      3.1469                 1.4926                 2.1665
 Frc consts  --      1.9470                 0.9538                 1.4124
 IR Inten    --     39.6802                 0.0740                14.4007

                     34                     35                     36
                      A                      A                      A
 Frequencies --   1106.8075              1123.0361              1147.9105
 Red. masses --      1.9919                 2.0214                 2.6288
 Frc consts  --      1.4377                 1.5021                 2.0409
 IR Inten    --     10.2074                 6.6260                40.1043

                     37                     38                     39
                      A                      A                      A
 Frequencies --   1194.6948              1221.1548              1283.6926
 Red. masses --      2.3721                 2.9086                 5.8141
 Frc consts  --      1.9948                 2.5555                 5.6449
 IR Inten    --     22.8715                60.0454               218.3696

                     40                     41                     42
                      A                      A                      A
 Frequencies --   1311.7780              1325.4748              1388.2143
 Red. masses --      1.5941                 1.3261                 1.4675
 Frc consts  --      1.6162                 1.3727                 1.6662
 IR Inten    --      6.5975                 4.5954                 1.2311

                     43                     44                     45
                      A                      A                      A
 Frequencies --   1402.6366              1404.5354              1421.2129
 Red. masses --      1.3360                 1.2464                 1.2226
 Frc consts  --      1.5487                 1.4487                 1.4550
 IR Inten    --      9.2573                14.1490                 4.2153

                     46                     47                     48
                      A                      A                      A
 Frequencies --   1475.2241              1488.5907              1489.4888
 Red. masses --      1.0781                 1.0440                 1.0464
 Frc consts  --      1.3823                 1.3630                 1.3677
 IR Inten    --     28.8042                14.8270                 1.2397

                     49                     50                     51
                      A                      A                      A
 Frequencies --   1493.5621              1508.8258              1513.4273
 Red. masses --      1.0490                 1.0432                 1.0568
 Frc consts  --      1.3786                 1.3992                 1.4262
 IR Inten    --      4.7559                11.0245                 9.9121

                     52                     53                     54
                      A                      A                      A
 Frequencies --   1619.2392              1685.8933              1708.7875
 Red. masses --      9.9752                 8.7641                10.6596
 Frc consts  --     15.4097                14.6763                18.3386
 IR Inten    --    102.5160                 6.0727               223.5777

                     55                     56                     57
                      A                      A                      A
 Frequencies --   1720.4502              3024.5655              3027.6337
 Red. masses --     13.0323                 1.0357                 1.0393
 Frc consts  --     22.7278                 5.5821                 5.6133
 IR Inten    --    222.6344                18.9089                26.6797

                     58                     59                     60
                      A                      A                      A
 Frequencies --   3033.9329              3043.4326              3082.7541
 Red. masses --      1.0386                 1.0799                 1.0994
 Frc consts  --      5.6324                 5.8934                 6.1560
 IR Inten    --      3.2592                 3.1201                 5.3634

                     61                     62                     63
                      A                      A                      A
 Frequencies --   3085.7785              3092.9428              3096.7698
 Red. masses --      1.1013                 1.1011                 1.1019
 Frc consts  --      6.1788                 6.2060                 6.2258
 IR Inten    --      5.1536                38.7888                33.0890

                     64                     65                     66
                      A                      A                      A
 Frequencies --   3114.7372              3142.8707              3190.4184
 Red. masses --      1.1007                 1.0988                 1.0912
 Frc consts  --      6.2918                 6.3947                 6.5442
 IR Inten    --     15.8192                 4.8893                 2.9781

 - Thermochemistry -
 -------------------
 Temperature   298.150 Kelvin.  Pressure   1.00000 Atm.
 Atom     1 has atomic number  6 and mass  12.00000

 Molecular mass:   289.97630 amu.
 Principal axes and moments of inertia in atomic units:
                           1         2         3
     Eigenvalues --  2205.671725626.103157552.24638
           X            0.97664  -0.15669  -0.14704
           Y            0.07540   0.89067  -0.44835
           Z            0.20122   0.42679   0.88168
 This molecule is an asymmetric top.
 Rotational symmetry number  1.
 Warning -- assumption of classical behavior for rotation
           may cause significant error
 Rotational temperatures (Kelvin)      0.03927     0.01540     0.01147
 Rotational constants (GHZ):           0.81823     0.32078     0.23897
 Zero-point vibrational energy     487784.1 (Joules/Mol)
                                  116.58319 (Kcal/Mol)
 Warning -- explicit consideration of  20 degrees of freedom as
           vibrations may cause significant error
 Vibrational temperatures:     49.48    92.28   103.11   125.80   165.93
          (Kelvin)            183.50   276.06   300.95   320.54   333.36
                              356.70   387.53   429.92   500.19   585.34
                              605.49   644.67   680.34   722.78   781.60
                              968.35   988.36  1025.17  1049.90  1142.34
                             1208.47  1273.84  1324.47  1348.71  1394.43
                             1474.40  1498.44  1513.43  1592.45  1615.80
                             1651.59  1718.90  1756.97  1846.95  1887.36
                             1907.06  1997.33  2018.08  2020.81  2044.81
                             2122.52  2141.75  2143.04  2148.90  2170.86
                             2177.48  2329.72  2425.62  2458.56  2475.34
                             4351.68  4356.09  4365.15  4378.82  4435.40
                             4439.75  4450.05  4455.56  4481.41  4521.89
                             4590.30

 Zero-point correction=                           0.185787 (Hartree/Particle)
 Thermal correction to Energy=                    0.199735
 Thermal correction to Enthalpy=                  0.200679
 Thermal correction to Gibbs Free Energy=         0.143144
 Sum of electronic and zero-point Energies=           -835.880460
 Sum of electronic and thermal Energies=              -835.866512
 Sum of electronic and thermal Enthalpies=            -835.865568
 Sum of electronic and thermal Free Energies=         -835.923104

                     E (Thermal)             CV                S
                      KCal/Mol        Cal/Mol-Kelvin    Cal/Mol-Kelvin
 Total                  125.336             49.760            121.093
 Electronic               0.000              0.000              0.000
 Translational            0.889              2.981             42.891
 Rotational               0.889              2.981             32.905
 Vibrational            123.558             43.798             45.297
 Vibration     1          0.594              1.983              5.558
 Vibration     2          0.597              1.971              4.326
 Vibration     3          0.598              1.968              4.107
 Vibration     4          0.601              1.958              3.717
 Vibration     5          0.608              1.937              3.177
 Vibration     6          0.611              1.926              2.983
 Vibration     7          0.634              1.851              2.210
 Vibration     8          0.642              1.827              2.051
 Vibration     9          0.648              1.806              1.936
 Vibration    10          0.653              1.793              1.866
 Vibration    11          0.662              1.766              1.745
 Vibration    12          0.674              1.730              1.600
 Vibration    13          0.692              1.676              1.424
 Vibration    14          0.725              1.580              1.177
 Vibration    15          0.772              1.455              0.938
 Vibration    16          0.783              1.425              0.889
 Vibration    17          0.807              1.365              0.802
 Vibration    18          0.830              1.310              0.730
 Vibration    19          0.858              1.245              0.652
 Vibration    20          0.898              1.154              0.558

                           ! Non-Optimized Parameters !
 Normal termination of Gaussian 16 at Sat Jan  6 20:08:32 2024.
