 Gaussian 16, Revision A.03,
 Gaussian 16:  ES64L-G16RevA.03 25-Dec-2016

 --------------------------------------
 #P UB3LYP/6-311++G(d,p) nosym opt freq
 --------------------------------------

 --------
 Oxidized
 --------
 Symbolic Z-matrix:
 Charge =  0 Multiplicity = 1

 SCF Done:  E(UB3LYP) =  -914.636565546     A.U. after   16 cycles
 SCF Done:  E(UB3LYP) =  -914.672563347     A.U. after   14 cycles
 SCF Done:  E(UB3LYP) =  -914.683329193     A.U. after   14 cycles
 SCF Done:  E(UB3LYP) =  -914.690739029     A.U. after   13 cycles
 SCF Done:  E(UB3LYP) =  -914.691028214     A.U. after   13 cycles
 SCF Done:  E(UB3LYP) =  -914.691242116     A.U. after   12 cycles
 SCF Done:  E(UB3LYP) =  -914.691296604     A.U. after   11 cycles
 SCF Done:  E(UB3LYP) =  -914.691715953     A.U. after   13 cycles
 SCF Done:  E(UB3LYP) =  -914.633108280     A.U. after   16 cycles
 SCF Done:  E(UB3LYP) =  -914.696078271     A.U. after   14 cycles
 SCF Done:  E(UB3LYP) =  -914.698769518     A.U. after   13 cycles
 SCF Done:  E(UB3LYP) =  -914.698831299     A.U. after   12 cycles
 SCF Done:  E(UB3LYP) =  -914.698839773     A.U. after   11 cycles
 SCF Done:  E(UB3LYP) =  -914.698843113     A.U. after   10 cycles
 SCF Done:  E(UB3LYP) =  -914.698844895     A.U. after   10 cycles
 SCF Done:  E(UB3LYP) =  -914.698845446     A.U. after   10 cycles
 SCF Done:  E(UB3LYP) =  -914.698845726     A.U. after   10 cycles
 SCF Done:  E(UB3LYP) =  -914.698845850     A.U. after    9 cycles
 SCF Done:  E(UB3LYP) =  -914.698845873     A.U. after    8 cycles
 Optimization completed.
    -- Stationary point found.
 Normal termination of Gaussian 16 at Thu Dec 21 21:25:35 2023.

 ----------------------------------------------------------------------
 #P Geom=AllCheck Guess=TCheck SCRF=Check GenChk UB3LYP/6-311++G(d,p) F
 req
 ----------------------------------------------------------------------

 Structure from the checkpoint file:  "202.chk"
 --------
 Oxidized
 --------
 Charge =  0 Multiplicity = 1

                          Input orientation:
 ---------------------------------------------------------------------
 Center     Atomic      Atomic             Coordinates (Angstroms)
 Number     Number       Type             X           Y           Z
 ---------------------------------------------------------------------
      1          8           0        4.978368    0.577910   -0.655432
      2          6           0        3.709193    0.117235   -0.479615
      3          6           0        3.537651   -1.273416   -0.419803
      4          6           0        2.272260   -1.804031   -0.242583
      5          6           0        1.153055   -0.969143   -0.121277
      6          6           0       -0.192176   -1.582474    0.068370
      7          8           0       -0.306524   -2.796430    0.116503
      8          6           0       -1.357209   -0.658017    0.192392
      9          6           0       -2.657828   -1.148123    0.372302
     10          8           0       -2.893487   -2.482468    0.438630
     11          6           0       -3.732975   -0.243631    0.485470
     12          6           0       -3.544729    1.116408    0.424395
     13          6           0       -2.254138    1.641305    0.244734
     14          8           0       -2.134878    2.974365    0.193181
     15          6           0       -1.159053    0.757007    0.128493
     16          6           0        0.178787    1.330743   -0.058616
     17          8           0        0.352314    2.559661   -0.114083
     18          6           0        1.335752    0.418176   -0.182488
     19          6           0        2.610812    0.961914   -0.361275
     20          1           0        4.980527    1.541183   -0.681747
     21          1           0        4.407912   -1.911547   -0.514489
     22          1           0        2.121148   -2.875101   -0.194110
     23          1           0       -3.837651   -2.630037    0.563872
     24          1           0       -4.735445   -0.639124    0.624675
     25          1           0       -4.375271    1.805770    0.512108
     26          1           0       -1.173207    3.171363    0.064660
     27          1           0        2.716793    2.040500   -0.404265
 ---------------------------------------------------------------------

 SCF Done:  E(UB3LYP) =  -914.698845872     A.U. after    1 cycles

 Alpha  occ. eigenvalues --  -19.18080 -19.17442 -19.15854 -19.13900 -19.11312
 Alpha  occ. eigenvalues --  -10.28895 -10.27217 -10.26798 -10.26667 -10.26662
 Alpha  occ. eigenvalues --  -10.21331 -10.21325 -10.21306 -10.21246 -10.20571
 Alpha  occ. eigenvalues --  -10.20238 -10.20133 -10.19987 -10.19920  -1.09349
 Alpha  occ. eigenvalues --   -1.09175  -1.08997  -1.05942  -1.04835  -0.89487
 Alpha  occ. eigenvalues --   -0.88126  -0.81870  -0.78515  -0.77451  -0.76870
 Alpha  occ. eigenvalues --   -0.69934  -0.68282  -0.66564  -0.63782  -0.60653
 Alpha  occ. eigenvalues --   -0.59376  -0.58475  -0.56082  -0.53939  -0.51879
 Alpha  occ. eigenvalues --   -0.50659  -0.49249  -0.48963  -0.46838  -0.46241
 Alpha  occ. eigenvalues --   -0.46009  -0.45659  -0.44201  -0.43868  -0.43090
 Alpha  occ. eigenvalues --   -0.43058  -0.41693  -0.41594  -0.40009  -0.39992
 Alpha  occ. eigenvalues --   -0.38791  -0.38539  -0.37372  -0.35433  -0.33474
 Alpha  occ. eigenvalues --   -0.29400  -0.29143  -0.28336  -0.26123  -0.25627
 Alpha  occ. eigenvalues --   -0.23499
 Alpha virt. eigenvalues --   -0.11804  -0.06683  -0.03983  -0.02113  -0.01883
 Alpha virt. eigenvalues --   -0.01675   0.00434   0.00639   0.01290   0.03082
 Alpha virt. eigenvalues --    0.03366   0.03529   0.04121   0.04149   0.04555

  Beta  occ. eigenvalues --  -19.18080 -19.17442 -19.15854 -19.13900 -19.11312
  Beta  occ. eigenvalues --  -10.28895 -10.27217 -10.26798 -10.26667 -10.26662
  Beta  occ. eigenvalues --  -10.21331 -10.21325 -10.21306 -10.21246 -10.20571
  Beta  occ. eigenvalues --  -10.20238 -10.20133 -10.19987 -10.19920  -1.09349
  Beta  occ. eigenvalues --   -1.09175  -1.08997  -1.05942  -1.04835  -0.89487
  Beta  occ. eigenvalues --   -0.88126  -0.81870  -0.78515  -0.77451  -0.76870
  Beta  occ. eigenvalues --   -0.69934  -0.68282  -0.66564  -0.63782  -0.60653
  Beta  occ. eigenvalues --   -0.59376  -0.58475  -0.56082  -0.53939  -0.51879
  Beta  occ. eigenvalues --   -0.50659  -0.49249  -0.48963  -0.46838  -0.46241
  Beta  occ. eigenvalues --   -0.46009  -0.45659  -0.44201  -0.43868  -0.43090
  Beta  occ. eigenvalues --   -0.43058  -0.41693  -0.41594  -0.40009  -0.39992
  Beta  occ. eigenvalues --   -0.38791  -0.38539  -0.37372  -0.35433  -0.33474
  Beta  occ. eigenvalues --   -0.29400  -0.29143  -0.28336  -0.26123  -0.25627
  Beta  occ. eigenvalues --   -0.23499
  Beta virt. eigenvalues --   -0.11804  -0.06683  -0.03983  -0.02113  -0.01883
  Beta virt. eigenvalues --   -0.01675   0.00434   0.00639   0.01290   0.03082
  Beta virt. eigenvalues --    0.03366   0.03529   0.04121   0.04149   0.04555

 Mulliken charges and spin densities:
               1          2
     1  O   -0.219601  -0.000000
     2  C   -0.623202   0.000000
     3  C   -0.109964   0.000000
     4  C    0.208068  -0.000000
     5  C   -0.207947   0.000000
     6  C   -0.493529   0.000000
     7  O   -0.209665  -0.000000
     8  C    0.342042   0.000000
     9  C   -0.235377   0.000000
    10  O   -0.157674   0.000000
    11  C   -0.187099   0.000000
    12  C   -0.019059  -0.000000
    13  C   -0.332571   0.000000
    14  O   -0.284748  -0.000000
    15  C    0.792184  -0.000000
    16  C   -0.445528  -0.000000
    17  O   -0.278434  -0.000000
    18  C    0.442689  -0.000000
    19  C    0.246153  -0.000000
    20  H    0.275469   0.000000
    21  H    0.210264   0.000000
    22  H    0.187078   0.000000
    23  H    0.261452  -0.000000
    24  H    0.144706   0.000000
    25  H    0.205004  -0.000000
    26  H    0.337667   0.000000
    27  H    0.151625   0.000000
 Sum of Mulliken charges =  -0.00000   0.00000

 Dipole moment (field-independent basis, Debye):
    X=             -1.1201    Y=              0.8315    Z=              0.1194  Tot=              1.4001
 Quadrupole moment (field-independent basis, Debye-Ang):
   XX=            -81.7123   YY=           -118.5208   ZZ=           -109.8395
   XY=             10.3953   XZ=             -3.9605   YZ=             -1.1100

  Exact polarizability: 287.420  -2.453 207.124 -25.924  -3.010  88.338
 Approx polarizability: 436.695   5.182 401.363 -38.577  -7.855 142.373

                      1                      2                      3
                      A                      A                      A
 Frequencies --     31.5057                70.1608                95.7260
 Red. masses --      8.0726                 6.8364                 6.6476
 Frc consts  --      0.0047                 0.0198                 0.0359
 IR Inten    --      5.8911                 0.0134                 0.5235

                      4                      5                      6
                      A                      A                      A
 Frequencies --    137.2789               160.7376               173.7556
 Red. masses --      6.6849                 7.5207                 6.8731
 Frc consts  --      0.0742                 0.1145                 0.1223
 IR Inten    --      1.3947                 0.0151                 0.8699

                      7                      8                      9
                      A                      A                      A
 Frequencies --    206.6921               274.8427               288.5707
 Red. masses --      6.1904                 7.5035                 2.9373
 Frc consts  --      0.1558                 0.3340                 0.1441
 IR Inten    --      0.9777                 3.9517                31.1230

                     10                     11                     12
                      A                      A                      A
 Frequencies --    315.9738               322.5547               357.0189
 Red. masses --      7.7185                 1.3469                 1.2127
 Frc consts  --      0.4540                 0.0826                 0.0911
 IR Inten    --      0.7777                46.4079               106.7996

                     13                     14                     15
                      A                      A                      A
 Frequencies --    363.9046               367.9878               405.1182
 Red. masses --      4.6073                10.5983                 6.4342
 Frc consts  --      0.3595                 0.8456                 0.6222
 IR Inten    --     20.3497                 4.7029                 9.0681

                     16                     17                     18
                      A                      A                      A
 Frequencies --    430.1273               431.2673               439.6258
 Red. masses --      3.5014                 6.9995                 7.5056
 Frc consts  --      0.3817                 0.7670                 0.8547
 IR Inten    --      4.6346                21.0686                 9.0062

                     19                     20                     21
                      A                      A                      A
 Frequencies --    454.2222               456.7466               489.2579
 Red. masses --      5.8873                10.6726                 6.9736
 Frc consts  --      0.7157                 1.3118                 0.9835
 IR Inten    --      0.9789                13.3148                 7.1531

                     22                     23                     24
                      A                      A                      A
 Frequencies --    520.5577               551.4114               577.6393
 Red. masses --      7.1023                 4.6789                 3.6264
 Frc consts  --      1.1339                 0.8382                 0.7129
 IR Inten    --      1.0731                 4.7885                16.6720

                     25                     26                     27
                      A                      A                      A
 Frequencies --    596.8497               663.1982               674.6641
 Red. masses --      5.2216                 4.2314                 6.5976
 Frc consts  --      1.0959                 1.0965                 1.7693
 IR Inten    --     11.0860                 3.3602                10.0098

                     28                     29                     30
                      A                      A                      A
 Frequencies --    695.9075               710.8523               738.3426
 Red. masses --      7.4344                 6.2858                 7.3086
 Frc consts  --      2.1213                 1.8714                 2.3475
 IR Inten    --      3.5498                 0.1381                12.0239

                     31                     32                     33
                      A                      A                      A
 Frequencies --    765.6081               783.4918               817.6467
 Red. masses --      4.9527                 5.6619                 1.2515
 Frc consts  --      1.7104                 2.0478                 0.4929
 IR Inten    --      0.3781                 0.2233               148.2617

                     34                     35                     36
                      A                      A                      A
 Frequencies --    837.4748               842.0025               865.7900
 Red. masses --      1.4574                 8.0141                 1.5454
 Frc consts  --      0.6023                 3.3476                 0.6825
 IR Inten    --      4.7113                60.2336                14.6262

                     37                     38                     39
                      A                      A                      A
 Frequencies --    886.6269               890.5281               948.1267
 Red. masses --      7.3194                 1.4673                 6.6962
 Frc consts  --      3.3900                 0.6856                 3.5466
 IR Inten    --     33.5417                13.8201                34.6928

                     40                     41                     42
                      A                      A                      A
 Frequencies --    948.9442               991.4447              1002.4271
 Red. masses --      1.2916                 4.2513                 1.3163
 Frc consts  --      0.6853                 2.4621                 0.7793
 IR Inten    --      0.1236                13.1750                 0.7755

                     43                     44                     45
                      A                      A                      A
 Frequencies --   1080.1086              1108.7368              1164.2407
 Red. masses --      2.4322                 2.2457                 1.6093
 Frc consts  --      1.6718                 1.6265                 1.2852
 IR Inten    --     62.1037                13.3169                42.2707

                     46                     47                     48
                      A                      A                      A
 Frequencies --   1180.5635              1190.0543              1215.7360
 Red. masses --      1.3548                 1.3317                 1.8511
 Frc consts  --      1.1125                 1.1112                 1.6120
 IR Inten    --     20.7588               297.4062                73.8024

                     49                     50                     51
                      A                      A                      A
 Frequencies --   1244.2540              1256.9074              1278.9841
 Red. masses --      2.1777                 1.9747                 5.3011
 Frc consts  --      1.9864                 1.8381                 5.1091
 IR Inten    --    137.9747                70.2490               385.8316

                     52                     53                     54
                      A                      A                      A
 Frequencies --   1302.4312              1318.1814              1337.6399
 Red. masses --      2.7881                 3.7757                 2.6165
 Frc consts  --      2.7865                 3.8655                 2.7584
 IR Inten    --    336.4977               184.7490                45.2148

                     55                     56                     57
                      A                      A                      A
 Frequencies --   1377.8815              1383.1123              1405.3742
 Red. masses --      3.1567                 5.6597                 6.5541
 Frc consts  --      3.5311                 6.3791                 7.6269
 IR Inten    --    193.3443                 9.6991                36.8760

                     58                     59                     60
                      A                      A                      A
 Frequencies --   1474.8182              1487.0666              1493.9667
 Red. masses --      3.8563                 3.5219                 2.3865
 Frc consts  --      4.9420                 4.5887                 3.1383
 IR Inten    --    148.6456                88.4158               204.4810

                     61                     62                     63
                      A                      A                      A
 Frequencies --   1524.9807              1616.9602              1622.0739
 Red. masses --      3.1844                 7.7671                 3.3698
 Frc consts  --      4.3632                11.9649                 5.2239
 IR Inten    --     17.4718                49.3961               122.6839

                     64                     65                     66
                      A                      A                      A
 Frequencies --   1622.8363              1634.3350              1674.0782
 Red. masses --      6.7325                 6.5148                 8.0756
 Frc consts  --     10.4467                10.2526                13.3345
 IR Inten    --     81.8289               170.9510               149.4641

                     67                     68                     69
                      A                      A                      A
 Frequencies --   1718.7086              3148.9026              3177.1857
 Red. masses --     11.6682                 1.0898                 1.0907
 Frc consts  --     20.3076                 6.3665                 6.4870
 IR Inten    --    170.5934                14.7124                 9.4068

                     70                     71                     72
                      A                      A                      A
 Frequencies --   3190.4064              3199.8362              3205.6987
 Red. masses --      1.0890                 1.0934                 1.0942
 Frc consts  --      6.5309                 6.5963                 6.6251
 IR Inten    --      1.0919                 1.5062                 4.2118

                     73                     74                     75
                      A                      A                      A
 Frequencies --   3287.8756              3814.5172              3825.7126
 Red. masses --      1.0683                 1.0661                 1.0662
 Frc consts  --      6.8042                 9.1394                 9.1942
 IR Inten    --    211.0643                88.8939                92.9142

 - Thermochemistry -
 -------------------
 Temperature   298.150 Kelvin.  Pressure   1.00000 Atm.
 Atom     1 has atomic number  8 and mass  15.99491

 Molecular mass:   256.03717 amu.
 Principal axes and moments of inertia in atomic units:
                           1         2         3
     Eigenvalues --  2589.256066246.757498836.01317
           X            0.99170   0.01816   0.12729
           Y           -0.02177   0.99940   0.02698
           Z           -0.12673  -0.02953   0.99150
 This molecule is an asymmetric top.
 Rotational symmetry number  1.
 Warning -- assumption of classical behavior for rotation
           may cause significant error
 Rotational temperatures (Kelvin)      0.03345     0.01387     0.00980
 Rotational constants (GHZ):           0.69701     0.28891     0.20425
 Zero-point vibrational energy     503309.5 (Joules/Mol)
                                  120.29385 (Kcal/Mol)
 Warning -- explicit consideration of  25 degrees of freedom as
           vibrations may cause significant error
 Vibrational temperatures:     45.33   100.95   137.73   197.51   231.27
          (Kelvin)            250.00   297.38   395.44   415.19   454.62
                              464.08   513.67   523.58   529.45   582.87
                              618.86   620.50   632.52   653.52   657.16
                              703.93   748.97   793.36   831.09   858.73
                              954.19   970.69  1001.26  1022.76  1062.31
                             1101.54  1127.27  1176.41  1204.94  1211.45
                             1245.68  1275.66  1281.27  1364.14  1365.32
                             1426.47  1442.27  1554.04  1595.22  1675.08
                             1698.57  1712.22  1749.17  1790.20  1808.41
                             1840.17  1873.91  1896.57  1924.57  1982.46
                             1989.99  2022.02  2121.93  2139.56  2149.48
                             2194.11  2326.45  2333.80  2334.90  2351.44
                             2408.63  2472.84  4530.57  4571.26  4590.28
                             4603.85  4612.29  4730.52  5488.24  5504.35

 Zero-point correction=                           0.191700 (Hartree/Particle)
 Thermal correction to Energy=                    0.206275
 Thermal correction to Enthalpy=                  0.207219
 Thermal correction to Gibbs Free Energy=         0.150204
 Sum of electronic and zero-point Energies=           -914.507145
 Sum of electronic and thermal Energies=              -914.492571
 Sum of electronic and thermal Enthalpies=            -914.491627
 Sum of electronic and thermal Free Energies=         -914.548641

                     E (Thermal)             CV                S
                      KCal/Mol        Cal/Mol-Kelvin    Cal/Mol-Kelvin
 Total                  129.439             58.625            119.997
 Electronic               0.000              0.000              0.000
 Translational            0.889              2.981             42.520
 Rotational               0.889              2.981             33.324
 Vibrational            127.662             52.663             44.153
 Vibration     1          0.594              1.983              5.732
 Vibration     2          0.598              1.968              4.149
 Vibration     3          0.603              1.952              3.540
 Vibration     4          0.614              1.916              2.841
 Vibration     5          0.622              1.890              2.541
 Vibration     6          0.627              1.875              2.394
 Vibration     7          0.641              1.830              2.073
 Vibration     8          0.677              1.720              1.566
 Vibration     9          0.685              1.695              1.482
 Vibration    10          0.703              1.643              1.331
 Vibration    11          0.708              1.630              1.297
 Vibration    12          0.732              1.561              1.135
 Vibration    13          0.737              1.547              1.105
 Vibration    14          0.741              1.538              1.088
 Vibration    15          0.770              1.459              0.944
 Vibration    16          0.791              1.405              0.858
 Vibration    17          0.792              1.402              0.855
 Vibration    18          0.800              1.384              0.828
 Vibration    19          0.813              1.352              0.783
 Vibration    20          0.815              1.346              0.776
 Vibration    21          0.845              1.274              0.686
 Vibration    22          0.876              1.204              0.609
 Vibration    23          0.907              1.137              0.541
 Vibration    24          0.934              1.080              0.490
 Vibration    25          0.955              1.038              0.455

 Optimization completed.
    -- Stationary point found.
 Normal termination of Gaussian 16 at Thu Dec 21 22:15:34 2023.
