 Q-Chem 5.4, Q-Chem, Inc., Pleasanton, CA (2021)
 Q-Chem 5.4.0 for Intel X86 EM64T Linux

User input:
--------------------------------------------------------------
$molecule
0 1
O                 -2.6878420000     -0.1734870000      0.4461790000
C                 -1.3912890000      0.0072970000      0.2430250000
C                 -0.7850470000      1.2154900000      0.2846030000
C                  0.6346730000      1.2833430000      0.0451210000
O                  1.3082130000      2.3087770000      0.0518020000
C                  1.3913120000     -0.0072660000     -0.2430780000
C                  0.7850660000     -1.2155010000     -0.2842470000
C                 -0.6346450000     -1.2833020000     -0.0447570000
O                 -1.3083820000     -2.3086160000     -0.0513620000
O                  2.6878160000      0.1733690000     -0.4468650000
H                 -2.8408890000     -1.1382240000      0.3559620000
H                 -1.3253680000      2.1304040000      0.4894950000
H                  1.3253470000     -2.1304490000     -0.4890340000
H                  2.8410350000      1.1381650000     -0.3568440000
$end
$rem
MAX_SCF_CYCLES=200
BASIS  =  6-311++G(d,p)
GUI  =  2
JOB_TYPE  =  SP
METHOD  =  B3LYP
SOLVENT_METHOD = COSMO
$end
$solvent
dielectric 37.219
opticaldielectric 1.43
$end

--------------------------------------------------------------

             Standard Nuclear Orientation (Angstroms)
    I     Atom           X                Y                Z
 ----------------------------------------------------------------
    1      O       2.4616898673     1.1805328437     0.0006373501
    2      C       1.2281675167     0.6973907016     0.0000328974
    3      C       0.1181372719     1.4699324209    -0.0007190615
    4      C      -1.1709326550     0.8250611774    -0.0001366034
    5      O      -2.2538958724     1.4016080098     0.0001379896
    6      C      -1.2282279366    -0.6974203642     0.0000557426
    7      C      -0.1181360025    -1.4699206498     0.0004033024
    8      C       1.1709015794    -0.8250070674    -0.0001823532
    9      O       2.2539847505    -1.4013444022    -0.0004835335
   10      O      -2.4616938284    -1.1807863336     0.0000612118
   11      H       3.0550504403     0.3993778011     0.0006508948
   12      H       0.1622317721     2.5511589539    -0.0007594282
   13      H      -0.1621695122    -2.5511385573     0.0003437352
   14      H      -3.0552506788    -0.3996964507     0.0002171086
 ----------------------------------------------------------------

    9    -532.0852441919      6.66e-06  Convergence criterion met
 Total energy in the final basis set =     -532.0852441919
    5    -532.1004826608      4.45e-06  Convergence criterion met
 Total energy in the final basis set =     -532.1004826608

                    Orbital Energies (a.u.)
 --------------------------------------------------------------

 Alpha MOs
 -- Occupied --
-19.1926 -19.1926 -19.1518 -19.1518 -10.2976 -10.2976 -10.2858 -10.2858
-10.1984 -10.1984  -1.1233  -1.1211  -1.0731  -1.0724  -0.8645  -0.7908
 -0.7128  -0.6521  -0.6438  -0.6021  -0.5510  -0.5378  -0.4881  -0.4872
 -0.4833  -0.4668  -0.4609  -0.4521  -0.4175  -0.4155  -0.4012  -0.3920
 -0.3143  -0.3031  -0.2965  -0.2652

          Ground-State Mulliken Net Atomic Charges

     Atom                 Charge (a.u.)
  ----------------------------------------
      1 O                    -0.212700
      2 C                    -0.115962
      3 C                     0.181206
      4 C                    -0.086652
      5 O                    -0.364102
      6 C                    -0.116001
      7 C                     0.181037
      8 C                    -0.086813
      9 O                    -0.364117
     10 O                    -0.212683
     11 H                     0.328209
     12 H                     0.270175
     13 H                     0.270173
     14 H                     0.328229
  ----------------------------------------
  Sum of atomic charges =     0.000000

                    Cartesian Multipole Moments
 -----------------------------------------------------------------
    Charge (ESU x 10^10)
                 0.0000
    Dipole Moment (Debye)
         X      -0.0013      Y      -0.0009      Z       0.0020
       Tot       0.0025
    Quadrupole Moments (Debye-Ang)
        XX     -61.4922     XY       5.5523     YY     -62.5424
        XZ       0.0035     YZ      -0.0037     ZZ     -56.5227

 Total job time:  13.76s(wall), 85.38s(cpu)
        *  Thank you very much for using Q-Chem.  Have a nice day.  *
