 Q-Chem 5.4, Q-Chem, Inc., Pleasanton, CA (2021)
 Q-Chem 5.4.0 for Intel X86 EM64T Linux

User input:
--------------------------------------------------------------
$molecule
-1 2
C                  5.9103840000     -5.2109520000      1.0722550000
C                  6.7834000000     -5.0768970000      0.0077330000
C                  6.5531070000     -4.0900490000     -0.9692070000
C                  4.7867560000     -4.3711220000      1.1966590000
C                  4.5553060000     -3.3791100000      0.2146640000
C                  5.4543400000     -3.2566070000     -0.8623890000
C                  3.8845690000     -4.5525330000      2.3491450000
C                  2.7590930000     -3.6426270000      2.3897720000
C                  2.5323850000     -2.6707460000      1.4277830000
C                  3.3981670000     -2.4674650000      0.2852530000
O                  4.0913150000     -5.4296720000      3.2160240000
O                  3.1958960000     -1.5911260000     -0.5834920000
H                  6.0612130000     -5.9610780000      1.8398150000
H                  7.6454430000     -5.7320560000     -0.0744310000
H                  5.2506220000     -2.4876820000     -1.5984820000
Cl                 1.6687130000     -3.8378100000      3.7533860000
H                  7.2373520000     -3.9833310000     -1.8055810000
Cl                 1.1460900000     -1.5969380000      1.5353940000
$end
$rem
MAX_SCF_CYCLES=200
BASIS  =  6-311++G(d,p)
GUI  =  2
JOB_TYPE  =  SP
METHOD  =  B3LYP
SOLVENT_METHOD = PCM
$end
$pcm
theory = CPCM
$end
$solvent
dielectric 37.219
opticaldielectric 1.43
$end

--------------------------------------------------------------

             Standard Nuclear Orientation (Angstroms)
    I     Atom           X                Y                Z
 ----------------------------------------------------------------
    1      C       5.9103840000    -5.2109520000     1.0722550000
    2      C       6.7834000000    -5.0768970000     0.0077330000
    3      C       6.5531070000    -4.0900490000    -0.9692070000
    4      C       4.7867560000    -4.3711220000     1.1966590000
    5      C       4.5553060000    -3.3791100000     0.2146640000
    6      C       5.4543400000    -3.2566070000    -0.8623890000
    7      C       3.8845690000    -4.5525330000     2.3491450000
    8      C       2.7590930000    -3.6426270000     2.3897720000
    9      C       2.5323850000    -2.6707460000     1.4277830000
   10      C       3.3981670000    -2.4674650000     0.2852530000
   11      O       4.0913150000    -5.4296720000     3.2160240000
   12      O       3.1958960000    -1.5911260000    -0.5834920000
   13      H       6.0612130000    -5.9610780000     1.8398150000
   14      H       7.6454430000    -5.7320560000    -0.0744310000
   15      H       5.2506220000    -2.4876820000    -1.5984820000
   16      Cl      1.6687130000    -3.8378100000     3.7533860000
   17      H       7.2373520000    -3.9833310000    -1.8055810000
   18      Cl      1.1460900000    -1.5969380000     1.5353940000
 ----------------------------------------------------------------

    8   -1454.6603390255      9.59e-06  Convergence criterion met
 Total energy in the final basis set =    -1454.6603390255

                    Orbital Energies (a.u.)
 --------------------------------------------------------------

 Alpha MOs
 -- Occupied --
********-101.5567 -19.0917 -19.0917 -10.2442 -10.2442 -10.2381 -10.2376
-10.1852 -10.1847 -10.1781 -10.1777 -10.1764 -10.1764  -9.4712  -9.4712
 -7.2357  -7.2357  -7.2265  -7.2265  -7.2256  -7.2255  -1.0230  -1.0201
 -0.8979  -0.8650  -0.8503  -0.7953  -0.7584  -0.7331  -0.6841  -0.6222
 -0.6131  -0.5715  -0.5319  -0.5067  -0.4801  -0.4656  -0.4432  -0.4341
 -0.4340  -0.4295  -0.4218  -0.4101  -0.3997  -0.3792  -0.3654  -0.3488
 -0.3480  -0.3373  -0.3305  -0.3074  -0.2793  -0.2633  -0.2631  -0.2558
 -0.2522  -0.1675

 Beta MOs
 -- Occupied --
********-101.5567 -19.0860 -19.0859 -10.2426 -10.2426 -10.2361 -10.2356
-10.1849 -10.1844 -10.1779 -10.1774 -10.1763 -10.1763  -9.4712  -9.4711
 -7.2357  -7.2357  -7.2261  -7.2261  -7.2255  -7.2254  -1.0130  -1.0099
 -0.8945  -0.8638  -0.8486  -0.7917  -0.7566  -0.7310  -0.6751  -0.6205
 -0.6099  -0.5687  -0.5298  -0.5043  -0.4772  -0.4647  -0.4325  -0.4322
 -0.4284  -0.4266  -0.4181  -0.4071  -0.3768  -0.3757  -0.3644  -0.3473
 -0.3356  -0.3316  -0.3297  -0.3069  -0.2589  -0.2578  -0.2571  -0.2504
 -0.2448

          Ground-State Mulliken Net Atomic Charges

     Atom                 Charge (a.u.)    Spin (a.u.)
  --------------------------------------------------------
      1 C                    -0.052567       0.033049
      2 C                    -0.471229       0.019076
      3 C                    -0.469216       0.019057
      4 C                     0.534757       0.023851
      5 C                     0.537113       0.023856
      6 C                    -0.053819       0.033042
      7 C                    -1.784954       0.096135
      8 C                     0.939614       0.106115
      9 C                     0.944731       0.106004
     10 C                    -1.786433       0.096123
     11 O                    -0.421256       0.216946
     12 O                    -0.421134       0.216953
     13 H                     0.186341      -0.002329
     14 H                     0.206232      -0.001673
     15 H                     0.186689      -0.002330
     16 Cl                    0.359173       0.008884
     17 H                     0.206363      -0.001672
     18 Cl                    0.359594       0.008912
  --------------------------------------------------------
  Sum of atomic charges =    -1.000000

                    Cartesian Multipole Moments
 -----------------------------------------------------------------
    Charge (ESU x 10^10)
                -4.8032
    Dipole Moment (Debye)
         X     -13.7854      Y      15.5430      Z      -8.5306
       Tot      22.4587
    Quadrupole Moments (Debye-Ang)
        XX    -135.1129     XY      47.2585     YY    -165.3894
        XZ     -30.7034     YZ      45.3710     ZZ    -129.0147

 Total job time:  30.51s(wall), 192.54s(cpu)
        *  Thank you very much for using Q-Chem.  Have a nice day.  *
