 Q-Chem 5.4, Q-Chem, Inc., Pleasanton, CA (2021)
 Q-Chem 5.4.0 for Intel X86 EM64T Linux

User input:
--------------------------------------------------------------
$molecule
0 1
O                 -0.1394400000     -2.4647890000      0.3148940000
C                 -0.0710330000     -1.2509620000      0.1598980000
C                 -1.3060320000     -0.4230480000      0.1799600000
C                 -2.5293630000     -1.0901040000      0.3814600000
C                 -3.7283190000     -0.4035660000      0.4151090000
C                 -3.7329560000      0.9873620000      0.2455310000
C                 -2.5455340000      1.6696750000      0.0457190000
C                 -1.3261030000      0.9722740000      0.0113930000
S                  0.1107670000      1.9567600000     -0.2498420000
C                  1.4257000000      0.7849580000     -0.2356470000
C                  2.7143810000      1.3115060000     -0.4263460000
C                  3.8156850000      0.4732930000     -0.4321520000
C                  3.6542600000     -0.9063740000     -0.2479790000
C                  2.3870870000     -1.4248960000     -0.0603130000
C                  1.2484570000     -0.5969210000     -0.0495620000
H                 -2.4907380000     -2.1648190000      0.5090210000
H                 -4.6584980000     -0.9367780000      0.5714860000
H                 -4.6669810000      1.5372990000      0.2698660000
H                 -2.5512570000      2.7462120000     -0.0853270000
H                  2.8417580000      2.3789370000     -0.5691340000
H                  4.8046090000      0.8921830000     -0.5803250000
H                  4.5167770000     -1.5621670000     -0.2526330000
H                  2.2267740000     -2.4860360000      0.0849240000
$end
$rem
MAX_SCF_CYCLES=200
BASIS  =  6-311++G(d,p)
GUI  =  2
JOB_TYPE  =  SP
METHOD  =  B3LYP
SOLVENT_METHOD = PCM
$end
$pcm
theory = CPCM
$end
$solvent
dielectric 37.219
opticaldielectric 1.43
$end

--------------------------------------------------------------

             Standard Nuclear Orientation (Angstroms)
    I     Atom           X                Y                Z
 ----------------------------------------------------------------
    1      O      -0.1394400000    -2.4647890000     0.3148940000
    2      C      -0.0710330000    -1.2509620000     0.1598980000
    3      C      -1.3060320000    -0.4230480000     0.1799600000
    4      C      -2.5293630000    -1.0901040000     0.3814600000
    5      C      -3.7283190000    -0.4035660000     0.4151090000
    6      C      -3.7329560000     0.9873620000     0.2455310000
    7      C      -2.5455340000     1.6696750000     0.0457190000
    8      C      -1.3261030000     0.9722740000     0.0113930000
    9      S       0.1107670000     1.9567600000    -0.2498420000
   10      C       1.4257000000     0.7849580000    -0.2356470000
   11      C       2.7143810000     1.3115060000    -0.4263460000
   12      C       3.8156850000     0.4732930000    -0.4321520000
   13      C       3.6542600000    -0.9063740000    -0.2479790000
   14      C       2.3870870000    -1.4248960000    -0.0603130000
   15      C       1.2484570000    -0.5969210000    -0.0495620000
   16      H      -2.4907380000    -2.1648190000     0.5090210000
   17      H      -4.6584980000    -0.9367780000     0.5714860000
   18      H      -4.6669810000     1.5372990000     0.2698660000
   19      H      -2.5512570000     2.7462120000    -0.0853270000
   20      H       2.8417580000     2.3789370000    -0.5691340000
   21      H       4.8046090000     0.8921830000    -0.5803250000
   22      H       4.5167770000    -1.5621670000    -0.2526330000
   23      H       2.2267740000    -2.4860360000     0.0849240000
 ----------------------------------------------------------------

    9    -973.8130211593      1.55e-06  Convergence criterion met
 Total energy in the final basis set =     -973.8130211593

                    Orbital Energies (a.u.)
 --------------------------------------------------------------

 Alpha MOs
 -- Occupied --
-88.8878 -19.1144 -10.2740 -10.2368 -10.2367 -10.2035 -10.2034 -10.1945
-10.1945 -10.1939 -10.1939 -10.1908 -10.1908 -10.1864 -10.1864  -7.9742
 -5.9377  -5.9337  -5.9291  -1.0527  -0.9016  -0.8797  -0.8253  -0.7875
 -0.7741  -0.7679  -0.7232  -0.6658  -0.6387  -0.6155  -0.6068  -0.5613
 -0.5511  -0.5056  -0.4843  -0.4829  -0.4760  -0.4492  -0.4454  -0.4414
 -0.4414  -0.4331  -0.4013  -0.3923  -0.3867  -0.3820  -0.3705  -0.3602
 -0.3450  -0.3323  -0.2821  -0.2764  -0.2748  -0.2737  -0.2294

          Ground-State Mulliken Net Atomic Charges

     Atom                 Charge (a.u.)
  ----------------------------------------
      1 O                    -0.331339
      2 C                    -0.063300
      3 C                     1.819197
      4 C                     0.294637
      5 C                    -0.451665
      6 C                    -0.212025
      7 C                    -0.530340
      8 C                    -1.141859
      9 S                    -0.896831
     10 C                    -1.135527
     11 C                    -0.527842
     12 C                    -0.214749
     13 C                    -0.449888
     14 C                     0.300656
     15 C                     1.813802
     16 H                     0.201366
     17 H                     0.216461
     18 H                     0.215939
     19 H                     0.229834
     20 H                     0.229676
     21 H                     0.215870
     22 H                     0.216512
     23 H                     0.201415
  ----------------------------------------
  Sum of atomic charges =     0.000000

                    Cartesian Multipole Moments
 -----------------------------------------------------------------
    Charge (ESU x 10^10)
                -0.0000
    Dipole Moment (Debye)
         X       0.2388      Y       4.3058      Z      -0.5509
       Tot       4.3474
    Quadrupole Moments (Debye-Ang)
        XX     -65.8197     XY      -2.0921     YY     -95.8481
        XZ      -2.9940     YZ      -0.1883     ZZ     -98.7128

 Total job time:  37.47s(wall), 264.50s(cpu)
        *  Thank you very much for using Q-Chem.  Have a nice day.  *
