 Q-Chem 5.4, Q-Chem, Inc., Pleasanton, CA (2021)
 Q-Chem 5.4.0 for Intel X86 EM64T Linux

User input:
--------------------------------------------------------------
$molecule
-2 1
C                  2.6521810000      1.4395060000      0.8661480000
C                  2.3289120000      0.5215050000     -0.3337490000
C                  3.5879860000     -0.2414300000     -0.7696240000
C                  1.1182260000     -0.3520010000     -0.0384690000
C                  1.2334400000     -1.7029160000      0.2950740000
C                  0.1184020000     -2.5595620000      0.5795080000
O                  0.2426840000     -3.8082220000      0.8982180000
C                 -1.1497760000     -1.8989970000      0.4728310000
C                 -1.3066070000     -0.5529660000      0.1361520000
C                 -2.7139040000      0.0264010000      0.0539950000
C                 -2.9437010000      1.1520070000      1.0842380000
C                 -3.0554910000      0.5207620000     -1.3672330000
C                 -0.1718880000      0.2954750000     -0.1306440000
O                 -0.2946340000      1.5527800000     -0.4457450000
H                  3.4741770000      2.1354820000      0.6318550000
H                  2.9529180000      0.8403840000      1.7348850000
H                  1.7646300000      2.0189870000      1.1274680000
H                  2.0283540000      1.1903810000     -1.1518200000
H                  4.3864200000      0.4542450000     -1.0579760000
H                  3.3803980000     -0.8969860000     -1.6217840000
H                  3.9798660000     -0.8715500000      0.0374710000
H                  2.2138130000     -2.1709440000      0.3591350000
H                 -2.0340870000     -2.5068120000      0.6739010000
H                 -3.4095860000     -0.7905420000      0.2965140000
H                 -2.2272310000      1.9556720000      0.8967350000
H                 -3.9683850000      1.5519830000      1.0197640000
H                 -2.7867890000      0.7759030000      2.1012030000
H                 -4.0772640000      0.9301370000     -1.4155840000
H                 -2.9834570000     -0.3039650000     -2.0849440000
H                 -2.3396050000      1.2952850000     -1.6543770000
$end

$rem
BASIS  =  6-311++G(d,p)
GUI  =  2
JOB_TYPE  =  SP
METHOD  =  B3LYP
SCF_CONVERGENCE  = 8
SOLVENT_METHOD = sm12
$end

$smx
solvent dimethylformamide
charges CM5
$end

--------------------------------------------------------------

             Standard Nuclear Orientation (Angstroms)
    I     Atom           X                Y                Z
 ----------------------------------------------------------------
    1      C       2.6521810000     1.4395060000     0.8661480000
    2      C       2.3289120000     0.5215050000    -0.3337490000
    3      C       3.5879860000    -0.2414300000    -0.7696240000
    4      C       1.1182260000    -0.3520010000    -0.0384690000
    5      C       1.2334400000    -1.7029160000     0.2950740000
    6      C       0.1184020000    -2.5595620000     0.5795080000
    7      O       0.2426840000    -3.8082220000     0.8982180000
    8      C      -1.1497760000    -1.8989970000     0.4728310000
    9      C      -1.3066070000    -0.5529660000     0.1361520000
   10      C      -2.7139040000     0.0264010000     0.0539950000
   11      C      -2.9437010000     1.1520070000     1.0842380000
   12      C      -3.0554910000     0.5207620000    -1.3672330000
   13      C      -0.1718880000     0.2954750000    -0.1306440000
   14      O      -0.2946340000     1.5527800000    -0.4457450000
   15      H       3.4741770000     2.1354820000     0.6318550000
   16      H       2.9529180000     0.8403840000     1.7348850000
   17      H       1.7646300000     2.0189870000     1.1274680000
   18      H       2.0283540000     1.1903810000    -1.1518200000
   19      H       4.3864200000     0.4542450000    -1.0579760000
   20      H       3.3803980000    -0.8969860000    -1.6217840000
   21      H       3.9798660000    -0.8715500000     0.0374710000
   22      H       2.2138130000    -2.1709440000     0.3591350000
   23      H      -2.0340870000    -2.5068120000     0.6739010000
   24      H      -3.4095860000    -0.7905420000     0.2965140000
   25      H      -2.2272310000     1.9556720000     0.8967350000
   26      H      -3.9683850000     1.5519830000     1.0197640000
   27      H      -2.7867890000     0.7759030000     2.1012030000
   28      H      -4.0772640000     0.9301370000    -1.4155840000
   29      H      -2.9834570000    -0.3039650000    -2.0849440000
   30      H      -2.3396050000     1.2952850000    -1.6543770000
 ----------------------------------------------------------------

   18    -617.4781823922      3.06e-09  Convergence criterion met
 Total energy in the final basis set =     -617.7706685852

                    Orbital Energies (a.u.)
 --------------------------------------------------------------

 Alpha MOs
 -- Occupied --
-19.0173 -19.0133 -10.1786 -10.1773 -10.1744 -10.1722 -10.1692 -10.1650
-10.1621 -10.1618 -10.1414 -10.1405 -10.1335 -10.1328  -0.9296  -0.9265
 -0.8105  -0.8055  -0.7634  -0.7031  -0.6906  -0.6863  -0.6522  -0.6067
 -0.5919  -0.5347  -0.5221  -0.4718  -0.4506  -0.4465  -0.4359  -0.4317
 -0.4244  -0.4120  -0.4024  -0.3922  -0.3894  -0.3670  -0.3621  -0.3566
 -0.3512  -0.3459  -0.3418  -0.3363  -0.3312  -0.3171  -0.3124  -0.3015
 -0.2238  -0.2228  -0.1929  -0.1905  -0.1197

          Ground-State Mulliken Net Atomic Charges

     Atom                 Charge (a.u.)
  ----------------------------------------
      1 C                    -0.119141
      2 C                     1.768650
      3 C                     0.659544
      4 C                     0.944209
      5 C                    -1.974060
      6 C                    -1.908966
      7 O                    -0.427641
      8 C                    -1.885498
      9 C                    -0.224367
     10 C                     1.921651
     11 C                     0.059992
     12 C                     0.062921
     13 C                    -2.833660
     14 O                    -0.197792
     15 H                     0.338556
     16 H                     0.098571
     17 H                     0.112068
     18 H                     0.041972
     19 H                     0.467915
     20 H                     0.085632
     21 H                     0.177273
     22 H                    -0.241809
     23 H                    -0.163281
     24 H                     0.171527
     25 H                     0.111089
     26 H                     0.349438
     27 H                     0.070181
     28 H                     0.348641
     29 H                     0.069991
     30 H                     0.116395
  ----------------------------------------
  Sum of atomic charges =    -2.000000

                    Cartesian Multipole Moments
 -----------------------------------------------------------------
    Charge (ESU x 10^10)
                -9.6064
    Dipole Moment (Debye)
         X       0.4563      Y      11.0096      Z      -2.4645
       Tot      11.2913
    Quadrupole Moments (Debye-Ang)
        XX    -118.2459     XY       4.5390     YY    -168.7175
        XZ      -1.5540     YZ      15.5594     ZZ    -105.5627

 Total job time:  748.69s(wall), 5814.95s(cpu)
        *  Thank you very much for using Q-Chem.  Have a nice day.  *
