 Gaussian 16, Revision A.03,
 Gaussian 16:  ES64L-G16RevA.03 25-Dec-2016

 ----------------------------------------------------------------
 #P UB3LYP/6-311++G(d,p) SCRF=(PCM,Solvent=n,n-DiMethylFormamide)
 ----------------------------------------------------------------

 ------------------
 Radical PCM in DMF
 ------------------
 Symbolic Z-matrix:
 Charge = -1 Multiplicity = 2

                         Standard orientation:
 ---------------------------------------------------------------------
 Center     Atomic      Atomic             Coordinates (Angstroms)
 Number     Number       Type             X           Y           Z
 ---------------------------------------------------------------------
      1          6           0        3.547488   -1.690166    0.000040
      2          6           0        4.846883   -1.219154    0.000268
      3          6           0        5.087919    0.170008    0.000391
      4          6           0        2.451820   -0.803613   -0.000054
      5          6           0        2.693529    0.596765    0.000073
      6          6           0        4.028102    1.056144    0.000289
      7          6           0        1.086434   -1.355448   -0.000222
      8          6           0       -0.004869   -0.372292   -0.000228
      9          6           0        0.249201    1.035488   -0.000156
     10          6           0        1.599476    1.578311    0.000018
     11          6           0       -1.330447   -0.828175   -0.000237
     12          6           0       -0.857086    1.919858   -0.000207
     13          6           0       -2.150673    1.456135   -0.000226
     14          8           0        0.877866   -2.585579   -0.000419
     15          8           0        1.826440    2.814830   -0.000184
     16          1           0        3.329762   -2.751956   -0.000044
     17          1           0       -2.982875    2.148178   -0.000236
     18          1           0        4.184999    2.128480    0.000372
     19          1           0       -1.505783   -1.896828   -0.000232
     20          1           0       -0.642542    2.982075   -0.000215
     21          6           0       -2.406379    0.054786   -0.000191
     22          1           0        6.108093    0.542509    0.000566
     23          6           0       -3.769305   -0.496831    0.000018
     24          8           0       -4.077507   -1.673413    0.000236
     25          8           0       -4.731963    0.483313    0.000058
     26          6           0       -6.081114    0.016837    0.000457
     27          1           0       -6.702236    0.912439   -0.000291
     28          1           0       -6.287015   -0.586566    0.887758
     29          1           0       -6.287028   -0.588123   -0.885764
     30          1           0        5.680064   -1.915342    0.000361
 ---------------------------------------------------------------------

 SCF Done:  E(UB3LYP) =  -917.047398447     A.U. after   19 cycles

 The electronic state is 2-A.
 Alpha  occ. eigenvalues --  -19.16816 -19.11601 -19.08544 -19.07963 -10.30606
 Alpha  occ. eigenvalues --  -10.23551 -10.22710 -10.22039 -10.19079 -10.18440
 Alpha  occ. eigenvalues --  -10.18071 -10.18005 -10.17956 -10.17888 -10.17824
 Alpha  occ. eigenvalues --  -10.17755 -10.17653 -10.17483 -10.17444 -10.17325
 Alpha  occ. eigenvalues --   -1.10765  -1.02243  -1.01489  -1.00564  -0.86988
 Alpha  occ. eigenvalues --   -0.85848  -0.79816  -0.76556  -0.75507  -0.75355
 Alpha  occ. eigenvalues --   -0.72279  -0.67574  -0.64897  -0.62875  -0.59678
 Alpha  occ. eigenvalues --   -0.57833  -0.56322  -0.54371  -0.53497  -0.49924
 Alpha  occ. eigenvalues --   -0.48678  -0.48509  -0.47410  -0.46275  -0.45836
 Alpha  occ. eigenvalues --   -0.43903  -0.43244  -0.42877  -0.42751  -0.42000
 Alpha  occ. eigenvalues --   -0.41140  -0.41031  -0.40856  -0.38919  -0.38673
 Alpha  occ. eigenvalues --   -0.36864  -0.36714  -0.35645  -0.34906  -0.34354
 Alpha  occ. eigenvalues --   -0.33834  -0.31260  -0.29114  -0.27374  -0.26618
 Alpha  occ. eigenvalues --   -0.26011  -0.25520  -0.25272  -0.24271  -0.14804
 Alpha virt. eigenvalues --   -0.06956  -0.04353  -0.01134  -0.00505   0.00133
 Alpha virt. eigenvalues --    0.01172   0.01424   0.01483   0.02253   0.03006
 Alpha virt. eigenvalues --    0.03567   0.03805   0.04478   0.04570   0.05001

  Beta  occ. eigenvalues --  -19.16809 -19.11540 -19.08070 -19.07369 -10.30596
  Beta  occ. eigenvalues --  -10.23429 -10.22534 -10.22039 -10.18997 -10.18488
  Beta  occ. eigenvalues --  -10.17986 -10.17890 -10.17847 -10.17837 -10.17756
  Beta  occ. eigenvalues --  -10.17736 -10.17603 -10.17483 -10.17453 -10.17305
  Beta  occ. eigenvalues --   -1.10720  -1.02167  -1.00667  -0.99517  -0.86726
  Beta  occ. eigenvalues --   -0.85732  -0.79431  -0.76342  -0.75302  -0.75235
  Beta  occ. eigenvalues --   -0.72165  -0.66882  -0.64740  -0.62625  -0.59613
  Beta  occ. eigenvalues --   -0.57722  -0.56119  -0.54205  -0.53360  -0.49736
  Beta  occ. eigenvalues --   -0.48610  -0.48420  -0.47130  -0.46146  -0.45762
  Beta  occ. eigenvalues --   -0.43840  -0.43212  -0.42713  -0.41780  -0.41464
  Beta  occ. eigenvalues --   -0.41009  -0.40794  -0.40478  -0.38742  -0.36676
  Beta  occ. eigenvalues --   -0.36533  -0.36444  -0.35531  -0.34852  -0.33689
  Beta  occ. eigenvalues --   -0.33175  -0.31115  -0.29050  -0.26171  -0.25414
  Beta  occ. eigenvalues --   -0.25105  -0.24951  -0.24800  -0.23756
  Beta virt. eigenvalues --   -0.09138  -0.06143  -0.03345  -0.00823  -0.00494
  Beta virt. eigenvalues --    0.00136   0.01180   0.01493   0.02130   0.02254
  Beta virt. eigenvalues --    0.03013   0.03605   0.03807   0.04510   0.04785

 Mulliken charges and spin densities:
               1          2
     1  C    0.049172   0.009979
     2  C   -0.447014   0.041174
     3  C   -0.448298   0.012646
     4  C    0.454891   0.032419
     5  C    0.376748   0.004933
     6  C    0.025175   0.039502
     7  C   -0.653554   0.067717
     8  C    0.333200   0.073066
     9  C    0.273095   0.092223
    10  C   -0.768535   0.093086
    11  C   -0.008648  -0.023126
    12  C   -0.104954   0.029034
    13  C   -0.610594   0.067667
    14  O   -0.420689   0.174642
    15  O   -0.444352   0.222040
    16  H    0.164651  -0.000696
    17  H    0.200647  -0.004856
    18  H    0.167877  -0.002762
    19  H    0.163625   0.001475
    20  H    0.173471  -0.001335
    21  C    0.174619   0.060814
    22  H    0.186272  -0.001381
    23  C    0.179266  -0.007522
    24  O   -0.346829   0.021068
    25  O   -0.142954   0.001662
    26  C   -0.237225  -0.000520
    27  H    0.161573  -0.000065
    28  H    0.181278   0.000150
    29  H    0.181251   0.000149
    30  H    0.186836  -0.003181
 Sum of Mulliken charges =  -1.00000   1.00000

 Dipole moment (field-independent basis, Debye):
    X=             -3.4094    Y=              1.3451    Z=              0.0016  Tot=              3.6651
 Quadrupole moment (field-independent basis, Debye-Ang):
   XX=           -116.1833   YY=           -154.3813   ZZ=           -120.5669
   XY=            -17.6269   XZ=              0.0018   YZ=              0.0002

 Normal termination of Gaussian 16 at Tue Jan 16 06:08:02 2024.
