 Q-Chem 5.4, Q-Chem, Inc., Pleasanton, CA (2021)
 Q-Chem 5.4.0 for Intel X86 EM64T Linux

User input:
--------------------------------------------------------------
$molecule
-1 2
C                 -2.7481820000     -1.6291090000      0.0446460000
O                 -2.2479190000     -0.6505660000     -0.8705430000
C                 -1.2057720000      0.1164790000     -0.4214510000
C                 -1.3432270000      1.4794800000     -0.3322090000
Br                -3.0341910000      2.2914930000     -0.7437920000
C                 -0.2716220000      2.3881410000      0.0615440000
O                 -0.4120570000      3.6226960000      0.1363030000
C                  0.9814470000      1.7021090000      0.3587320000
C                  1.1535930000      0.3422440000      0.2834350000
O                  2.3469080000     -0.2202210000      0.6518800000
C                  3.0409400000     -0.9451080000     -0.3670950000
C                  0.0611300000     -0.5376440000     -0.1153210000
O                  0.2034690000     -1.7885110000     -0.1909650000
Br                 2.4532800000      2.8169740000      0.8866660000
H                 -3.1430640000     -1.1407490000      0.9441460000
H                 -3.5643480000     -2.1337400000     -0.4753900000
H                 -1.9696270000     -2.3447830000      0.3118160000
H                  3.9565750000     -1.3125340000      0.0996380000
H                  2.4388880000     -1.7798790000     -0.7282380000
H                  3.3037810000     -0.2767710000     -1.1963830000
$end
$rem
MAX_SCF_CYCLES=200
BASIS  =  6-311++G(d,p)
GUI  =  2
JOB_TYPE  =  SP
METHOD  =  B3LYP
SOLVENT_METHOD = COSMO
$end
$solvent
dielectric 37.219
opticaldielectric 1.43
$end

--------------------------------------------------------------

             Standard Nuclear Orientation (Angstroms)
    I     Atom           X                Y                Z
 ----------------------------------------------------------------
    1      C      -2.7951336434    -2.5583737197     0.8519579423
    2      O      -2.4192006685    -1.6992059588    -0.2278038530
    3      C      -1.2338593133    -1.0291221778    -0.0792588288
    4      C      -1.2152351324     0.3435667458    -0.0764310082
    5      Br     -2.8685718681     1.3150624535    -0.1803475886
    6      C       0.0000575860     1.1474614684     0.0001222256
    7      O       0.0001169913     2.3922252752     0.0002066524
    8      C       1.2153342508     0.3434694624     0.0765552903
    9      C       1.2337738224    -1.0291876851     0.0795618712
   10      O       2.4189540214    -1.6996084631     0.2278964926
   11      C       2.7946614848    -2.5579945255    -0.8525982554
   12      C      -0.0000790998    -1.8024915747     0.0002352869
   13      O      -0.0000693688    -3.0637015720     0.0002393097
   14      Br      2.8687461229     1.3147590567     0.1802681705
   15      H      -2.9302321062    -1.9755011758     1.7714880051
   16      H      -3.7516766687    -2.9979532381     0.5638397114
   17      H      -2.0496950653    -3.3400152063     1.0038621357
   18      H       3.7513134406    -2.9977433484    -0.5650795254
   19      H       2.0492596711    -3.3396392837    -1.0047202712
   20      H       2.9294042772    -1.9745428190    -1.7717863808
 ----------------------------------------------------------------

    9   -5757.8360144749      8.44e-06  Convergence criterion met
 Total energy in the final basis set =    -5757.8360144749
    4   -5757.9178588347      8.44e-06  Convergence criterion met
 Total energy in the final basis set =    -5757.9178588347

                    Orbital Energies (a.u.)
 --------------------------------------------------------------

 Alpha MOs
 -- Occupied --
********-482.8293 -62.4821 -62.4821 -56.3025 -56.3025 -56.2988 -56.2988
-56.2985 -56.2985 -19.1497 -19.1497 -19.0966 -19.0964 -10.2532 -10.2428
-10.2421 -10.2420 -10.2254 -10.2253 -10.2092 -10.2092  -8.6907  -8.6907
 -6.5220  -6.5220  -6.5097  -6.5097  -6.5086  -6.5086  -2.6330  -2.6329
 -2.6297  -2.6297  -2.6288  -2.6288  -2.6190  -2.6190  -2.6189  -2.6189
 -1.0715  -1.0647  -1.0286  -1.0129  -0.8571  -0.8217  -0.7795  -0.7422
 -0.7157  -0.6763  -0.6722  -0.5908  -0.5853  -0.5329  -0.5190  -0.4896
 -0.4762  -0.4625  -0.4585  -0.4415  -0.4341  -0.4320  -0.4211  -0.3972
 -0.3928  -0.3873  -0.3645  -0.3576  -0.3316  -0.3212  -0.3064  -0.3063
 -0.2891  -0.2868  -0.2747  -0.2622  -0.2500  -0.2377  -0.1778

 Beta MOs
 -- Occupied --
********-482.8293 -62.4821 -62.4821 -56.3025 -56.3025 -56.2988 -56.2988
-56.2985 -56.2985 -19.1495 -19.1495 -19.0904 -19.0893 -10.2519 -10.2412
-10.2411 -10.2407 -10.2243 -10.2243 -10.2092 -10.2091  -8.6907  -8.6907
 -6.5221  -6.5221  -6.5096  -6.5096  -6.5086  -6.5086  -2.6330  -2.6330
 -2.6296  -2.6296  -2.6288  -2.6288  -2.6189  -2.6189  -2.6189  -2.6189
 -1.0696  -1.0640  -1.0181  -1.0010  -0.8524  -0.8205  -0.7770  -0.7410
 -0.7121  -0.6711  -0.6688  -0.5875  -0.5816  -0.5309  -0.5173  -0.4885
 -0.4704  -0.4604  -0.4550  -0.4401  -0.4296  -0.4275  -0.4072  -0.3936
 -0.3865  -0.3687  -0.3631  -0.3521  -0.3292  -0.3084  -0.3052  -0.3022
 -0.2888  -0.2856  -0.2580  -0.2539  -0.2448  -0.2322

          Ground-State Mulliken Net Atomic Charges

     Atom                 Charge (a.u.)    Spin (a.u.)
  --------------------------------------------------------
      1 C                    -0.304617       0.002453
      2 O                    -0.178318       0.001198
      3 C                    -0.440311       0.082977
      4 C                     1.177520       0.075206
      5 Br                   -0.068201       0.005398
      6 C                    -0.944707       0.078969
      7 O                    -0.392134       0.219142
      8 C                     1.177722       0.075177
      9 C                    -0.439782       0.082962
     10 O                    -0.178618       0.001172
     11 C                    -0.304596       0.002472
     12 C                    -0.574276       0.104089
     13 O                    -0.463501       0.262439
     14 Br                   -0.068140       0.005398
     15 H                     0.145204       0.000276
     16 H                     0.175876       0.000508
     17 H                     0.179883      -0.000306
     18 H                     0.176019       0.000510
     19 H                     0.179874      -0.000310
     20 H                     0.145103       0.000272
  --------------------------------------------------------
  Sum of atomic charges =    -1.000000

                    Cartesian Multipole Moments
 -----------------------------------------------------------------
    Charge (ESU x 10^10)
                -4.8032
    Dipole Moment (Debye)
         X      -0.0012      Y      -2.6553      Z      -0.0015
       Tot       2.6553
    Quadrupole Moments (Debye-Ang)
        XX    -116.6104     XY       0.0064     YY    -139.8477
        XZ      -9.5273     YZ       0.0030     ZZ    -108.0747

 Total job time:  76.63s(wall), 358.28s(cpu)
        *  Thank you very much for using Q-Chem.  Have a nice day.  *
