 Gaussian 16, Revision A.03,
 Gaussian 16:  ES64L-G16RevA.03 25-Dec-2016

 ----------------------------------------------------------------------
 #P UB3LYP/6-311++G(d,p) nosym opt freq SCRF=(PCM,Solvent=n,n-DiMethylF
 ormamide)
 ----------------------------------------------------------------------

 --------
 Oxidized
 --------
 Symbolic Z-matrix:
 Charge =  0 Multiplicity = 1

 SCF Done:  E(UB3LYP) =  -954.030432938     A.U. after   15 cycles
 SCF Done:  E(UB3LYP) =  -954.030591908     A.U. after   11 cycles
 SCF Done:  E(UB3LYP) =  -954.030649864     A.U. after   11 cycles
 SCF Done:  E(UB3LYP) =  -954.030661996     A.U. after   10 cycles
 SCF Done:  E(UB3LYP) =  -954.030665148     A.U. after   10 cycles
 SCF Done:  E(UB3LYP) =  -954.030666515     A.U. after    9 cycles
 SCF Done:  E(UB3LYP) =  -954.030667318     A.U. after    8 cycles
 SCF Done:  E(UB3LYP) =  -954.030667402     A.U. after    8 cycles
 Optimization completed.
    -- Stationary point found.
 Normal termination of Gaussian 16 at Sat Feb 10 22:32:15 2024.

 ----------------------------------------------------------------------
 #P Geom=AllCheck Guess=TCheck SCRF=Check GenChk UB3LYP/6-311++G(d,p) F
 req
 ----------------------------------------------------------------------

 Structure from the checkpoint file:  "191.chk"
 --------
 Oxidized
 --------
 Charge =  0 Multiplicity = 1

                          Input orientation:
 ---------------------------------------------------------------------
 Center     Atomic      Atomic             Coordinates (Angstroms)
 Number     Number       Type             X           Y           Z
 ---------------------------------------------------------------------
      1          6           0        4.896080   -2.930595   -0.311735
      2          6           0        5.658133   -2.062633   -1.083870
      3          6           0        5.122476   -0.863147   -1.531182
      4          6           0        3.585467   -2.591430    0.017647
      5          6           0        3.006860   -1.372530   -0.416943
      6          6           0        3.804270   -0.500123   -1.212118
      7          6           0        2.817362   -3.561135    0.839158
      8          6           0        1.443178   -3.245892    1.197713
      9          6           0        0.857676   -2.019756    0.771693
     10          6           0        1.615700   -1.049402   -0.035391
     11          6           0        0.696567   -4.156123    1.967487
     12          6           0       -0.635265   -3.846259    2.311731
     13          6           0       -0.470699   -1.733859    1.131813
     14          6           0       -1.202242   -2.664272    1.902802
     15          8           0        3.348857   -4.626154    1.208012
     16          8           0        1.066488    0.015877   -0.374404
     17          8           0        1.198907   -5.324900    2.397332
     18          1           0        5.300331   -3.869333    0.040426
     19          1           0        6.678562   -2.318200   -1.343842
     20          1           0        5.733242   -0.205696   -2.132285
     21          8           0        3.261806    0.654358   -1.637719
     22          1           0        2.132191   -5.367854    2.065499
     23          8           0       -1.098026   -0.600710    0.775397
     24          1           0       -2.224698   -2.419657    2.164379
     25          1           0       -1.196805   -4.558638    2.903742
     26          1           0       -0.434198   -0.079533    0.249480
     27          6           0        4.041343    1.550744   -2.441907
     28          1           0        3.383277    2.391004   -2.650505
     29          1           0        4.341063    1.078225   -3.380405
     30          1           0        4.922354    1.901453   -1.899020
 ---------------------------------------------------------------------

 SCF Done:  E(UB3LYP) =  -954.030667402     A.U. after    1 cycles

 Alpha  occ. eigenvalues --  -19.17526 -19.16463 -19.16042 -19.13861 -19.13356
 Alpha  occ. eigenvalues --  -10.28915 -10.28883 -10.27161 -10.26823 -10.26599
 Alpha  occ. eigenvalues --  -10.23086 -10.21556 -10.21509 -10.21069 -10.20986
 Alpha  occ. eigenvalues --  -10.20483 -10.20371 -10.20334 -10.19882 -10.19411
 Alpha  occ. eigenvalues --   -1.09543  -1.09233  -1.08793  -1.05970  -1.05441
 Alpha  occ. eigenvalues --   -0.89599  -0.87966  -0.82115  -0.78854  -0.78050
 Alpha  occ. eigenvalues --   -0.76671  -0.72257  -0.70254  -0.66896  -0.66790
 Alpha  occ. eigenvalues --   -0.63132  -0.59946  -0.57877  -0.56541  -0.55401
 Alpha  occ. eigenvalues --   -0.54194  -0.52500  -0.51221  -0.49905  -0.48800
 Alpha  occ. eigenvalues --   -0.48555  -0.46921  -0.46872  -0.46562  -0.45841
 Alpha  occ. eigenvalues --   -0.43983  -0.43527  -0.43340  -0.42988  -0.42760
 Alpha  occ. eigenvalues --   -0.40336  -0.40187  -0.39763  -0.38896  -0.38677
 Alpha  occ. eigenvalues --   -0.38202  -0.35539  -0.34690  -0.33446  -0.29629
 Alpha  occ. eigenvalues --   -0.29590  -0.28324  -0.27654  -0.25382  -0.23361
 Alpha virt. eigenvalues --   -0.12455  -0.06712  -0.04381  -0.01153  -0.00715
 Alpha virt. eigenvalues --    0.00118   0.00557   0.01288   0.01692   0.02974
 Alpha virt. eigenvalues --    0.02981   0.03263   0.03310   0.03856   0.03945

  Beta  occ. eigenvalues --  -19.17526 -19.16463 -19.16042 -19.13861 -19.13356
  Beta  occ. eigenvalues --  -10.28915 -10.28883 -10.27161 -10.26823 -10.26599
  Beta  occ. eigenvalues --  -10.23086 -10.21556 -10.21509 -10.21069 -10.20986
  Beta  occ. eigenvalues --  -10.20483 -10.20371 -10.20334 -10.19882 -10.19411
  Beta  occ. eigenvalues --   -1.09543  -1.09233  -1.08793  -1.05970  -1.05441
  Beta  occ. eigenvalues --   -0.89599  -0.87966  -0.82115  -0.78854  -0.78050
  Beta  occ. eigenvalues --   -0.76671  -0.72257  -0.70254  -0.66896  -0.66790
  Beta  occ. eigenvalues --   -0.63132  -0.59946  -0.57877  -0.56541  -0.55401
  Beta  occ. eigenvalues --   -0.54194  -0.52500  -0.51221  -0.49905  -0.48800
  Beta  occ. eigenvalues --   -0.48555  -0.46921  -0.46872  -0.46562  -0.45841
  Beta  occ. eigenvalues --   -0.43983  -0.43527  -0.43340  -0.42988  -0.42760
  Beta  occ. eigenvalues --   -0.40336  -0.40187  -0.39763  -0.38896  -0.38677
  Beta  occ. eigenvalues --   -0.38202  -0.35539  -0.34690  -0.33446  -0.29629
  Beta  occ. eigenvalues --   -0.29590  -0.28324  -0.27654  -0.25382  -0.23361
  Beta virt. eigenvalues --   -0.12455  -0.06712  -0.04381  -0.01153  -0.00715
  Beta virt. eigenvalues --    0.00118   0.00557   0.01288   0.01692   0.02974
  Beta virt. eigenvalues --    0.02981   0.03263   0.03310   0.03856   0.03945

 Mulliken charges and spin densities:
               1          2
     1  C   -0.176526  -0.000000
     2  C   -0.365222   0.000000
     3  C    0.051166  -0.000000
     4  C    0.209772   0.000000
     5  C    0.150482  -0.000000
     6  C    0.053500  -0.000000
     7  C   -0.381418   0.000000
     8  C    0.349474   0.000000
     9  C    0.710621  -0.000000
    10  C   -0.443781   0.000000
    11  C   -0.285887  -0.000000
    12  C    0.005794  -0.000000
    13  C   -0.339469   0.000000
    14  C   -0.093715  -0.000000
    15  O   -0.339544  -0.000000
    16  O   -0.353339  -0.000000
    17  O   -0.332787   0.000000
    18  H    0.185460  -0.000000
    19  H    0.223240   0.000000
    20  H    0.209877  -0.000000
    21  O   -0.146974   0.000000
    22  H    0.349443  -0.000000
    23  O   -0.349964   0.000000
    24  H    0.229271   0.000000
    25  H    0.229767   0.000000
    26  H    0.377935   0.000000
    27  C   -0.279798  -0.000000
    28  H    0.207971  -0.000000
    29  H    0.171726  -0.000000
    30  H    0.172926  -0.000000
 Sum of Mulliken charges =  -0.00000  -0.00000

 Dipole moment (field-independent basis, Debye):
    X=              4.4418    Y=              2.2757    Z=             -3.0489  Tot=              5.8484
 Quadrupole moment (field-independent basis, Debye-Ang):
   XX=            -79.1913   YY=           -128.4983   ZZ=           -108.9549
   XY=             12.2427   XZ=            -21.2742   YZ=              1.6939

  Exact polarizability: 391.152   1.094 303.677-102.476 -94.150 219.770
 Approx polarizability: 448.738 -23.634 371.888-102.418-108.530 250.390

                      1                      2                      3
                      A                      A                      A
 Frequencies --     38.5457                47.1620                99.2022
 Red. masses --      5.7145                 5.4692                 5.6957
 Frc consts  --      0.0050                 0.0072                 0.0330
 IR Inten    --      5.8657                 1.8855                 1.5216

                      4                      5                      6
                      A                      A                      A
 Frequencies --    119.1892               151.6478               159.8043
 Red. masses --      5.9941                 6.1002                 4.7805
 Frc consts  --      0.0502                 0.0827                 0.0719
 IR Inten    --      2.1542                 2.4468                 0.9998

                      7                      8                      9
                      A                      A                      A
 Frequencies --    168.6587               193.5839               251.7441
 Red. masses --      5.7534                 3.2411                 1.6849
 Frc consts  --      0.0964                 0.0716                 0.0629
 IR Inten    --      0.0580                 1.5061                 0.6304

                     10                     11                     12
                      A                      A                      A
 Frequencies --    259.3993               285.8781               305.1832
 Red. masses --      5.2899                 2.8951                 4.5766
 Frc consts  --      0.2097                 0.1394                 0.2511
 IR Inten    --      6.3732                 0.1203                 4.0139

                     13                     14                     15
                      A                      A                      A
 Frequencies --    334.5475               365.7310               396.4360
 Red. masses --      5.3854                 5.6801                 9.2960
 Frc consts  --      0.3551                 0.4476                 0.8608
 IR Inten    --      0.4646                 0.0047                14.5595

                     16                     17                     18
                      A                      A                      A
 Frequencies --    422.8651               428.6062               442.5116
 Red. masses --      7.4515                 6.1200                10.2805
 Frc consts  --      0.7851                 0.6624                 1.1861
 IR Inten    --      4.8893                 0.1569                 6.2244

                     19                     20                     21
                      A                      A                      A
 Frequencies --    451.2020               468.1571               485.9311
 Red. masses --      8.4041                10.1482                 4.5485
 Frc consts  --      1.0081                 1.3105                 0.6328
 IR Inten    --     10.7830                48.1856                 0.3584

                     22                     23                     24
                      A                      A                      A
 Frequencies --    512.2370               517.4426               545.7132
 Red. masses --      9.5259                 5.2126                 4.6994
 Frc consts  --      1.4726                 0.8223                 0.8246
 IR Inten    --      1.3253                20.0195                 7.5135

                     25                     26                     27
                      A                      A                      A
 Frequencies --    590.6986               605.5725               629.1008
 Red. masses --      3.5344                 6.8809                 4.6680
 Frc consts  --      0.7266                 1.4867                 1.0885
 IR Inten    --     16.9867                 2.7095                19.3998

                     28                     29                     30
                      A                      A                      A
 Frequencies --    676.3938               708.3990               713.9259
 Red. masses --      5.1254                 4.6115                 7.0897
 Frc consts  --      1.3816                 1.3635                 2.1290
 IR Inten    --      1.7377                 3.3182                21.2062

                     31                     32                     33
                      A                      A                      A
 Frequencies --    752.3841               758.7958               781.4998
 Red. masses --      2.8837                 7.0648                 1.5292
 Frc consts  --      0.9618                 2.3966                 0.5503
 IR Inten    --      8.7272                25.4757               173.8919

                     34                     35                     36
                      A                      A                      A
 Frequencies --    794.2442               811.1051               821.9587
 Red. masses --      1.8079                 1.2066                 2.4730
 Frc consts  --      0.6720                 0.4677                 0.9844
 IR Inten    --     34.3665               193.4722                32.6093

                     37                     38                     39
                      A                      A                      A
 Frequencies --    826.4665               854.4934               896.6085
 Red. masses --      7.9725                 1.5744                 7.5704
 Frc consts  --      3.2085                 0.6773                 3.5857
 IR Inten    --     82.8150                18.2237                49.2949

                     40                     41                     42
                      A                      A                      A
 Frequencies --    920.2662               945.6224               980.6914
 Red. masses --      1.4161                 6.6429                 1.3033
 Frc consts  --      0.7066                 3.4998                 0.7385
 IR Inten    --      0.2587                53.1386                 0.2664

                     43                     44                     45
                      A                      A                      A
 Frequencies --    981.1430              1005.6510              1053.6207
 Red. masses --      6.1478                 1.3231                 5.7283
 Frc consts  --      3.4869                 0.7884                 3.7467
 IR Inten    --     68.5061                 0.4331               289.3815

                     46                     47                     48
                      A                      A                      A
 Frequencies --   1090.2623              1130.1792              1162.6193
 Red. masses --      3.0347                 1.7754                 1.2709
 Frc consts  --      2.1253                 1.3361                 1.0121
 IR Inten    --     46.2602                23.2086                 1.2050

                     49                     50                     51
                      A                      A                      A
 Frequencies --   1170.6006              1187.0162              1202.4844
 Red. masses --      1.7288                 1.3995                 1.7681
 Frc consts  --      1.3958                 1.1618                 1.5063
 IR Inten    --     59.9769                96.5838               119.1765

                     52                     53                     54
                      A                      A                      A
 Frequencies --   1210.9316              1224.8648              1269.2666
 Red. masses --      1.4804                 2.6657                 2.2976
 Frc consts  --      1.2790                 2.3563                 2.1808
 IR Inten    --    461.6399              1060.3041               262.2579

                     55                     56                     57
                      A                      A                      A
 Frequencies --   1289.8030              1296.7615              1328.0301
 Red. masses --      4.9170                 4.1999                 3.8728
 Frc consts  --      4.8195                 4.1611                 4.0243
 IR Inten    --     35.4953               807.4429               179.2054

                     58                     59                     60
                      A                      A                      A
 Frequencies --   1343.7689              1369.4405              1393.2140
 Red. masses --      2.8881                 5.6863                 3.2243
 Frc consts  --      3.0726                 6.2830                 3.6874
 IR Inten    --    214.4944               283.4020               410.1080

                     61                     62                     63
                      A                      A                      A
 Frequencies --   1421.7548              1458.2648              1469.6682
 Red. masses --      6.4497                 2.5699                 1.6503
 Frc consts  --      7.6813                 3.2198                 2.1002
 IR Inten    --     28.3301                87.3233                70.7485

                     64                     65                     66
                      A                      A                      A
 Frequencies --   1474.1962              1488.8978              1491.3632
 Red. masses --      2.2752                 1.0442                 2.2308
 Frc consts  --      2.9132                 1.3639                 2.9234
 IR Inten    --    476.8467                15.3391                82.2985

                     67                     68                     69
                      A                      A                      A
 Frequencies --   1496.9214              1500.8158              1590.4106
 Red. masses --      1.1142                 2.8597                 4.2684
 Frc consts  --      1.4710                 3.7951                 6.3611
 IR Inten    --     29.8577                39.2280                74.7821

                     70                     71                     72
                      A                      A                      A
 Frequencies --   1596.2505              1615.1621              1625.5363
 Red. masses --      4.1778                 5.4179                 3.1769
 Frc consts  --      6.2720                 8.3275                 4.9459
 IR Inten    --    593.5335               491.9210                74.3037

                     73                     74                     75
                      A                      A                      A
 Frequencies --   1638.9244              1669.6550              3029.8577
 Red. masses --      9.3669                 8.1724                 1.0324
 Frc consts  --     14.8240                13.4231                 5.5837
 IR Inten    --    430.7410                13.2098                84.6732

                     76                     77                     78
                      A                      A                      A
 Frequencies --   3101.0490              3151.5694              3185.9767
 Red. masses --      1.1077                 1.1022                 1.0900
 Frc consts  --      6.2761                 6.4502                 6.5184
 IR Inten    --     35.3323                20.5160                13.1377

                     79                     80                     81
                      A                      A                      A
 Frequencies --   3189.8016              3197.6103              3202.9842
 Red. masses --      1.0880                 1.0693                 1.0962
 Frc consts  --      6.5222                 6.4418                 6.6258
 IR Inten    --     16.3374               444.2254                 4.0588

                     82                     83                     84
                      A                      A                      A
 Frequencies --   3217.8226              3225.9263              3257.0632
 Red. masses --      1.0922                 1.0923                 1.0687
 Frc consts  --      6.6632                 6.6972                 6.6796
 IR Inten    --      2.6743                 5.0536               342.6540

 - Thermochemistry -
 -------------------
 Temperature   298.150 Kelvin.  Pressure   1.00000 Atm.
 Atom     1 has atomic number  6 and mass  12.00000

 Molecular mass:   270.05282 amu.
 Principal axes and moments of inertia in atomic units:
                           1         2         3
     Eigenvalues --  3083.054636357.828159428.90676
           X            0.65478  -0.68215   0.32548
           Y            0.52792   0.72094   0.44894
           Z           -0.54089  -0.12213   0.83218
 This molecule is an asymmetric top.
 Rotational symmetry number  1.
 Warning -- assumption of classical behavior for rotation
           may cause significant error
 Rotational temperatures (Kelvin)      0.02809     0.01362     0.00919
 Rotational constants (GHZ):           0.58537     0.28386     0.19141
 Zero-point vibrational energy     577358.2 (Joules/Mol)
                                  137.99191 (Kcal/Mol)
 Warning -- explicit consideration of  26 degrees of freedom as
           vibrations may cause significant error
 Vibrational temperatures:     55.46    67.86   142.73   171.49   218.19
          (Kelvin)            229.92   242.66   278.52   362.20   373.22
                              411.31   439.09   481.34   526.21   570.38
                              608.41   616.67   636.68   649.18   673.57
                              699.15   736.99   744.48   785.16   849.88
                              871.28   905.14   973.18  1019.23  1027.18
                             1082.51  1091.74  1124.40  1142.74  1167.00
                             1182.62  1189.10  1229.43  1290.02  1324.06
                             1360.54  1411.00  1411.65  1446.91  1515.93
                             1568.64  1626.08  1672.75  1684.23  1707.85
                             1730.11  1742.26  1762.31  1826.19  1855.74
                             1865.75  1910.74  1933.38  1970.32  2004.52
                             2045.59  2098.12  2114.52  2121.04  2142.19
                             2145.74  2153.74  2159.34  2288.25  2296.65
                             2323.86  2338.78  2358.05  2402.26  4359.29
                             4461.72  4534.41  4583.91  4589.41  4600.65
                             4608.38  4629.73  4641.39  4686.19

 Zero-point correction=                           0.219904 (Hartree/Particle)
 Thermal correction to Energy=                    0.235388
 Thermal correction to Enthalpy=                  0.236332
 Thermal correction to Gibbs Free Energy=         0.177188
 Sum of electronic and zero-point Energies=           -953.810763
 Sum of electronic and thermal Energies=              -953.795279
 Sum of electronic and thermal Enthalpies=            -953.794335
 Sum of electronic and thermal Free Energies=         -953.853480

                     E (Thermal)             CV                S
                      KCal/Mol        Cal/Mol-Kelvin    Cal/Mol-Kelvin
 Total                  147.708             61.939            124.481
 Electronic               0.000              0.000              0.000
 Translational            0.889              2.981             42.679
 Rotational               0.889              2.981             33.580
 Vibrational            145.931             55.977             48.222
 Vibration     1          0.594              1.981              5.332
 Vibration     2          0.595              1.979              4.933
 Vibration     3          0.604              1.950              3.470
 Vibration     4          0.609              1.933              3.113
 Vibration     5          0.619              1.901              2.651
 Vibration     6          0.622              1.892              2.552
 Vibration     7          0.625              1.881              2.450
 Vibration     8          0.635              1.849              2.193
 Vibration     9          0.664              1.760              1.718
 Vibration    10          0.668              1.747              1.666
 Vibration    11          0.684              1.700              1.498
 Vibration    12          0.696              1.664              1.388
 Vibration    13          0.716              1.607              1.238
 Vibration    14          0.739              1.543              1.098
 Vibration    15          0.763              1.478              0.976
 Vibration    16          0.785              1.421              0.882
 Vibration    17          0.790              1.408              0.863
 Vibration    18          0.802              1.377              0.819
 Vibration    19          0.810              1.358              0.792
 Vibration    20          0.825              1.321              0.743
 Vibration    21          0.842              1.281              0.694
 Vibration    22          0.867              1.223              0.628
 Vibration    23          0.872              1.211              0.616
 Vibration    24          0.901              1.149              0.553
 Vibration    25          0.948              1.052              0.466
 Vibration    26          0.964              1.020              0.440

                           ! Non-Optimized Parameters !
 Normal termination of Gaussian 16 at Sat Feb 10 23:19:16 2024.
