 Gaussian 16, Revision A.03,
 Gaussian 16:  ES64L-G16RevA.03 25-Dec-2016

 ----------------------------------------------------------------
 #P UB3LYP/6-311++G(d,p) SCRF=(PCM,Solvent=n,n-DiMethylFormamide)
 ----------------------------------------------------------------

 ------------------
 Radical PCM in DMF
 ------------------
 Symbolic Z-matrix:
 Charge = -1 Multiplicity = 2

                         Standard orientation:
 ---------------------------------------------------------------------
 Center     Atomic      Atomic             Coordinates (Angstroms)
 Number     Number       Type             X           Y           Z
 ---------------------------------------------------------------------
      1         17           0       -1.569019   -2.285232    0.000053
      2          6           0       -0.713126   -0.751392    0.000019
      3          6           0       -1.410166    0.440719   -0.000011
      4         17           0       -3.164221    0.459589    0.000001
      5          6           0       -0.757742    1.739233   -0.000020
      6          8           0       -1.385412    2.805684   -0.000114
      7          6           0        0.756965    1.739437    0.000047
      8          8           0        1.384206    2.806216    0.000052
      9          6           0        1.409969    0.441377    0.000044
     10          6           0        0.713451   -0.750988    0.000029
     11         17           0        1.570016   -2.284492   -0.000081
     12         17           0        3.164021    0.460399    0.000018
 ---------------------------------------------------------------------

 SCF Done:  E(UB3LYP) =  -2220.20244551     A.U. after   18 cycles

 The electronic state is 2-A.
 Alpha  occ. eigenvalues -- -101.56964-101.56963-101.56053-101.56053 -19.10187
 Alpha  occ. eigenvalues --  -19.10184 -10.26256 -10.26213 -10.24925 -10.24900
 Alpha  occ. eigenvalues --  -10.24271 -10.24269  -9.48411  -9.48409  -9.47496
 Alpha  occ. eigenvalues --   -9.47496  -7.24891  -7.24890  -7.23958  -7.23958
 Alpha  occ. eigenvalues --   -7.23917  -7.23916  -7.23822  -7.23821  -7.23010
 Alpha  occ. eigenvalues --   -7.23010  -7.22920  -7.22919  -1.04627  -1.01872
 Alpha  occ. eigenvalues --   -0.93202  -0.89114  -0.86571  -0.84983  -0.80722
 Alpha  occ. eigenvalues --   -0.71838  -0.70295  -0.59766  -0.59443  -0.53410
 Alpha  occ. eigenvalues --   -0.49899  -0.46501  -0.45754  -0.44712  -0.43793
 Alpha  occ. eigenvalues --   -0.42302  -0.41809  -0.40717  -0.39887  -0.35778
 Alpha  occ. eigenvalues --   -0.34868  -0.34840  -0.33870  -0.33778  -0.32109
 Alpha  occ. eigenvalues --   -0.30940  -0.30093  -0.28055  -0.25132  -0.23977
 Alpha  occ. eigenvalues --   -0.18762
 Alpha virt. eigenvalues --   -0.04277  -0.01660  -0.01388   0.00585   0.00931
 Alpha virt. eigenvalues --    0.02279   0.02847   0.03887   0.03997   0.05006
 Alpha virt. eigenvalues --    0.05705   0.06328   0.07075   0.07728   0.07896

  Beta  occ. eigenvalues -- -101.56954-101.56953-101.56048-101.56047 -19.09558
  Beta  occ. eigenvalues --  -19.09555 -10.26085 -10.26044 -10.24827 -10.24804
  Beta  occ. eigenvalues --  -10.24178 -10.24176  -9.48401  -9.48399  -9.47492
  Beta  occ. eigenvalues --   -9.47491  -7.24893  -7.24892  -7.23960  -7.23960
  Beta  occ. eigenvalues --   -7.23875  -7.23874  -7.23816  -7.23815  -7.22988
  Beta  occ. eigenvalues --   -7.22987  -7.22917  -7.22917  -1.03588  -1.00728
  Beta  occ. eigenvalues --   -0.92875  -0.88980  -0.86418  -0.84890  -0.80384
  Beta  occ. eigenvalues --   -0.71555  -0.69373  -0.59370  -0.58952  -0.53191
  Beta  occ. eigenvalues --   -0.49685  -0.46168  -0.44595  -0.44349  -0.43259
  Beta  occ. eigenvalues --   -0.41855  -0.41570  -0.39010  -0.38953  -0.34801
  Beta  occ. eigenvalues --   -0.34612  -0.34354  -0.33711  -0.32431  -0.32083
  Beta  occ. eigenvalues --   -0.30830  -0.29051  -0.27508  -0.24539  -0.22733
  Beta virt. eigenvalues --   -0.11951  -0.04135   0.00337   0.00650   0.00694
  Beta virt. eigenvalues --    0.00975   0.02322   0.03002   0.03934   0.04055
  Beta virt. eigenvalues --    0.05062   0.05775   0.06406   0.07095   0.07791

 Mulliken charges and spin densities:
               1          2
     1  Cl   0.564074   0.015027
     2  C   -0.591912   0.081453
     3  C    0.311283   0.071168
     4  Cl   0.266498   0.004866
     5  C   -0.652646   0.094027
     6  O   -0.396738   0.233446
     7  C   -0.652825   0.094062
     8  O   -0.396868   0.233523
     9  C    0.311730   0.071064
    10  C   -0.593256   0.081473
    11  Cl   0.564281   0.015031
    12  Cl   0.266380   0.004859
 Sum of Mulliken charges =  -1.00000   1.00000

 Dipole moment (field-independent basis, Debye):
    X=              0.0016    Y=             -9.6545    Z=              0.0002  Tot=              9.6545
 Quadrupole moment (field-independent basis, Debye-Ang):
   XX=           -117.6476   YY=           -135.6357   ZZ=            -97.1775
   XY=              0.0019   XZ=             -0.0007   YZ=              0.0006

 Normal termination of Gaussian 16 at Sat Jan 13 19:17:05 2024.
