 Q-Chem 5.4, Q-Chem, Inc., Pleasanton, CA (2021)
 Q-Chem 5.4.0 for Intel X86 EM64T Linux

User input:
--------------------------------------------------------------
$molecule
0 1
O                 -2.7783760000      2.4948630000     -0.4519320000
C                 -2.6658970000      1.1804040000     -0.2208320000
C                 -3.8482670000      0.4371270000     -0.0967890000
C                 -3.7912220000     -0.9254700000      0.1424400000
C                 -2.5638530000     -1.5848870000      0.2646340000
C                 -1.3824910000     -0.8673360000      0.1451330000
C                 -0.0846400000     -1.6059540000      0.2816660000
O                 -0.0922330000     -2.8066350000      0.4914530000
C                  1.1738530000     -0.8208410000      0.1502410000
C                  2.4283650000     -1.4362350000      0.2644690000
O                  2.5279630000     -2.7676310000      0.4984620000
C                  3.5975260000     -0.6604010000      0.1342830000
C                  3.5437530000      0.6917930000     -0.1030830000
C                  2.3033400000      1.3405970000     -0.2230780000
O                  2.3293390000      2.6601960000     -0.4543010000
C                  1.1154950000      0.5864790000     -0.0968460000
C                 -0.1719330000      1.2734930000     -0.2238920000
O                 -0.2057840000      2.5156000000     -0.4421640000
C                 -1.4123750000      0.5245100000     -0.0991210000
H                 -1.8669070000      2.8627030000     -0.5115180000
H                 -4.7923270000      0.9591460000     -0.1933420000
H                 -4.7134870000     -1.4879050000      0.2361540000
H                 -2.5095290000     -2.6490470000      0.4515160000
H                  3.4592760000     -3.0115790000      0.5459250000
H                  4.5631530000     -1.1501400000      0.2249860000
H                  4.4452770000      1.2834760000     -0.2023140000
H                  1.3919810000      2.9636750000     -0.5121520000
$end
$rem
MAX_SCF_CYCLES=200
BASIS  =  6-311++G(d,p)
GUI  =  2
JOB_TYPE  =  SP
METHOD  =  B3LYP
SOLVENT_METHOD = PCM
$end
$pcm
theory = CPCM
$end
$solvent
dielectric 37.219
opticaldielectric 1.43
$end

--------------------------------------------------------------

             Standard Nuclear Orientation (Angstroms)
    I     Atom           X                Y                Z
 ----------------------------------------------------------------
    1      O      -2.7783760000     2.4948630000    -0.4519320000
    2      C      -2.6658970000     1.1804040000    -0.2208320000
    3      C      -3.8482670000     0.4371270000    -0.0967890000
    4      C      -3.7912220000    -0.9254700000     0.1424400000
    5      C      -2.5638530000    -1.5848870000     0.2646340000
    6      C      -1.3824910000    -0.8673360000     0.1451330000
    7      C      -0.0846400000    -1.6059540000     0.2816660000
    8      O      -0.0922330000    -2.8066350000     0.4914530000
    9      C       1.1738530000    -0.8208410000     0.1502410000
   10      C       2.4283650000    -1.4362350000     0.2644690000
   11      O       2.5279630000    -2.7676310000     0.4984620000
   12      C       3.5975260000    -0.6604010000     0.1342830000
   13      C       3.5437530000     0.6917930000    -0.1030830000
   14      C       2.3033400000     1.3405970000    -0.2230780000
   15      O       2.3293390000     2.6601960000    -0.4543010000
   16      C       1.1154950000     0.5864790000    -0.0968460000
   17      C      -0.1719330000     1.2734930000    -0.2238920000
   18      O      -0.2057840000     2.5156000000    -0.4421640000
   19      C      -1.4123750000     0.5245100000    -0.0991210000
   20      H      -1.8669070000     2.8627030000    -0.5115180000
   21      H      -4.7923270000     0.9591460000    -0.1933420000
   22      H      -4.7134870000    -1.4879050000     0.2361540000
   23      H      -2.5095290000    -2.6490470000     0.4515160000
   24      H       3.4592760000    -3.0115790000     0.5459250000
   25      H       4.5631530000    -1.1501400000     0.2249860000
   26      H       4.4452770000     1.2834760000    -0.2023140000
   27      H       1.3919810000     2.9636750000    -0.5121520000
 ----------------------------------------------------------------

    9    -914.7297479706      2.89e-06  Convergence criterion met
 Total energy in the final basis set =     -914.7297479706

                    Orbital Energies (a.u.)
 --------------------------------------------------------------

 Alpha MOs
 -- Occupied --
-19.1720 -19.1651 -19.1638 -19.1468 -19.1236 -10.2940 -10.2817 -10.2683
-10.2673 -10.2671 -10.2139 -10.2122 -10.2098 -10.2092 -10.2052 -10.2010
-10.2006 -10.1929 -10.1906  -1.0990  -1.0890  -1.0861  -1.0605  -1.0587
 -0.8935  -0.8777  -0.8186  -0.7800  -0.7748  -0.7648  -0.6991  -0.6768
 -0.6707  -0.6245  -0.6192  -0.5903  -0.5683  -0.5586  -0.5412  -0.5223
 -0.5051  -0.5000  -0.4808  -0.4728  -0.4688  -0.4632  -0.4556  -0.4457
 -0.4435  -0.4325  -0.4191  -0.4153  -0.4121  -0.4038  -0.3945  -0.3910
 -0.3828  -0.3757  -0.3571  -0.3362  -0.2995  -0.2960  -0.2810  -0.2712
 -0.2528  -0.2348

          Ground-State Mulliken Net Atomic Charges

     Atom                 Charge (a.u.)
  ----------------------------------------
      1 O                    -0.331711
      2 C                     0.047952
      3 C                    -0.240300
      4 C                    -0.403583
      5 C                    -0.041435
      6 C                    -0.010950
      7 C                    -0.280876
      8 O                    -0.300800
      9 C                     0.056103
     10 C                    -0.293267
     11 O                    -0.230018
     12 C                    -0.137918
     13 C                    -0.091806
     14 C                    -0.101175
     15 O                    -0.344410
     16 C                     0.804801
     17 C                    -0.388792
     18 O                    -0.395455
     19 C                     0.459057
     20 H                     0.386619
     21 H                     0.229618
     22 H                     0.235057
     23 H                     0.181926
     24 H                     0.326163
     25 H                     0.230718
     26 H                     0.245238
     27 H                     0.389244
  ----------------------------------------
  Sum of atomic charges =     0.000000

                    Cartesian Multipole Moments
 -----------------------------------------------------------------
    Charge (ESU x 10^10)
                 0.0000
    Dipole Moment (Debye)
         X       3.1613      Y      -0.7388      Z       0.1497
       Tot       3.2499
    Quadrupole Moments (Debye-Ang)
        XX     -73.0283     XY      -5.2875     YY    -124.5312
        XZ       1.1208     YZ       2.4408     ZZ    -110.8904

 Total job time:  76.56s(wall), 366.41s(cpu)
        *  Thank you very much for using Q-Chem.  Have a nice day.  *
