 Gaussian 16, Revision A.03,
 Gaussian 16:  ES64L-G16RevA.03 25-Dec-2016

 ----------------------------------------------------------------
 #P UB3LYP/6-311++G(d,p) SCRF=(PCM,Solvent=n,n-DiMethylFormamide)
 ----------------------------------------------------------------

 ------------------
 Quinone PCM in DMF
 ------------------
 Symbolic Z-matrix:
 Charge =  0 Multiplicity = 1

                         Standard orientation:
 ---------------------------------------------------------------------
 Center     Atomic      Atomic             Coordinates (Angstroms)
 Number     Number       Type             X           Y           Z
 ---------------------------------------------------------------------
      1          8           0        3.137052    2.062973    0.000083
      2          6           0        2.833016    0.758587    0.000046
      3          6           0        3.894189   -0.157796    0.000188
      4          6           0        3.637957   -1.518494    0.000175
      5          6           0        2.326593   -2.004828   -0.000019
      6          6           0        1.262644   -1.114441   -0.000197
      7          6           0       -0.130088   -1.670239   -0.000477
      8          8           0       -0.298590   -2.877430    0.000215
      9          6           0       -1.260451   -0.700827   -0.000184
     10          6           0       -2.592211   -1.138972    0.000004
     11          8           0       -2.885983   -2.462221   -0.000023
     12          6           0       -3.635528   -0.191716    0.000222
     13          6           0       -3.384060    1.158997    0.000214
     14          6           0       -2.061355    1.632727    0.000008
     15          8           0       -1.893613    2.962142   -0.000013
     16          6           0       -0.996362    0.704614   -0.000161
     17          6           0        0.378478    1.210001   -0.000261
     18          8           0        0.594099    2.453032    0.000038
     19          6           0        1.496285    0.279546   -0.000147
     20          1           0        2.288933    2.563299   -0.000093
     21          1           0        4.905027    0.231155    0.000306
     22          1           0        4.468228   -2.215874    0.000288
     23          1           0        2.116809   -3.066102   -0.000028
     24          1           0       -3.843428   -2.573602    0.000122
     25          1           0       -4.662968   -0.545091    0.000402
     26          1           0       -4.189508    1.882830    0.000377
     27          1           0       -0.921459    3.132447   -0.000239
 ---------------------------------------------------------------------

 SCF Done:  E(UB3LYP) =  -914.722684917     A.U. after   14 cycles

 The electronic state is 1-A.
 Alpha  occ. eigenvalues --  -19.17626 -19.16701 -19.16574 -19.14936 -19.12456
 Alpha  occ. eigenvalues --  -10.29647 -10.28282 -10.27072 -10.27035 -10.26983
 Alpha  occ. eigenvalues --  -10.21663 -10.21491 -10.21208 -10.21155 -10.20968
 Alpha  occ. eigenvalues --  -10.20475 -10.20394 -10.19596 -10.19320  -1.10128
 Alpha  occ. eigenvalues --   -1.09320  -1.08816  -1.06165  -1.06069  -0.89610
 Alpha  occ. eigenvalues --   -0.88056  -0.82162  -0.78294  -0.77740  -0.76770
 Alpha  occ. eigenvalues --   -0.70197  -0.67995  -0.67350  -0.62780  -0.62194
 Alpha  occ. eigenvalues --   -0.59397  -0.57121  -0.56151  -0.54355  -0.52515
 Alpha  occ. eigenvalues --   -0.50825  -0.50274  -0.48397  -0.47506  -0.47199
 Alpha  occ. eigenvalues --   -0.46569  -0.45826  -0.44724  -0.44594  -0.43428
 Alpha  occ. eigenvalues --   -0.42292  -0.41753  -0.41412  -0.40590  -0.39732
 Alpha  occ. eigenvalues --   -0.39409  -0.38616  -0.37794  -0.35893  -0.33872
 Alpha  occ. eigenvalues --   -0.30176  -0.29864  -0.28366  -0.27211  -0.25478
 Alpha  occ. eigenvalues --   -0.23737
 Alpha virt. eigenvalues --   -0.12403  -0.06731  -0.04457  -0.01220  -0.00740
 Alpha virt. eigenvalues --   -0.00091   0.00454   0.01496   0.01841   0.02741
 Alpha virt. eigenvalues --    0.03280   0.03640   0.03857   0.04328   0.04342

  Beta  occ. eigenvalues --  -19.17626 -19.16701 -19.16574 -19.14936 -19.12456
  Beta  occ. eigenvalues --  -10.29647 -10.28282 -10.27072 -10.27035 -10.26983
  Beta  occ. eigenvalues --  -10.21663 -10.21491 -10.21208 -10.21155 -10.20968
  Beta  occ. eigenvalues --  -10.20475 -10.20394 -10.19596 -10.19320  -1.10128
  Beta  occ. eigenvalues --   -1.09320  -1.08816  -1.06165  -1.06069  -0.89610
  Beta  occ. eigenvalues --   -0.88056  -0.82162  -0.78294  -0.77740  -0.76770
  Beta  occ. eigenvalues --   -0.70197  -0.67995  -0.67350  -0.62780  -0.62194
  Beta  occ. eigenvalues --   -0.59397  -0.57121  -0.56151  -0.54355  -0.52515
  Beta  occ. eigenvalues --   -0.50825  -0.50274  -0.48397  -0.47506  -0.47199
  Beta  occ. eigenvalues --   -0.46569  -0.45826  -0.44724  -0.44594  -0.43428
  Beta  occ. eigenvalues --   -0.42292  -0.41753  -0.41412  -0.40590  -0.39732
  Beta  occ. eigenvalues --   -0.39409  -0.38616  -0.37794  -0.35893  -0.33872
  Beta  occ. eigenvalues --   -0.30176  -0.29864  -0.28366  -0.27211  -0.25478
  Beta  occ. eigenvalues --   -0.23737
  Beta virt. eigenvalues --   -0.12403  -0.06731  -0.04457  -0.01220  -0.00740
  Beta virt. eigenvalues --   -0.00091   0.00454   0.01496   0.01841   0.02741
  Beta virt. eigenvalues --    0.03280   0.03640   0.03857   0.04328   0.04342

 Mulliken charges and spin densities:
               1          2
     1  O   -0.317665   0.000000
     2  C    0.033696   0.000000
     3  C   -0.212577   0.000000
     4  C   -0.393295  -0.000000
     5  C   -0.028938   0.000000
     6  C    0.005083  -0.000000
     7  C   -0.303684  -0.000000
     8  O   -0.283451   0.000000
     9  C    0.072843  -0.000000
    10  C   -0.273801   0.000000
    11  O   -0.207146   0.000000
    12  C   -0.142975  -0.000000
    13  C   -0.075032   0.000000
    14  C   -0.112273  -0.000000
    15  O   -0.330113   0.000000
    16  C    0.807244   0.000000
    17  C   -0.400477   0.000000
    18  O   -0.386682   0.000000
    19  C    0.452759  -0.000000
    20  H    0.375250  -0.000000
    21  H    0.213680   0.000000
    22  H    0.218946  -0.000000
    23  H    0.172224  -0.000000
    24  H    0.305786  -0.000000
    25  H    0.203280  -0.000000
    26  H    0.229362   0.000000
    27  H    0.377954  -0.000000
 Sum of Mulliken charges =  -0.00000  -0.00000

 Dipole moment (field-independent basis, Debye):
    X=             -3.0328    Y=             -0.3100    Z=             -0.0013  Tot=              3.0486
 Quadrupole moment (field-independent basis, Debye-Ang):
   XX=            -74.7712   YY=           -124.9075   ZZ=           -110.3506
   XY=             -2.1882   XZ=             -0.0022   YZ=             -0.0012

 Normal termination of Gaussian 16 at Tue Jan 16 05:15:51 2024.
