 Q-Chem 5.4, Q-Chem, Inc., Pleasanton, CA (2021)
 Q-Chem 5.4.0 for Intel X86 EM64T Linux

User input:
--------------------------------------------------------------
$molecule
-1 2
C                  3.4627750000      2.7240000000      0.3548920000
C                  2.7733010000      1.3960090000      0.2019860000
C                  1.4049950000      1.2874100000      0.1469050000
C                  0.7214610000      0.0417300000      0.0243960000
C                  1.5517480000     -1.1157160000     -0.0455400000
C                  2.9239320000     -1.0645500000     -0.0054400000
C                  3.7718110000     -2.3028850000     -0.1049690000
C                  3.6154170000      0.2104370000      0.1249120000
O                  4.8714130000      0.2836360000      0.1685450000
C                 -0.7213780000     -0.0422740000     -0.0255720000
C                 -1.4165420000     -1.2738360000      0.1586270000
C                 -2.7855630000     -1.3812850000      0.1220940000
C                 -3.4892780000     -2.6919940000      0.3435990000
C                 -3.6154810000     -0.2102390000     -0.1243240000
O                 -4.8714920000     -0.2831030000     -0.1669720000
C                 -2.9116390000      1.0497660000     -0.3187180000
C                 -1.5400770000      1.1013300000     -0.2618230000
C                 -3.7453490000      2.2712480000     -0.5928030000
H                  4.0853520000      2.7411740000      1.2558580000
H                  2.7387180000      3.5418350000      0.4100630000
H                  4.1436040000      2.9104010000     -0.4826050000
H                  0.8218040000      2.1980890000      0.2333190000
H                  1.0855940000     -2.0875770000     -0.1684270000
H                  3.1531790000     -3.1990160000     -0.2069210000
H                  4.4530740000     -2.2439380000     -0.9605640000
H                  4.4100100000     -2.4124660000      0.7784190000
H                 -0.8446270000     -2.1710670000      0.3702830000
H                 -4.1764070000     -2.6293530000      1.1942380000
H                 -4.1074650000     -2.9555490000     -0.5213060000
H                 -2.7742770000     -3.4993230000      0.5256690000
H                 -1.0625830000      2.0594050000     -0.4378850000
H                 -3.1176140000      3.1563370000     -0.7296170000
H                 -4.3616230000      2.1327470000     -1.4876070000
H                 -4.4467920000      2.4586170000      0.2272880000
$end
$rem
MAX_SCF_CYCLES=200
BASIS  =  6-311++G(d,p)
GUI  =  2
JOB_TYPE  =  SP
METHOD  =  B3LYP
SOLVENT_METHOD = COSMO
$end
$solvent
dielectric 37.219
opticaldielectric 1.43
$end

--------------------------------------------------------------

             Standard Nuclear Orientation (Angstroms)
    I     Atom           X                Y                Z
 ----------------------------------------------------------------
    1      C       3.6251827598    -2.5045045526    -0.3499227605
    2      C       2.8549483384    -1.2262710304    -0.1623788015
    3      C       1.4815624012    -1.1977195497    -0.1531674222
    4      C       0.7230770963     0.0002081294     0.0005048412
    5      C       1.4818930153     1.1979772034     0.1537903127
    6      C       2.8552995917     1.2262081707     0.1622925410
    7      C       3.6259549646     2.5042297073     0.3494546122
    8      C       3.6236884403    -0.0001253557    -0.0002487109
    9      O       4.8825719763    -0.0002487970    -0.0005831819
   10      C      -0.7230687464     0.0002734354     0.0007296256
   11      C      -1.4817875954     1.1980571965    -0.1528509334
   12      C      -2.8551821199     1.2263039007    -0.1622344207
   13      C      -3.6257425603     2.5043118179    -0.3497703377
   14      C      -3.6237230119    -0.0000574248    -0.0003170090
   15      O      -4.8825681881    -0.0002220565    -0.0009816463
   16      C      -2.8550459172    -1.2262025387     0.1624677321
   17      C      -1.4816590855    -1.1976045505     0.1541627531
   18      C      -3.6253947932    -2.5043924442     0.3495677119
   19      H       4.2783308120    -2.4436749615    -1.2270397328
   20      H       2.9521372109    -3.3583020159    -0.4690699230
   21      H       4.2864690879    -2.6918622581     0.5028797768
   22      H       0.9555249559    -2.1346811498    -0.3025090741
   23      H       0.9561708210     2.1350675050     0.3034315866
   24      H       2.9532173951     3.3581970892     0.4690974317
   25      H       4.2796548107     2.4431422796     1.2261425073
   26      H       4.2867283862     2.6915133647    -0.5037649578
   27      H      -0.9559665278     2.1351520676    -0.3020953782
   28      H      -4.2784090345     2.4435760249    -1.2272636441
   29      H      -4.2875691216     2.6911550717     0.5027273253
   30      H      -2.9529616771     3.3584078244    -0.4682689622
   31      H      -0.9557065127    -2.1345292535     0.3040028199
   32      H      -2.9524292317    -3.3581937296     0.4691191933
   33      H      -4.2790835797    -2.4435770962     1.2262904916
   34      H      -4.2861547669    -2.6917766207    -0.5036392385
 ----------------------------------------------------------------

    8    -770.0728492771      9.30e-06  Convergence criterion met
 Total energy in the final basis set =     -770.0728492771
    4    -770.1507452708      4.90e-06  Convergence criterion met
 Total energy in the final basis set =     -770.1507452708

                    Orbital Energies (a.u.)
 --------------------------------------------------------------

 Alpha MOs
 -- Occupied --
-19.0776 -19.0776 -10.2203 -10.2203 -10.1817 -10.1814 -10.1699 -10.1699
-10.1699 -10.1699 -10.1663 -10.1663 -10.1663 -10.1663 -10.1553 -10.1553
-10.1553 -10.1553  -1.0021  -1.0021  -0.8603  -0.8332  -0.7804  -0.7771
 -0.7676  -0.7184  -0.6849  -0.6774  -0.6679  -0.6554  -0.5978  -0.5783
 -0.5569  -0.5491  -0.4969  -0.4936  -0.4582  -0.4515  -0.4437  -0.4302
 -0.4272  -0.4092  -0.4084  -0.4082  -0.4035  -0.4034  -0.3964  -0.3952
 -0.3925  -0.3740  -0.3691  -0.3639  -0.3626  -0.3618  -0.3535  -0.3492
 -0.3425  -0.3291  -0.3068  -0.2483  -0.2425  -0.2417  -0.2381  -0.2199
 -0.1650

 Beta MOs
 -- Occupied --
-19.0731 -19.0731 -10.2196 -10.2196 -10.1799 -10.1795 -10.1688 -10.1688
-10.1688 -10.1688 -10.1662 -10.1662 -10.1662 -10.1662 -10.1554 -10.1554
-10.1554 -10.1554  -0.9943  -0.9942  -0.8564  -0.8295  -0.7789  -0.7755
 -0.7634  -0.7156  -0.6842  -0.6757  -0.6675  -0.6502  -0.5953  -0.5760
 -0.5544  -0.5466  -0.4952  -0.4924  -0.4565  -0.4483  -0.4415  -0.4237
 -0.4209  -0.4087  -0.4073  -0.4054  -0.4022  -0.4021  -0.3951  -0.3942
 -0.3920  -0.3736  -0.3635  -0.3621  -0.3608  -0.3509  -0.3479  -0.3413
 -0.3369  -0.3274  -0.2915  -0.2448  -0.2386  -0.2375  -0.2340  -0.1952

          Ground-State Mulliken Net Atomic Charges

     Atom                 Charge (a.u.)    Spin (a.u.)
  --------------------------------------------------------
      1 C                    -0.332092      -0.000853
      2 C                     0.552496       0.076877
      3 C                    -0.569323      -0.010769
      4 C                     1.159994       0.172818
      5 C                    -0.570380      -0.010823
      6 C                     0.553616       0.076967
      7 C                    -0.331842      -0.000846
      8 C                    -1.638827       0.017164
      9 O                    -0.498676       0.166578
     10 C                     1.159960       0.172896
     11 C                    -0.569887      -0.010844
     12 C                     0.552958       0.076995
     13 C                    -0.332004      -0.000847
     14 C                    -1.638884       0.017150
     15 O                    -0.498603       0.166568
     16 C                     0.553030       0.076927
     17 C                    -0.569566      -0.010837
     18 C                    -0.331929      -0.000860
     19 H                     0.173383       0.003739
     20 H                     0.157727      -0.000256
     21 H                     0.175921       0.004262
     22 H                     0.080423      -0.001319
     23 H                     0.080547      -0.001315
     24 H                     0.157636      -0.000255
     25 H                     0.173355       0.003741
     26 H                     0.176027       0.004265
     27 H                     0.080434      -0.001317
     28 H                     0.173321       0.003746
     29 H                     0.175895       0.004264
     30 H                     0.157667      -0.000255
     31 H                     0.080636      -0.001313
     32 H                     0.157627      -0.000255
     33 H                     0.173359       0.003743
     34 H                     0.176002       0.004262
  --------------------------------------------------------
  Sum of atomic charges =    -1.000000

                    Cartesian Multipole Moments
 -----------------------------------------------------------------
    Charge (ESU x 10^10)
                -4.8032
    Dipole Moment (Debye)
         X      -0.0018      Y       0.0006      Z       0.0034
       Tot       0.0039
    Quadrupole Moments (Debye-Ang)
        XX    -227.8603     XY       0.0011     YY    -101.4780
        XZ      -0.0022     YZ      -0.0005     ZZ    -113.7839

 Total job time:  109.93s(wall), 802.19s(cpu)
        *  Thank you very much for using Q-Chem.  Have a nice day.  *
