 Q-Chem 5.4, Q-Chem, Inc., Pleasanton, CA (2021)
 Q-Chem 5.4.0 for Intel X86 EM64T Linux

User input:
--------------------------------------------------------------
$molecule
-1 2
C                  1.2485470000      1.6082760000     -0.5202410000
C                  0.0062290000      1.1958590000      0.1279460000
C                 -0.3959530000     -0.1141470000      0.1259620000
C                  0.3913240000     -1.1574750000     -0.5256420000
C                  1.6449940000     -0.7767590000     -1.1813020000
C                  2.0398450000      0.5534770000     -1.1316500000
O                  1.6119480000      2.8117590000     -0.5373750000
O                 -0.0007390000     -2.3582960000     -0.5250810000
S                  3.5748150000      1.1291950000     -1.8994320000
C                  4.4654200000      2.0794810000     -0.6253640000
C                  4.3993410000      3.4689360000     -0.6156570000
C                  5.2656160000      1.3864920000      0.2784470000
C                  6.0059170000      2.1002900000      1.2205610000
C                  5.1541970000      4.1748450000      0.3184870000
C                  5.9524680000      3.4936300000      1.2386310000
O                  3.2975900000      2.0442580000     -3.0186490000
O                  4.4486820000     -0.0342120000     -2.1601230000
H                  3.7519880000      3.9683150000     -1.3222650000
H                  5.3158880000      0.3058860000      0.2299570000
H                  5.1099310000      5.2586580000      0.3350220000
H                  6.6293450000      1.5682120000      1.9313310000
C                 -1.6817640000     -0.5383640000      0.7908630000
C                 -0.8106980000      2.2782790000      0.7872330000
H                  6.5312500000      4.0486580000      1.9699570000
H                 -2.5447020000     -0.0126410000      0.3648330000
H                 -1.6719720000     -0.3101210000      1.8636420000
H                 -1.8237110000     -1.6107870000      0.6618400000
H                 -1.8081880000      2.3587390000      0.3382430000
H                 -0.3020000000      3.2358370000      0.6785040000
H                 -0.9594080000      2.0758230000      1.8547440000
C                  2.3822700000     -1.8979140000     -1.8701190000
H                  1.7478870000     -2.7828370000     -1.8431370000
H                  3.3303740000     -2.1199230000     -1.3739420000
H                  2.6331300000     -1.6470500000     -2.9019250000
$end
$rem
MAX_SCF_CYCLES=200
BASIS  =  6-311++G(d,p)
GUI  =  2
JOB_TYPE  =  SP
METHOD  =  B3LYP
SOLVENT_METHOD = COSMO
$end
$solvent
dielectric 37.219
opticaldielectric 1.43
$end

--------------------------------------------------------------

             Standard Nuclear Orientation (Angstroms)
    I     Atom           X                Y                Z
 ----------------------------------------------------------------
    1      C      -0.7514721279    -0.9452857473     0.5780154472
    2      C      -2.0263983252    -1.5500609629     0.2006584384
    3      C      -3.0464550361    -0.7947328609    -0.3159011248
    4      C      -2.9120254608     0.6466130811    -0.5092317431
    5      C      -1.6437429750     1.2828654942    -0.1443131490
    6      C      -0.6193780088     0.4832513293     0.3447615409
    7      O       0.1803682493    -1.6311167306     1.0699855335
    8      O      -3.8671065363     1.3276386650    -0.9779630925
    9      S       0.9900986843     1.1650829751     0.8156794713
   10      C       2.2474048510     0.1564974134    -0.0336769817
   11      C       2.9072385631    -0.8596096838     0.6498372439
   12      C       2.5787225979     0.4796228414    -1.3463994294
   13      C       3.5842044214    -0.2390742941    -1.9926290127
   14      C       3.9210971419    -1.5620156007     0.0021823823
   15      C       4.2568907228    -1.2572370751    -1.3177828323
   16      O       1.2206573898     1.0299213223     2.2632342020
   17      O       1.1381077490     2.5081874799     0.2162774487
   18      H       2.6077083794    -1.0915523628     1.6618769766
   19      H       2.0644621175     1.2924492126    -1.8438301581
   20      H       4.4420508023    -2.3565430581     0.5258396244
   21      H       3.8463891632     0.0034115064    -3.0170426303
   22      C      -4.3646752843    -1.4191791324    -0.7002519566
   23      C      -2.1660506251    -3.0360533386     0.4151019569
   24      H       5.0414148350    -1.8140342018    -1.8201584683
   25      H      -4.8344044472    -1.9199730931     0.1547966666
   26      H      -4.2350278468    -2.1805798366    -1.4790369351
   27      H      -5.0396810454    -0.6489847212    -1.0718091765
   28      H      -2.9807252744    -3.2666458340     1.1123712369
   29      H      -1.2368242464    -3.4342827368     0.8218754288
   30      H      -2.3943011311    -3.5577567251    -0.5221333999
   31      C      -1.5924074863     2.7788129272    -0.3301605033
   32      H      -2.5921436004     3.1179788561    -0.5980274661
   33      H      -0.8928746898     3.0617869325    -1.1207048633
   34      H      -1.2515545901     3.2898662224     0.5715772304
 ----------------------------------------------------------------

    9   -1279.3787917554      8.14e-06  Convergence criterion met
 Total energy in the final basis set =    -1279.3787917554
    4   -1279.4638170471      8.76e-06  Convergence criterion met
 Total energy in the final basis set =    -1279.4638170471

                    Orbital Energies (a.u.)
 --------------------------------------------------------------

 Alpha MOs
 -- Occupied --
-89.0512 -19.1195 -19.1141 -19.0864 -19.0848 -10.2364 -10.2284 -10.2083
-10.1991 -10.1969 -10.1904 -10.1873 -10.1852 -10.1837 -10.1825 -10.1762
-10.1751 -10.1547 -10.1541 -10.1532  -8.1148  -6.0777  -6.0766  -6.0756
 -1.1096  -1.0150  -1.0106  -1.0048  -0.8733  -0.8432  -0.8014  -0.7756
 -0.7598  -0.7324  -0.7239  -0.6948  -0.6511  -0.6428  -0.6190  -0.6032
 -0.5646  -0.5554  -0.5353  -0.5111  -0.4933  -0.4809  -0.4725  -0.4534
 -0.4520  -0.4449  -0.4423  -0.4333  -0.4249  -0.4153  -0.4103  -0.4016
 -0.3966  -0.3897  -0.3871  -0.3793  -0.3767  -0.3721  -0.3705  -0.3593
 -0.3564  -0.3526  -0.3400  -0.3291  -0.3118  -0.2973  -0.2869  -0.2735
 -0.2681  -0.2557  -0.2474  -0.2409  -0.1707

 Beta MOs
 -- Occupied --
-89.0512 -19.1194 -19.1141 -19.0790 -19.0789 -10.2352 -10.2269 -10.2083
-10.1984 -10.1941 -10.1904 -10.1873 -10.1852 -10.1837 -10.1825 -10.1759
-10.1742 -10.1548 -10.1541 -10.1534  -8.1148  -6.0778  -6.0766  -6.0757
 -1.1095  -1.0068  -1.0029  -0.9976  -0.8732  -0.8374  -0.7992  -0.7749
 -0.7597  -0.7278  -0.7226  -0.6931  -0.6487  -0.6379  -0.6190  -0.6020
 -0.5629  -0.5516  -0.5343  -0.5092  -0.4915  -0.4803  -0.4723  -0.4527
 -0.4515  -0.4418  -0.4344  -0.4327  -0.4195  -0.4105  -0.4079  -0.3950
 -0.3940  -0.3886  -0.3854  -0.3768  -0.3718  -0.3692  -0.3581  -0.3561
 -0.3509  -0.3488  -0.3385  -0.3283  -0.3111  -0.2961  -0.2734  -0.2690
 -0.2575  -0.2499  -0.2389  -0.2356

          Ground-State Mulliken Net Atomic Charges

     Atom                 Charge (a.u.)    Spin (a.u.)
  --------------------------------------------------------
      1 C                    -0.846797       0.045025
      2 C                     0.511705       0.069871
      3 C                     0.910702       0.039519
      4 C                    -1.472193       0.064444
      5 C                     0.774019       0.205710
      6 C                     0.058010       0.086561
      7 O                    -0.400069       0.215362
      8 O                    -0.467492       0.264181
      9 S                     0.369975      -0.023937
     10 C                     0.219993      -0.009681
     11 C                    -0.246956       0.025406
     12 C                     0.156230      -0.001702
     13 C                    -0.524376       0.002823
     14 C                    -0.407090      -0.003542
     15 C                    -0.342109       0.000643
     16 O                    -0.230668       0.003327
     17 O                    -0.227533      -0.001014
     18 H                     0.268686       0.000266
     19 H                     0.249871       0.000579
     20 H                     0.230976      -0.000039
     21 H                     0.231385       0.000010
     22 C                    -0.479796       0.001683
     23 C                    -0.553135      -0.001596
     24 H                     0.209110      -0.000087
     25 H                     0.167039       0.001149
     26 H                     0.169010       0.000995
     27 H                     0.187572      -0.001765
     28 H                     0.166342       0.002962
     29 H                     0.189141      -0.001019
     30 H                     0.163124       0.002838
     31 C                    -0.597976      -0.005804
     32 H                     0.178840      -0.001835
     33 H                     0.198239       0.010807
     34 H                     0.186220       0.007859
  --------------------------------------------------------
  Sum of atomic charges =    -1.000000

                    Cartesian Multipole Moments
 -----------------------------------------------------------------
    Charge (ESU x 10^10)
                -4.8032
    Dipole Moment (Debye)
         X       5.2905      Y      -5.8588      Z      -4.7125
       Tot       9.1936
    Quadrupole Moments (Debye-Ang)
        XX    -150.7276     XY       3.3690     YY    -143.9494
        XZ     -18.7429     YZ       0.5937     ZZ    -137.5325

 Total job time:  129.23s(wall), 968.32s(cpu)
        *  Thank you very much for using Q-Chem.  Have a nice day.  *
