 Q-Chem 5.4, Q-Chem, Inc., Pleasanton, CA (2021)
 Q-Chem 5.4.0 for Intel X86 EM64T Linux

User input:
--------------------------------------------------------------
$molecule
-2 1
C                 -2.9900410000     -1.5361610000     -0.1538250000
O                 -2.2716350000     -0.5538980000      0.5729550000
C                 -0.9001240000     -0.5415910000      0.2978440000
C                 -0.3549050000      0.6280610000     -0.2547790000
O                 -1.2443770000      1.6350550000     -0.6455160000
C                 -1.0679120000      2.8557970000      0.0517900000
C                  1.0494670000      0.8055710000     -0.4994520000
O                  1.5556760000      1.8871620000     -1.0171860000
C                  1.8522960000     -0.3274670000     -0.1375470000
C                  1.2940230000     -1.4953000000      0.3883410000
C                 -0.0988410000     -1.6836700000      0.6512950000
O                 -0.5925460000     -2.7681230000      1.1688750000
C                  3.3363340000     -0.2209710000     -0.3822860000
H                 -2.5728090000     -2.5303860000      0.0368060000
H                 -4.0320560000     -1.4904110000      0.1908590000
H                 -2.9701540000     -1.3172450000     -1.2349280000
H                 -1.3115080000      2.7355310000      1.1210360000
H                 -1.7706000000      3.5777660000     -0.3858460000
H                 -0.0396860000      3.2142950000     -0.0626880000
H                  1.9446760000     -2.3310640000      0.6510060000
H                  3.7767110000      0.6257570000      0.1641250000
H                  3.8512470000     -1.1418650000     -0.0792430000
H                  3.5567640000     -0.0268430000     -1.4427160000
$end

$rem
BASIS  =  6-311++G(d,p)
GUI  =  2
JOB_TYPE  =  SP
METHOD  =  B3LYP
SCF_CONVERGENCE  = 8
SOLVENT_METHOD = sm12
$end

$smx
solvent dimethylformamide
charges CM5
$end

--------------------------------------------------------------

             Standard Nuclear Orientation (Angstroms)
    I     Atom           X                Y                Z
 ----------------------------------------------------------------
    1      C      -2.9900410000    -1.5361610000    -0.1538250000
    2      O      -2.2716350000    -0.5538980000     0.5729550000
    3      C      -0.9001240000    -0.5415910000     0.2978440000
    4      C      -0.3549050000     0.6280610000    -0.2547790000
    5      O      -1.2443770000     1.6350550000    -0.6455160000
    6      C      -1.0679120000     2.8557970000     0.0517900000
    7      C       1.0494670000     0.8055710000    -0.4994520000
    8      O       1.5556760000     1.8871620000    -1.0171860000
    9      C       1.8522960000    -0.3274670000    -0.1375470000
   10      C       1.2940230000    -1.4953000000     0.3883410000
   11      C      -0.0988410000    -1.6836700000     0.6512950000
   12      O      -0.5925460000    -2.7681230000     1.1688750000
   13      C       3.3363340000    -0.2209710000    -0.3822860000
   14      H      -2.5728090000    -2.5303860000     0.0368060000
   15      H      -4.0320560000    -1.4904110000     0.1908590000
   16      H      -2.9701540000    -1.3172450000    -1.2349280000
   17      H      -1.3115080000     2.7355310000     1.1210360000
   18      H      -1.7706000000     3.5777660000    -0.3858460000
   19      H      -0.0396860000     3.2142950000    -0.0626880000
   20      H       1.9446760000    -2.3310640000     0.6510060000
   21      H       3.7767110000     0.6257570000     0.1641250000
   22      H       3.8512470000    -1.1418650000    -0.0792430000
   23      H       3.5567640000    -0.0268430000    -1.4427160000
 ----------------------------------------------------------------

   19    -649.9635292348      7.30e-09  Convergence criterion met
 Total energy in the final basis set =     -650.2499662806

                    Orbital Energies (a.u.)
 --------------------------------------------------------------

 Alpha MOs
 -- Occupied --
-19.1196 -19.1195 -19.0157 -19.0155 -10.2063 -10.2059 -10.1830 -10.1815
-10.1760 -10.1722 -10.1682 -10.1398 -10.1318  -1.0377  -1.0206  -0.9256
 -0.9229  -0.7920  -0.7455  -0.6950  -0.6905  -0.6476  -0.6271  -0.5598
 -0.5383  -0.4876  -0.4726  -0.4639  -0.4516  -0.4353  -0.4323  -0.4171
 -0.4124  -0.4073  -0.3792  -0.3641  -0.3533  -0.3489  -0.3397  -0.3290
 -0.3227  -0.3074  -0.2657  -0.2646  -0.2227  -0.2017  -0.1922  -0.1909
 -0.1191

          Ground-State Mulliken Net Atomic Charges

     Atom                 Charge (a.u.)
  ----------------------------------------
      1 C                     0.245798
      2 O                    -0.020441
      3 C                     0.416221
      4 C                     0.069373
      5 O                    -0.000415
      6 C                     0.257236
      7 C                    -1.310279
      8 O                    -0.370330
      9 C                     0.444770
     10 C                    -2.108554
     11 C                    -1.170234
     12 O                    -0.399481
     13 C                     0.685988
     14 H                     0.118241
     15 H                     0.273154
     16 H                     0.059077
     17 H                     0.066791
     18 H                     0.272509
     19 H                     0.110141
     20 H                    -0.189582
     21 H                     0.149971
     22 H                     0.266610
     23 H                     0.133437
  ----------------------------------------
  Sum of atomic charges =    -2.000000

                    Cartesian Multipole Moments
 -----------------------------------------------------------------
    Charge (ESU x 10^10)
                -9.6064
    Dipole Moment (Debye)
         X      -3.7062      Y       3.7970      Z      -0.5853
       Tot       5.3382
    Quadrupole Moments (Debye-Ang)
        XX    -113.6893     XY     -10.0109     YY    -129.1435
        XZ       9.0528     YZ      20.5899     ZZ     -99.6831

 Total job time:  437.39s(wall), 3239.20s(cpu)
        *  Thank you very much for using Q-Chem.  Have a nice day.  *
