 Q-Chem 5.4, Q-Chem, Inc., Pleasanton, CA (2021)
 Q-Chem 5.4.0 for Intel X86 EM64T Linux

User input:
--------------------------------------------------------------
$molecule
0 1
Cl                -2.5544670000      1.7869850000      0.7012950000
C                 -1.2058120000      0.7551000000      0.4278660000
C                 -1.2634520000     -0.5845490000      0.5604880000
Cl                -2.6933220000     -1.4234380000      1.0193420000
C                 -0.0629760000     -1.4484820000      0.3123130000
O                 -0.1142030000     -2.6481780000      0.4309120000
C                  1.2057510000     -0.7551130000     -0.0903110000
C                  1.2635650000      0.5844720000     -0.2229760000
Cl                 2.6934000000      1.4237650000     -0.6818440000
C                  0.0630240000      1.4485410000      0.0251910000
O                  0.1143560000      2.6481450000     -0.0934010000
Cl                 2.5541360000     -1.7872470000     -0.3636330000
$end
$rem
MAX_SCF_CYCLES=200
BASIS  =  6-311++G(d,p)
GUI  =  2
JOB_TYPE  =  SP
METHOD  =  B3LYP
SOLVENT_METHOD = COSMO
$end
$solvent
dielectric 37.219
opticaldielectric 1.43
$end

--------------------------------------------------------------

             Standard Nuclear Orientation (Angstroms)
    I     Atom           X                Y                Z
 ----------------------------------------------------------------
    1      Cl      2.7191341415    -1.6150470809    -0.0000233791
    2      C       1.2795990766    -0.6736868007    -0.0000168907
    3      C       1.2796362606     0.6737442388    -0.0000055574
    4      Cl      2.7199772293     1.6140781459     0.0000307811
    5      C       0.0006858378     1.4569424906    -0.0000177722
    6      O       0.0002988275     2.6635742773    -0.0000677347
    7      C      -1.2795813680     0.6737115305     0.0000108238
    8      C      -1.2798016327    -0.6736675492    -0.0000021265
    9      Cl     -2.7200854621    -1.6144030054    -0.0000270462
   10      C      -0.0007814650    -1.4569990242    -0.0000030347
   11      O      -0.0005001140    -2.6635431422     0.0000731638
   12      Cl     -2.7188453183     1.6153414466     0.0000292862
 ----------------------------------------------------------------

    8   -2220.0297874564      7.50e-06  Convergence criterion met
 Total energy in the final basis set =    -2220.0297874564
    5   -2220.0410840354      3.10e-06  Convergence criterion met
 Total energy in the final basis set =    -2220.0410840354

                    Orbital Energies (a.u.)
 --------------------------------------------------------------

 Alpha MOs
 -- Occupied --
********-101.5915-101.5914-101.5914 -19.1700 -19.1699 -10.3265 -10.3265
-10.2932 -10.2932 -10.2924 -10.2924  -9.5059  -9.5059  -9.5058  -9.5058
 -7.2709  -7.2708  -7.2708  -7.2708  -7.2610  -7.2610  -7.2610  -7.2609
 -7.2596  -7.2596  -7.2596  -7.2596  -1.1105  -1.1083  -0.9523  -0.9404
 -0.8934  -0.8911  -0.8380  -0.7652  -0.7246  -0.6384  -0.6373  -0.5845
 -0.5307  -0.5096  -0.4969  -0.4913  -0.4823  -0.4772  -0.4595  -0.4570
 -0.4270  -0.3949  -0.3729  -0.3658  -0.3654  -0.3581  -0.3450  -0.3381
 -0.3254  -0.3151  -0.3077  -0.2832

          Ground-State Mulliken Net Atomic Charges

     Atom                 Charge (a.u.)
  ----------------------------------------
      1 Cl                    0.411390
      2 C                     0.676999
      3 C                     0.681982
      4 Cl                    0.410181
      5 C                    -2.014409
      6 O                    -0.166418
      7 C                     0.677539
      8 C                     0.681928
      9 Cl                    0.410290
     10 C                    -2.014204
     11 O                    -0.166061
     12 Cl                    0.410783
  ----------------------------------------
  Sum of atomic charges =     0.000000

                    Cartesian Multipole Moments
 -----------------------------------------------------------------
    Charge (ESU x 10^10)
                 0.0000
    Dipole Moment (Debye)
         X       0.0015      Y      -0.0018      Z       0.0003
       Tot       0.0024
    Quadrupole Moments (Debye-Ang)
        XX     -90.5054     XY      -0.0209     YY    -112.0931
        XZ      -0.0001     YZ       0.0001     ZZ     -92.0711

 Total job time:  24.07s(wall), 109.53s(cpu)
        *  Thank you very much for using Q-Chem.  Have a nice day.  *
