 Gaussian 16, Revision A.03,
 Gaussian 16:  ES64L-G16RevA.03 25-Dec-2016

 ----------------------------------------------------------------
 #P UB3LYP/6-311++G(d,p) SCRF=(PCM,Solvent=n,n-DiMethylFormamide)
 ----------------------------------------------------------------

 ------------------
 Quinone PCM in DMF
 ------------------
 Symbolic Z-matrix:
 Charge =  0 Multiplicity = 1

                         Standard orientation:
 ---------------------------------------------------------------------
 Center     Atomic      Atomic             Coordinates (Angstroms)
 Number     Number       Type             X           Y           Z
 ---------------------------------------------------------------------
      1          6           0       -0.205571   -1.473582   -0.013226
      2          6           0        1.017695   -0.669905   -0.005871
      3          6           0        1.017693    0.669889   -0.006090
      4          6           0       -0.205563    1.473605   -0.013269
      5          6           0       -1.488610    0.677441    0.009221
      6          6           0       -1.488598   -0.677362    0.008887
      7          8           0       -0.190870   -2.691021   -0.040311
      8          8           0       -0.190802    2.691040   -0.040318
      9          6           0       -2.758178   -1.482113    0.027776
     10          6           0       -2.758267    1.482082    0.028259
     11          8           0        2.289285    1.158700   -0.067511
     12          8           0        2.289288   -1.158734   -0.067202
     13          6           0        3.124875    0.000003    0.127639
     14          1           0       -3.347875   -1.262458    0.923584
     15          1           0       -2.535211   -2.547610    0.010915
     16          1           0       -3.387005   -1.242974   -0.835590
     17          1           0       -2.535197    2.547691    0.028009
     18          1           0       -3.356533    1.249298    0.914865
     19          1           0       -3.378794    1.255758   -0.844679
     20          1           0        3.926111   -0.000086   -0.609243
     21          1           0        3.506446    0.000150    1.154924
 ---------------------------------------------------------------------

 SCF Done:  E(UB3LYP) =  -648.808555347     A.U. after   14 cycles

 The electronic state is 1-A.
 Alpha  occ. eigenvalues --  -19.19521 -19.19520 -19.14800 -19.14800 -10.30636
 Alpha  occ. eigenvalues --  -10.29734 -10.29733 -10.26576 -10.26495 -10.21750
 Alpha  occ. eigenvalues --  -10.21677 -10.17620 -10.17619  -1.15986  -1.08379
 Alpha  occ. eigenvalues --   -1.07979  -1.06134  -0.87429  -0.81986  -0.75541
 Alpha  occ. eigenvalues --   -0.72580  -0.70896  -0.67639  -0.62163  -0.61984
 Alpha  occ. eigenvalues --   -0.55979  -0.54363  -0.53837  -0.49739  -0.48778
 Alpha  occ. eigenvalues --   -0.47469  -0.46884  -0.44130  -0.43935  -0.42946
 Alpha  occ. eigenvalues --   -0.42167  -0.41844  -0.41223  -0.40469  -0.39046
 Alpha  occ. eigenvalues --   -0.38805  -0.38289  -0.37829  -0.30135  -0.29120
 Alpha  occ. eigenvalues --   -0.29017  -0.23949
 Alpha virt. eigenvalues --   -0.13733  -0.01489  -0.01167   0.00065   0.00500
 Alpha virt. eigenvalues --    0.01298   0.02615   0.02758   0.02860   0.03442
 Alpha virt. eigenvalues --    0.03768   0.05392   0.05492   0.06073   0.07162

  Beta  occ. eigenvalues --  -19.19521 -19.19520 -19.14800 -19.14800 -10.30636
  Beta  occ. eigenvalues --  -10.29734 -10.29733 -10.26576 -10.26495 -10.21750
  Beta  occ. eigenvalues --  -10.21677 -10.17620 -10.17619  -1.15986  -1.08379
  Beta  occ. eigenvalues --   -1.07979  -1.06134  -0.87429  -0.81986  -0.75541
  Beta  occ. eigenvalues --   -0.72580  -0.70896  -0.67639  -0.62163  -0.61984
  Beta  occ. eigenvalues --   -0.55979  -0.54363  -0.53837  -0.49739  -0.48778
  Beta  occ. eigenvalues --   -0.47469  -0.46884  -0.44130  -0.43935  -0.42946
  Beta  occ. eigenvalues --   -0.42167  -0.41844  -0.41223  -0.40469  -0.39046
  Beta  occ. eigenvalues --   -0.38805  -0.38289  -0.37829  -0.30135  -0.29120
  Beta  occ. eigenvalues --   -0.29017  -0.23949
  Beta virt. eigenvalues --   -0.13733  -0.01489  -0.01167   0.00065   0.00500
  Beta virt. eigenvalues --    0.01298   0.02615   0.02758   0.02860   0.03442
  Beta virt. eigenvalues --    0.03768   0.05392   0.05492   0.06073   0.07162

 Mulliken charges and spin densities:
               1          2
     1  C   -1.002658  -0.000000
     2  C    0.416737  -0.000000
     3  C    0.416840   0.000000
     4  C   -1.002377  -0.000000
     5  C    0.730915  -0.000000
     6  C    0.731032   0.000000
     7  O   -0.301380   0.000000
     8  O   -0.301422   0.000000
     9  C   -0.440617   0.000000
    10  C   -0.440549  -0.000000
    11  O   -0.164340  -0.000000
    12  O   -0.164311   0.000000
    13  C   -0.027085   0.000000
    14  H    0.176984  -0.000000
    15  H    0.195384   0.000000
    16  H    0.175375  -0.000000
    17  H    0.195295   0.000000
    18  H    0.175735   0.000000
    19  H    0.176701  -0.000000
    20  H    0.215552   0.000000
    21  H    0.238190   0.000000
 Sum of Mulliken charges =  -0.00000  -0.00000

 Dipole moment (field-independent basis, Debye):
    X=             -0.7588    Y=             -0.0000    Z=              0.6145  Tot=              0.9764
 Quadrupole moment (field-independent basis, Debye-Ang):
   XX=            -55.1133   YY=           -100.1103   ZZ=            -72.4311
   XY=             -0.0001   XZ=              1.1789   YZ=             -0.0030

 Normal termination of Gaussian 16 at Sun Jan 21 06:57:37 2024.
