 Q-Chem 5.4, Q-Chem, Inc., Pleasanton, CA (2021)
 Q-Chem 5.4.0 for Intel X86 EM64T Linux

User input:
--------------------------------------------------------------
$molecule
-2 1
C                 -1.6459860000      2.8552810000     -0.7337480000
C                 -2.8654560000      2.2053460000     -0.7183890000
C                 -2.9061990000      0.8007410000     -0.5040240000
C                 -0.4171340000      2.1819040000     -0.5228040000
C                 -0.4677890000      0.7560740000     -0.2477830000
C                 -1.7304370000      0.1096610000     -0.2756920000
C                  0.8257990000      2.9440520000     -0.5997960000
C                  2.0910800000      2.1805060000     -0.3870950000
C                  1.9547060000      0.7795750000     -0.0920660000
C                  0.7564590000      0.0734050000     -0.0083800000
O                  0.8280490000      4.1875300000     -0.8375700000
O                  3.2319460000      2.7355710000     -0.4483840000
H                 -1.5810350000      3.9235500000     -0.9174750000
H                 -3.7871260000      2.7600530000     -0.8859510000
H                 -3.8558440000      0.2689770000     -0.5184390000
H                 -1.7551040000     -0.9657900000     -0.1281770000
H                  2.8967680000      0.2685750000      0.0914340000
N                  0.7133290000     -1.3447420000      0.2836810000
C                  1.8513280000     -2.1245080000     -0.1642160000
C                  0.3903580000     -1.6541410000      1.6770340000
H                  2.0826790000     -1.8758740000     -1.2020360000
H                  1.6123590000     -3.1916560000     -0.1002800000
H                  2.7703110000     -1.9612880000      0.4360010000
H                 -0.4689010000     -1.0640320000      1.9956300000
H                  1.2336110000     -1.4320850000      2.3646300000
H                  0.1425080000     -2.7208730000      1.7859360000
$end
$rem
MAX_SCF_CYCLES=200
BASIS  =  6-311++G(d,p)
GUI  =  2
JOB_TYPE  =  SP
METHOD  =  B3LYP
SOLVENT_METHOD = COSMO
$end
$solvent
dielectric 37.219
opticaldielectric 1.43
$end

--------------------------------------------------------------

             Standard Nuclear Orientation (Angstroms)
    I     Atom           X                Y                Z
 ----------------------------------------------------------------
    1      C       2.5095226090     0.9531441807     0.0258286843
    2      C       2.4145572747     2.3288866614    -0.0640194996
    3      C       1.1356979607     2.9335979501    -0.2031980301
    4      C       1.3747153134     0.1047184364     0.0058950042
    5      C       0.0661056885     0.7303857912    -0.0793978974
    6      C       0.0020152630     2.1418394668    -0.2082372926
    7      C       1.5747726644    -1.3404154634     0.0628586113
    8      C       0.3453336304    -2.1865071126     0.0205643920
    9      C      -0.9121741487    -1.4909423342    -0.0352161607
   10      C      -1.0820890460    -0.1085137234    -0.0738859455
   11      O       2.7321406638    -1.8475070992     0.1411941778
   12      O       0.3988538911    -3.4553307580     0.0460764339
   13      H       3.4737714256     0.4609061890     0.1100835262
   14      H       3.3119095017     2.9450678814    -0.0457944231
   15      H       1.0455533994     4.0135548338    -0.3050482014
   16      H      -0.9756623781     2.5979043277    -0.3311814354
   17      H      -1.7828740245    -2.1421761200    -0.0281207875
   18      N      -2.3910760785     0.5081964875    -0.1411332700
   19      C      -3.4220107209    -0.2527045712    -0.8207594933
   20      C      -2.8791087416     1.0065326869     1.1453175619
   21      H      -3.0387718749    -0.6226251407    -1.7740166793
   22      H      -4.2868068100     0.3917576004    -1.0125799369
   23      H      -3.7896556459    -1.1252930541    -0.2420907465
   24      H      -2.0946906403     1.5794064223     1.6398496617
   25      H      -3.1861565238     0.1851393106     1.8266451844
   26      H      -3.7510667996     1.6615533826     0.9975222264
 ----------------------------------------------------------------

   16    -669.2226868189      6.98e-06  Convergence criterion met
 Total energy in the final basis set =     -669.2226868189
    6    -669.5170893578      5.31e-06  Convergence criterion met
 Total energy in the final basis set =     -669.5170893578

                    Orbital Energies (a.u.)
 --------------------------------------------------------------

 Alpha MOs
 -- Occupied --
-19.0249 -19.0245 -14.2939 -10.1732 -10.1722 -10.1696 -10.1685 -10.1593
-10.1467 -10.1453 -10.1448 -10.1418 -10.1409 -10.1333 -10.1235  -0.9592
 -0.9323  -0.9087  -0.8246  -0.7626  -0.7237  -0.6973  -0.6852  -0.6582
 -0.6031  -0.5832  -0.5583  -0.5274  -0.4822  -0.4695  -0.4613  -0.4401
 -0.4299  -0.4170  -0.4047  -0.3946  -0.3838  -0.3764  -0.3722  -0.3704
 -0.3612  -0.3521  -0.3472  -0.3330  -0.3222  -0.3035  -0.2974  -0.2714
 -0.2292  -0.2217  -0.2083  -0.1884  -0.1863  -0.1128

          Ground-State Mulliken Net Atomic Charges

     Atom                 Charge (a.u.)
  ----------------------------------------
      1 C                    -0.019594
      2 C                    -0.531885
      3 C                    -0.500650
      4 C                     0.342572
      5 C                     0.172144
      6 C                    -0.130378
      7 C                    -0.419069
      8 C                    -0.131093
      9 C                    -0.170168
     10 C                    -0.258556
     11 O                    -0.726546
     12 O                    -0.743635
     13 H                     0.157743
     14 H                     0.171354
     15 H                     0.176475
     16 H                     0.164059
     17 H                     0.136194
     18 N                     0.083425
     19 C                    -0.265034
     20 C                    -0.354446
     21 H                     0.157804
     22 H                     0.149098
     23 H                     0.114263
     24 H                     0.133057
     25 H                     0.129035
     26 H                     0.163830
  ----------------------------------------
  Sum of atomic charges =    -2.000000

                    Cartesian Multipole Moments
 -----------------------------------------------------------------
    Charge (ESU x 10^10)
                -9.6064
    Dipole Moment (Debye)
         X     -12.8002      Y      16.4953      Z      -0.0369
       Tot      20.8792
    Quadrupole Moments (Debye-Ang)
        XX    -125.7529     XY      21.1253     YY    -160.9636
        XZ      -1.7775     YZ       3.0490     ZZ    -100.1692

 Total job time:  71.99s(wall), 537.06s(cpu)
        *  Thank you very much for using Q-Chem.  Have a nice day.  *
