 Gaussian 16, Revision A.03,
 Gaussian 16:  ES64L-G16RevA.03 25-Dec-2016

 ----------------------------------------------------------------------
 #P UB3LYP/6-311++G(d,p) nosym opt freq SCRF=(PCM,Solvent=n,n-DiMethylF
 ormamide)
 ----------------------------------------------------------------------

 -------
 Radical
 -------
 Symbolic Z-matrix:
 Charge = -1 Multiplicity = 2

 SCF Done:  E(UB3LYP) =  -1315.17207916     A.U. after   23 cycles
 SCF Done:  E(UB3LYP) =  -1315.17210260     A.U. after   22 cycles
 SCF Done:  E(UB3LYP) =  -1315.17284157     A.U. after   22 cycles
 SCF Done:  E(UB3LYP) =  -1315.17297312     A.U. after   16 cycles
 SCF Done:  E(UB3LYP) =  -1315.17302600     A.U. after   17 cycles
 SCF Done:  E(UB3LYP) =  -1315.17305647     A.U. after   17 cycles
 SCF Done:  E(UB3LYP) =  -1315.17306227     A.U. after   15 cycles
 SCF Done:  E(UB3LYP) =  -1315.17306369     A.U. after   14 cycles
 SCF Done:  E(UB3LYP) =  -1315.17306389     A.U. after   14 cycles
 SCF Done:  E(UB3LYP) =  -1315.17306396     A.U. after   13 cycles
 Optimization completed.
    -- Stationary point found.
 Normal termination of Gaussian 16 at Sun Feb 11 02:30:05 2024.

 ----------------------------------------------------------------------
 #P Geom=AllCheck Guess=TCheck SCRF=Check GenChk UB3LYP/6-311++G(d,p) F
 req
 ----------------------------------------------------------------------

 Structure from the checkpoint file:  "268-rad.chk"
 -------
 Radical
 -------
 Charge = -1 Multiplicity = 2

                          Input orientation:
 ---------------------------------------------------------------------
 Center     Atomic      Atomic             Coordinates (Angstroms)
 Number     Number       Type             X           Y           Z
 ---------------------------------------------------------------------
      1          6           0        1.495641    3.368681   -0.380194
      2          6           0        0.756008    3.054568   -1.508335
      3          6           0        0.076314    1.827632   -1.581478
      4          6           0        1.576787    2.473090    0.701549
      5          6           0        0.891738    1.235225    0.628100
      6          6           0        0.145720    0.933464   -0.526172
      7          6           0        2.379364    2.850261    1.888099
      8          6           0        2.403083    1.864797    2.940686
      9          6           0        1.743894    0.648548    2.872350
     10          6           0        0.957101    0.265889    1.739363
     11          8           0        2.994092    3.940061    1.946386
     12          8           0        0.353840   -0.842530    1.692679
     13         16           0        3.331222    2.216737    4.435495
     14          8           0        2.899049    3.497860    5.030123
     15          8           0        3.246856    1.012966    5.293489
     16          6           0        5.059935    2.383517    3.944525
     17          6           0        5.606003    3.651463    3.761878
     18          6           0        5.822508    1.227105    3.778645
     19          6           0        6.950110    3.760726    3.408773
     20          6           0        7.725482    2.613932    3.235758
     21          6           0        7.162645    1.349676    3.418522
     22          1           0        2.025604    4.310544   -0.307933
     23          1           0        0.701777    3.754453   -2.334745
     24          1           0       -0.502520    1.581179   -2.464748
     25          1           0       -0.372664   -0.016597   -0.568797
     26          1           0        1.812436   -0.050758    3.696256
     27          1           0        4.987627    4.528316    3.891945
     28          1           0        5.380194    0.251759    3.937529
     29          1           0        7.389412    4.741492    3.269052
     30          1           0        8.769577    2.704675    2.959127
     31          1           0        7.766806    0.459520    3.288966
 ---------------------------------------------------------------------

 SCF Done:  E(UB3LYP) =  -1315.17306396     A.U. after    2 cycles

 Alpha  occ. eigenvalues --  -89.05244 -19.11751 -19.11676 -19.09079 -19.08961
 Alpha  occ. eigenvalues --  -10.24632 -10.23496 -10.21578 -10.20295 -10.19739
 Alpha  occ. eigenvalues --  -10.19518 -10.19139 -10.18993 -10.18934 -10.18632
 Alpha  occ. eigenvalues --  -10.18533 -10.18434 -10.18112 -10.18044 -10.17883
 Alpha  occ. eigenvalues --  -10.17809  -8.11625  -6.07914  -6.07799  -6.07712
 Alpha  occ. eigenvalues --   -1.10861  -1.01954  -1.01096  -1.00268  -0.87977
 Alpha  occ. eigenvalues --   -0.86919  -0.82857  -0.78434  -0.76682  -0.75939
 Alpha  occ. eigenvalues --   -0.75894  -0.71021  -0.67355  -0.63453  -0.62564
 Alpha  occ. eigenvalues --   -0.62494  -0.59216  -0.57162  -0.54517  -0.52186
 Alpha  occ. eigenvalues --   -0.51584  -0.49531  -0.48528  -0.47969  -0.47067
 Alpha  occ. eigenvalues --   -0.45816  -0.45269  -0.44334  -0.44107  -0.43369
 Alpha  occ. eigenvalues --   -0.42956  -0.42798  -0.41886  -0.40353  -0.39454
 Alpha  occ. eigenvalues --   -0.38653  -0.38231  -0.36457  -0.36450  -0.36260
 Alpha  occ. eigenvalues --   -0.34889  -0.34301  -0.32756  -0.31210  -0.30504
 Alpha  occ. eigenvalues --   -0.29775  -0.27851  -0.27362  -0.26402  -0.26184
 Alpha  occ. eigenvalues --   -0.25705  -0.24880  -0.17207
 Alpha virt. eigenvalues --   -0.05350  -0.04213  -0.03018  -0.02727  -0.00511
 Alpha virt. eigenvalues --    0.00228   0.01026   0.01557   0.02063   0.02453
 Alpha virt. eigenvalues --    0.02880   0.03242   0.03641   0.03974   0.04605

  Beta  occ. eigenvalues --  -89.05246 -19.11737 -19.11680 -19.08546 -19.08243
  Beta  occ. eigenvalues --  -10.24535 -10.23385 -10.21577 -10.20140 -10.19734
  Beta  occ. eigenvalues --  -10.19512 -10.19134 -10.18995 -10.18936 -10.18603
  Beta  occ. eigenvalues --  -10.18521 -10.18117 -10.18102 -10.18021 -10.17882
  Beta  occ. eigenvalues --  -10.17793  -8.11627  -6.07915  -6.07800  -6.07717
  Beta  occ. eigenvalues --   -1.10837  -1.01064  -1.00238  -0.99830  -0.87967
  Beta  occ. eigenvalues --   -0.86727  -0.82309  -0.78371  -0.76675  -0.75781
  Beta  occ. eigenvalues --   -0.75754  -0.70368  -0.66895  -0.63319  -0.62543
  Beta  occ. eigenvalues --   -0.62251  -0.59119  -0.56978  -0.54422  -0.51981
  Beta  occ. eigenvalues --   -0.51426  -0.49240  -0.48470  -0.47946  -0.46941
  Beta  occ. eigenvalues --   -0.45795  -0.45225  -0.44215  -0.44096  -0.43306
  Beta  occ. eigenvalues --   -0.42502  -0.41612  -0.41293  -0.40072  -0.39000
  Beta  occ. eigenvalues --   -0.38245  -0.36643  -0.36444  -0.36303  -0.35411
  Beta  occ. eigenvalues --   -0.34795  -0.34222  -0.32675  -0.31026  -0.30405
  Beta  occ. eigenvalues --   -0.28267  -0.27427  -0.26368  -0.25818  -0.25607
  Beta  occ. eigenvalues --   -0.25142  -0.24319
  Beta virt. eigenvalues --   -0.10318  -0.04944  -0.03565  -0.02813  -0.01917
  Beta virt. eigenvalues --   -0.00498   0.00234   0.01046   0.01574   0.02069
  Beta virt. eigenvalues --    0.02489   0.03066   0.03481   0.03861   0.04477

 Mulliken charges and spin densities:
               1          2
     1  C    0.190916   0.022012
     2  C   -0.397369   0.020601
     3  C   -0.343923   0.004403
     4  C    0.119627  -0.026887
     5  C    0.442082   0.017550
     6  C    0.011881   0.022864
     7  C   -0.599506   0.061134
     8  C    0.102550   0.109034
     9  C   -0.186741   0.234293
    10  C   -0.533158   0.089277
    11  O   -0.362594   0.202253
    12  O   -0.451664   0.260689
    13  S    0.469280  -0.022903
    14  O   -0.252072   0.006550
    15  O   -0.247124  -0.003039
    16  C    0.464290   0.011611
    17  C   -0.177578   0.016388
    18  C   -0.072961   0.001206
    19  C   -0.417025  -0.004800
    20  C   -0.330509   0.004570
    21  C   -0.512929  -0.002750
    22  H    0.169179  -0.001470
    23  H    0.190084  -0.001624
    24  H    0.192835  -0.000534
    25  H    0.164642  -0.003647
    26  H    0.248485  -0.018022
    27  H    0.261332   0.000045
    28  H    0.239173   0.001262
    29  H    0.215648   0.000113
    30  H    0.191736  -0.000262
    31  H    0.211414   0.000081
 Sum of Mulliken charges =  -1.00000   1.00000

 Dipole moment (field-independent basis, Debye):
    X=             -6.2814    Y=             -7.7060    Z=            -17.1551  Tot=             19.8277
 Quadrupole moment (field-independent basis, Debye-Ang):
   XX=           -122.7349   YY=           -167.5516   ZZ=           -206.0723
   XY=            -20.3808   XZ=            -29.0559   YZ=            -35.8581

  Exact polarizability: 336.183  68.363 359.637  64.915 -21.187 331.434
 Approx polarizability: 354.588  78.822 449.283  46.352 -26.611 351.381

                      1                      2                      3
                      A                      A                      A
 Frequencies --     24.4790                31.8479                44.9862
 Red. masses --      5.3543                 6.8631                 4.6065
 Frc consts  --      0.0019                 0.0041                 0.0055
 IR Inten    --      1.8856                 2.3513                 1.5382

                      4                      5                      6
                      A                      A                      A
 Frequencies --     76.1510               129.6050               139.7913
 Red. masses --      7.4555                 4.8857                 7.9112
 Frc consts  --      0.0255                 0.0484                 0.0911
 IR Inten    --      5.5060                 0.1340                 0.3392

                      7                      8                      9
                      A                      A                      A
 Frequencies --    150.1087               176.2071               197.9549
 Red. masses --      8.3666                 6.6692                 5.9634
 Frc consts  --      0.1111                 0.1220                 0.1377
 IR Inten    --     19.3832                 1.0253                 1.4950

                     10                     11                     12
                      A                      A                      A
 Frequencies --    222.6068               262.1714               271.7361
 Red. masses --      6.4100                 8.0074                 7.0497
 Frc consts  --      0.1871                 0.3243                 0.3067
 IR Inten    --      0.5138                 1.1546                 3.9201

                     13                     14                     15
                      A                      A                      A
 Frequencies --    283.3131               302.3045               364.0915
 Red. masses --     10.9017                 8.3127                 8.2325
 Frc consts  --      0.5156                 0.4476                 0.6430
 IR Inten    --      4.1964                 6.5917                21.7410

                     16                     17                     18
                      A                      A                      A
 Frequencies --    368.4442               410.3389               414.1114
 Red. masses --      8.3220                 2.8747                 6.2246
 Frc consts  --      0.6656                 0.2852                 0.6289
 IR Inten    --     10.8264                 0.0427                 3.3339

                     19                     20                     21
                      A                      A                      A
 Frequencies --    437.1441               454.6030               468.7413
 Red. masses --      4.0615                 5.6686                10.1674
 Frc consts  --      0.4573                 0.6902                 1.3162
 IR Inten    --      7.1295                26.3182                 0.4630

                     22                     23                     24
                      A                      A                      A
 Frequencies --    479.8385               495.4973               535.7101
 Red. masses --      4.8087                 6.9019                 7.7833
 Frc consts  --      0.6523                 0.9984                 1.3161
 IR Inten    --     11.4990                 7.5996               103.7149

                     25                     26                     27
                      A                      A                      A
 Frequencies --    568.2976               616.3731               625.6512
 Red. masses --      8.2210                 7.8052                 6.4590
 Frc consts  --      1.5643                 1.7471                 1.4896
 IR Inten    --    270.0574               176.4351                 0.4658

                     28                     29                     30
                      A                      A                      A
 Frequencies --    652.2687               669.6738               696.1196
 Red. masses --      3.3304                 6.1147                 3.4141
 Frc consts  --      0.8348                 1.6157                 0.9747
 IR Inten    --      7.1066                 8.7161                33.3661

                     31                     32                     33
                      A                      A                      A
 Frequencies --    699.2661               717.0927               723.5219
 Red. masses --      2.2150                 6.2704                 6.3503
 Frc consts  --      0.6381                 1.8998                 1.9586
 IR Inten    --     87.9095               115.8065                37.1320

                     34                     35                     36
                      A                      A                      A
 Frequencies --    762.2670               783.8941               798.1315
 Red. masses --      1.6365                 1.8380                 2.9518
 Frc consts  --      0.5602                 0.6654                 1.1078
 IR Inten    --     23.9666                66.1358                 7.4098

                     37                     38                     39
                      A                      A                      A
 Frequencies --    829.9664               834.6653               852.2920
 Red. masses --      5.4875                 7.9626                 1.2466
 Frc consts  --      2.2271                 3.2684                 0.5335
 IR Inten    --     22.5433                27.0107                 0.0796

                     40                     41                     42
                      A                      A                      A
 Frequencies --    875.3206               898.0222               941.5600
 Red. masses --      1.5308                 1.4346                 1.3475
 Frc consts  --      0.6910                 0.6817                 0.7038
 IR Inten    --     21.3847                 0.0912                 0.7476

                     43                     44                     45
                      A                      A                      A
 Frequencies --    992.0729               993.7686              1009.3992
 Red. masses --      1.3698                 1.3803                 1.2965
 Frc consts  --      0.7943                 0.8031                 0.7783
 IR Inten    --      2.2076                 0.1377                 0.0242

                     46                     47                     48
                      A                      A                      A
 Frequencies --   1011.0320              1014.6159              1030.8656
 Red. masses --      5.6476                 1.3432                 6.0646
 Frc consts  --      3.4013                 0.8147                 3.7971
 IR Inten    --     27.3014                 0.8067               123.7546

                     49                     50                     51
                      A                      A                      A
 Frequencies --   1039.4551              1049.5124              1086.7765
 Red. masses --      2.5993                 2.9867                 2.9963
 Frc consts  --      1.6547                 1.9383                 2.0850
 IR Inten    --     74.8873               159.7554               115.3896

                     52                     53                     54
                      A                      A                      A
 Frequencies --   1096.9051              1100.0028              1104.0913
 Red. masses --      1.6077                 3.4024                 2.8647
 Frc consts  --      1.1397                 2.4256                 2.0575
 IR Inten    --     29.4469               167.2715                24.1142

                     55                     56                     57
                      A                      A                      A
 Frequencies --   1143.9338              1165.8885              1179.9493
 Red. masses --      1.7110                 1.3074                 1.1131
 Frc consts  --      1.3192                 1.0471                 0.9131
 IR Inten    --     34.4343                 4.9252                 0.0500

                     58                     59                     60
                      A                      A                      A
 Frequencies --   1193.9818              1198.0224              1220.3957
 Red. masses --      1.1526                16.0608                 2.0691
 Frc consts  --      0.9682                13.5815                 1.8156
 IR Inten    --      3.4348               347.0338                30.4495

                     61                     62                     63
                      A                      A                      A
 Frequencies --   1251.1196              1292.9023              1328.7821
 Red. masses --      2.4927                 2.0145                 3.0782
 Frc consts  --      2.2989                 1.9841                 3.2022
 IR Inten    --     58.7040                25.4884                 0.7749

                     64                     65                     66
                      A                      A                      A
 Frequencies --   1342.1135              1348.7257              1381.6704
 Red. masses --      1.7815                 8.8617                 3.4237
 Frc consts  --      1.8906                 9.4976                 3.8508
 IR Inten    --      6.7378                18.3553                31.7692

                     67                     68                     69
                      A                      A                      A
 Frequencies --   1451.1678              1468.3953              1473.3731
 Red. masses --      4.7788                 3.2286                 2.1175
 Frc consts  --      5.9293                 4.1016                 2.7083
 IR Inten    --    265.9854               353.7054                19.1029

                     70                     71                     72
                      A                      A                      A
 Frequencies --   1486.3445              1504.4160              1524.6754
 Red. masses --      3.2783                 2.0249                 5.6416
 Frc consts  --      4.2671                 2.7001                 7.7270
 IR Inten    --     28.9069                 7.8438              1016.6420

                     73                     74                     75
                      A                      A                      A
 Frequencies --   1561.7383              1616.5283              1618.2756
 Red. masses --      6.2570                 6.6896                 6.1628
 Frc consts  --      8.9915                10.2995                 9.5090
 IR Inten    --     82.5828                 6.4714                 5.5533

                     76                     77                     78
                      A                      A                      A
 Frequencies --   1621.3740              1635.5512              3165.1260
 Red. masses --      5.9051                 6.0964                 1.0864
 Frc consts  --      9.1463                 9.6084                 6.4127
 IR Inten    --      1.9675                 8.8230                 7.2326

                     79                     80                     81
                      A                      A                      A
 Frequencies --   3172.9502              3178.3746              3183.0880
 Red. masses --      1.0867                 1.0905                 1.0900
 Frc consts  --      6.4457                 6.4903                 6.5071
 IR Inten    --      0.5214                17.6939                16.4890

                     82                     83                     84
                      A                      A                      A
 Frequencies --   3191.9554              3192.2787              3195.4926
 Red. masses --      1.0923                 1.0945                 1.0904
 Frc consts  --      6.5569                 6.5718                 6.5601
 IR Inten    --     11.1939                18.0196                 9.9496

                     85                     86                     87
                      A                      A                      A
 Frequencies --   3195.7074              3202.5494              3221.9839
 Red. masses --      1.0936                 1.0950                 1.0929
 Frc consts  --      6.5805                 6.6170                 6.6844
 IR Inten    --     42.4412                 8.5449                 2.9555

 - Thermochemistry -
 -------------------
 Temperature   298.150 Kelvin.  Pressure   1.00000 Atm.
 Atom     1 has atomic number  6 and mass  12.00000

 Molecular mass:   298.02998 amu.
 Principal axes and moments of inertia in atomic units:
                           1         2         3
     Eigenvalues --  3443.876559410.80582**********
           X            0.77334  -0.40477  -0.48796
           Y            0.14434  -0.63705   0.75719
           Z            0.61734   0.65600   0.43423
 This molecule is an asymmetric top.
 Rotational symmetry number  1.
 Warning -- assumption of classical behavior for rotation
           may cause significant error
 Rotational temperatures (Kelvin)      0.02515     0.00920     0.00818
 Rotational constants (GHZ):           0.52404     0.19177     0.17043
 Zero-point vibrational energy     578535.0 (Joules/Mol)
                                  138.27318 (Kcal/Mol)
 Warning -- explicit consideration of  26 degrees of freedom as
           vibrations may cause significant error
 Vibrational temperatures:     35.22    45.82    64.73   109.56   186.47
          (Kelvin)            201.13   215.97   253.52   284.81   320.28
                              377.21   390.97   407.62   434.95   523.85
                              530.11   590.39   595.81   628.95   654.07
                              674.41   690.38   712.91   770.77   817.65
                              886.82   900.17   938.47   963.51  1001.56
                             1006.09  1031.74  1040.99  1096.73  1127.85
                             1148.33  1194.14  1200.90  1226.26  1259.39
                             1292.05  1354.69  1427.37  1429.81  1452.30
                             1454.65  1459.81  1483.19  1495.54  1510.01
                             1563.63  1578.20  1582.66  1588.54  1645.87
                             1677.45  1697.68  1717.87  1723.69  1755.88
                             1800.08  1860.20  1911.82  1931.00  1940.52
                             1987.92  2087.91  2112.69  2119.86  2138.52
                             2164.52  2193.67  2246.99  2325.82  2328.34
                             2332.80  2353.19  4553.91  4565.17  4572.97
                             4579.75  4592.51  4592.98  4597.60  4597.91
                             4607.75  4635.72

 Zero-point correction=                           0.220352 (Hartree/Particle)
 Thermal correction to Energy=                    0.237145
 Thermal correction to Enthalpy=                  0.238089
 Thermal correction to Gibbs Free Energy=         0.173845
 Sum of electronic and zero-point Energies=          -1314.952712
 Sum of electronic and thermal Energies=             -1314.935919
 Sum of electronic and thermal Enthalpies=           -1314.934975
 Sum of electronic and thermal Free Energies=        -1314.999219

                     E (Thermal)             CV                S
                      KCal/Mol        Cal/Mol-Kelvin    Cal/Mol-Kelvin
 Total                  148.811             66.020            135.214
 Electronic               0.000              0.000              1.377
 Translational            0.889              2.981             42.973
 Rotational               0.889              2.981             34.195
 Vibrational            147.033             60.059             56.669
 Vibration     1          0.593              1.985              6.233
 Vibration     2          0.594              1.983              5.711
 Vibration     3          0.595              1.979              5.026
 Vibration     4          0.599              1.965              3.988
 Vibration     5          0.612              1.924              2.952
 Vibration     6          0.615              1.914              2.807
 Vibration     7          0.618              1.903              2.671
 Vibration     8          0.628              1.872              2.368
 Vibration     9          0.637              1.843              2.152
 Vibration    10          0.648              1.807              1.938
 Vibration    11          0.669              1.742              1.647
 Vibration    12          0.675              1.725              1.585
 Vibration    13          0.682              1.705              1.514
 Vibration    14          0.694              1.669              1.404
 Vibration    15          0.738              1.546              1.105
 Vibration    16          0.741              1.537              1.086
 Vibration    17          0.775              1.448              0.925
 Vibration    18          0.778              1.440              0.912
 Vibration    19          0.797              1.389              0.836
 Vibration    20          0.813              1.351              0.782
 Vibration    21          0.826              1.319              0.741
 Vibration    22          0.836              1.295              0.710
 Vibration    23          0.851              1.260              0.669
 Vibration    24          0.891              1.171              0.575
 Vibration    25          0.924              1.100              0.508
 Vibration    26          0.976              0.997              0.422

                           ! Non-Optimized Parameters !
 Normal termination of Gaussian 16 at Sun Feb 11 03:46:59 2024.
