 Gaussian 16, Revision A.03,
 Gaussian 16:  ES64L-G16RevA.03 25-Dec-2016

 ----------------------------------------------------------------------
 #P UB3LYP/6-311++G(d,p) nosym opt freq SCRF=(PCM,Solvent=n,n-DiMethylF
 ormamide)
 ----------------------------------------------------------------------

 -------
 Reduced
 -------
 Symbolic Z-matrix:
 Charge = -2 Multiplicity = 1

 SCF Done:  E(UB3LYP) =  -496.413125709     A.U. after   16 cycles
 SCF Done:  E(UB3LYP) =  -496.413694267     A.U. after   13 cycles
 SCF Done:  E(UB3LYP) =  -496.413795804     A.U. after   12 cycles
 SCF Done:  E(UB3LYP) =  -496.413819224     A.U. after   12 cycles
 SCF Done:  E(UB3LYP) =  -496.413827687     A.U. after   11 cycles
 SCF Done:  E(UB3LYP) =  -496.413833601     A.U. after   11 cycles
 SCF Done:  E(UB3LYP) =  -496.413841838     A.U. after   11 cycles
 SCF Done:  E(UB3LYP) =  -496.413852642     A.U. after   11 cycles
 SCF Done:  E(UB3LYP) =  -496.413857627     A.U. after   13 cycles
 SCF Done:  E(UB3LYP) =  -496.413878244     A.U. after   13 cycles
 SCF Done:  E(UB3LYP) =  -496.413809124     A.U. after   13 cycles
 SCF Done:  E(UB3LYP) =  -496.413919632     A.U. after   10 cycles
 SCF Done:  E(UB3LYP) =  -496.413722975     A.U. after   13 cycles
 SCF Done:  E(UB3LYP) =  -496.413785642     A.U. after   13 cycles
 SCF Done:  E(UB3LYP) =  -496.413931205     A.U. after   10 cycles
 SCF Done:  E(UB3LYP) =  -496.413946065     A.U. after   12 cycles
 SCF Done:  E(UB3LYP) =  -496.413947115     A.U. after   10 cycles
 SCF Done:  E(UB3LYP) =  -496.413947363     A.U. after    9 cycles
 SCF Done:  E(UB3LYP) =  -496.413947381     A.U. after    9 cycles
 Optimization completed.
    -- Stationary point found.
 Normal termination of Gaussian 16 at Sat Feb 10 12:59:11 2024.

 ----------------------------------------------------------------------
 #P Geom=AllCheck Guess=TCheck SCRF=Check GenChk UB3LYP/6-311++G(d,p) F
 req
 ----------------------------------------------------------------------

 Structure from the checkpoint file:  "108-an.chk"
 -------
 Reduced
 -------
 Charge = -2 Multiplicity = 1

                          Input orientation:
 ---------------------------------------------------------------------
 Center     Atomic      Atomic             Coordinates (Angstroms)
 Number     Number       Type             X           Y           Z
 ---------------------------------------------------------------------
      1          6           0       -1.772192   -3.718762    1.308095
      2          6           0       -0.412487   -3.944075    1.056176
      3          6           0        0.429513   -2.921396    0.566623
      4          6           0       -0.029548   -1.607366    0.296201
      5          6           0       -1.428837   -1.362604    0.551761
      6          6           0       -2.227424   -2.394362    1.033801
      7          8           0       -2.672345   -4.589082    1.767707
      8          8           0        0.754389   -0.653366   -0.160651
      9          8           0       -3.579672   -2.221554    1.298490
     10          6           0       -2.001599    0.008270    0.291045
     11          1           0       -0.000520   -4.934474    1.245336
     12          1           0        1.480537   -3.139418    0.383819
     13          1           0       -1.503002    0.777028    0.894485
     14          1           0       -3.069316    0.042142    0.515398
     15          1           0       -1.863391    0.310694   -0.754065
     16          1           0       -3.803765   -3.132792    1.611908
 ---------------------------------------------------------------------

 SCF Done:  E(UB3LYP) =  -496.413947381     A.U. after    1 cycles

 Alpha  occ. eigenvalues --  -19.10606 -19.02079 -19.00832 -10.17320 -10.16236
 Alpha  occ. eigenvalues --  -10.15834 -10.13757 -10.12461 -10.11916 -10.11045
 Alpha  occ. eigenvalues --   -1.01650  -0.91282  -0.91062  -0.77648  -0.72158
 Alpha  occ. eigenvalues --   -0.65237  -0.62985  -0.54529  -0.53691  -0.46361
 Alpha  occ. eigenvalues --   -0.44234  -0.41054  -0.39733  -0.38567  -0.36525
 Alpha  occ. eigenvalues --   -0.36303  -0.35559  -0.34730  -0.31521  -0.31391
 Alpha  occ. eigenvalues --   -0.30109  -0.29164  -0.21801  -0.20817  -0.18845
 Alpha  occ. eigenvalues --   -0.18524  -0.11621
 Alpha virt. eigenvalues --    0.00189   0.01517   0.01820   0.03512   0.03820
 Alpha virt. eigenvalues --    0.04509   0.04528   0.06289   0.06745   0.07691
 Alpha virt. eigenvalues --    0.07973   0.08732   0.09454   0.10011   0.10927

  Beta  occ. eigenvalues --  -19.10606 -19.02079 -19.00832 -10.17320 -10.16236
  Beta  occ. eigenvalues --  -10.15834 -10.13757 -10.12461 -10.11916 -10.11045
  Beta  occ. eigenvalues --   -1.01650  -0.91282  -0.91062  -0.77648  -0.72158
  Beta  occ. eigenvalues --   -0.65237  -0.62985  -0.54529  -0.53691  -0.46361
  Beta  occ. eigenvalues --   -0.44234  -0.41054  -0.39733  -0.38567  -0.36525
  Beta  occ. eigenvalues --   -0.36303  -0.35559  -0.34730  -0.31521  -0.31391
  Beta  occ. eigenvalues --   -0.30109  -0.29164  -0.21801  -0.20817  -0.18845
  Beta  occ. eigenvalues --   -0.18524  -0.11621
  Beta virt. eigenvalues --    0.00189   0.01517   0.01820   0.03512   0.03820
  Beta virt. eigenvalues --    0.04509   0.04528   0.06289   0.06745   0.07691
  Beta virt. eigenvalues --    0.07973   0.08732   0.09454   0.10011   0.10927

 Mulliken charges and spin densities:
               1          2
     1  C   -0.249383  -0.000000
     2  C   -0.036707   0.000000
     3  C    0.104721  -0.000000
     4  C   -1.022519   0.000000
     5  C    1.835046  -0.000000
     6  C   -1.381299   0.000000
     7  O   -0.779273  -0.000000
     8  O   -0.744341  -0.000000
     9  O   -0.356048   0.000000
    10  C   -0.321397   0.000000
    11  H    0.130273   0.000000
    12  H    0.117073  -0.000000
    13  H    0.137249   0.000000
    14  H    0.158443   0.000000
    15  H    0.137302   0.000000
    16  H    0.270861  -0.000000
 Sum of Mulliken charges =  -2.00000  -0.00000

 Dipole moment (field-independent basis, Debye):
    X=              9.7299    Y=             23.7330    Z=             -7.4258  Tot=             26.7034
 Quadrupole moment (field-independent basis, Debye-Ang):
   XX=           -106.1698   YY=           -157.9051   ZZ=            -80.8324
   XY=            -46.1000   XZ=             20.4424   YZ=             32.4466

  Exact polarizability: 185.300   9.050 188.431 -22.523 -27.483 112.913
 Approx polarizability: 206.580  11.173 201.748 -26.754 -30.166 120.439

                      1                      2                      3
                      A                      A                      A
 Frequencies --    137.4601               158.9393               199.8490
 Red. masses --      2.4988                 8.5546                 1.2630
 Frc consts  --      0.0278                 0.1273                 0.0297
 IR Inten    --     11.3641                 4.9315                 3.2793

                      4                      5                      6
                      A                      A                      A
 Frequencies --    259.9339               299.9528               323.0399
 Red. masses --      4.3107                 3.0393                 5.8129
 Frc consts  --      0.1716                 0.1611                 0.3574
 IR Inten    --      3.8150                14.2891                32.0862

                      7                      8                      9
                      A                      A                      A
 Frequencies --    361.0649               370.1061               486.4298
 Red. masses --      8.0793                10.4855                 5.4853
 Frc consts  --      0.6206                 0.8462                 0.7647
 IR Inten    --      0.5883                15.5466                 4.6491

                     10                     11                     12
                      A                      A                      A
 Frequencies --    487.2365               499.5432               623.5193
 Red. masses --      4.9588                 7.8819                 4.0974
 Frc consts  --      0.6936                 1.1588                 0.9385
 IR Inten    --      3.9122                 6.3157                 0.3801

                     13                     14                     15
                      A                      A                      A
 Frequencies --    638.1018               674.3673               722.1286
 Red. masses --      2.1007                 6.2812                 2.0561
 Frc consts  --      0.5040                 1.6830                 0.6317
 IR Inten    --     13.8090                10.7387                45.6548

                     16                     17                     18
                      A                      A                      A
 Frequencies --    739.6738               762.6638               780.0811
 Red. masses --      1.8219                 7.9083                 2.1030
 Frc consts  --      0.5873                 2.7102                 0.7540
 IR Inten    --     64.3725               147.7089               124.1389

                     19                     20                     21
                      A                      A                      A
 Frequencies --    842.2767               895.2213              1011.1817
 Red. masses --      1.2790                 2.2960                 3.1114
 Frc consts  --      0.5346                 1.0841                 1.8744
 IR Inten    --      4.5345               113.2868               126.9079

                     22                     23                     24
                      A                      A                      A
 Frequencies --   1043.4401              1075.8586              1150.9557
 Red. masses --      1.4484                 1.9923                 1.8442
 Frc consts  --      0.9291                 1.3587                 1.4394
 IR Inten    --      0.2279               304.0482                38.8077

                     25                     26                     27
                      A                      A                      A
 Frequencies --   1177.5857              1221.0568              1277.0529
 Red. masses --      3.4946                 6.0676                 2.4515
 Frc consts  --      2.8552                 5.3301                 2.3556
 IR Inten    --    323.1789               110.2173               659.2470

                     28                     29                     30
                      A                      A                      A
 Frequencies --   1313.0603              1361.4439              1391.1123
 Red. masses --      4.6316                 1.9044                 1.3333
 Frc consts  --      4.7049                 2.0797                 1.5203
 IR Inten    --    215.3821               198.1934                 4.7569

                     31                     32                     33
                      A                      A                      A
 Frequencies --   1426.7146              1470.9255              1476.9597
 Red. masses --      3.0471                 1.0477                 2.3197
 Frc consts  --      3.6544                 1.3355                 2.9814
 IR Inten    --    866.6568                 6.9224               191.2862

                     34                     35                     36
                      A                      A                      A
 Frequencies --   1491.2721              1549.7859              1636.6101
 Red. masses --      1.3072                 4.5497                 5.6796
 Frc consts  --      1.7128                 6.4384                 8.9631
 IR Inten    --     30.6091               148.7266                34.0430

                     37                     38                     39
                      A                      A                      A
 Frequencies --   2996.8774              3024.6544              3094.9522
 Red. masses --      1.0401                 1.0984                 1.0955
 Frc consts  --      5.5036                 5.9204                 6.1827
 IR Inten    --    144.4552                80.4269                35.7499

                     40                     41                     42
                      A                      A                      A
 Frequencies --   3098.5417              3121.4679              3349.2424
 Red. masses --      1.0843                 1.0917                 1.0641
 Frc consts  --      6.1335                 6.2674                 7.0326
 IR Inten    --     85.2873               108.6433               393.3680

 - Thermochemistry -
 -------------------
 Temperature   298.150 Kelvin.  Pressure   1.00000 Atm.
 Atom     1 has atomic number  6 and mass  12.00000

 Molecular mass:   138.03169 amu.
 Principal axes and moments of inertia in atomic units:
                           1         2         3
     Eigenvalues --   831.059321431.541872251.56998
           X            0.61380   0.75867   0.21832
           Y            0.70931  -0.65139   0.26940
           Z           -0.34660   0.01050   0.93796
 This molecule is an asymmetric top.
 Rotational symmetry number  1.
 Warning -- assumption of classical behavior for rotation
           may cause significant error
 Rotational temperatures (Kelvin)      0.10422     0.06050     0.03847
 Rotational constants (GHZ):           2.17162     1.26070     0.80155
 Zero-point vibrational energy     299200.0 (Joules/Mol)
                                   71.51053 (Kcal/Mol)
 Warning -- explicit consideration of  11 degrees of freedom as
           vibrations may cause significant error
 Vibrational temperatures:    197.77   228.68   287.54   373.99   431.57
          (Kelvin)            464.78   519.49   532.50   699.86   701.02
                              718.73   897.11   918.09   970.26  1038.98
                             1064.23  1097.30  1122.36  1211.85  1288.02
                             1454.87  1501.28  1547.92  1655.97  1694.28
                             1756.83  1837.39  1889.20  1958.81  2001.50
                             2052.72  2116.33  2125.02  2145.61  2229.80
                             2354.72  4311.84  4351.80  4452.95  4458.11
                             4491.10  4818.81

 Zero-point correction=                           0.113959 (Hartree/Particle)
 Thermal correction to Energy=                    0.122438
 Thermal correction to Enthalpy=                  0.123382
 Thermal correction to Gibbs Free Energy=         0.081000
 Sum of electronic and zero-point Energies=           -496.299988
 Sum of electronic and thermal Energies=              -496.291509
 Sum of electronic and thermal Enthalpies=            -496.290565
 Sum of electronic and thermal Free Energies=         -496.332947

                     E (Thermal)             CV                S
                      KCal/Mol        Cal/Mol-Kelvin    Cal/Mol-Kelvin
 Total                   76.831             33.028             89.201
 Electronic               0.000              0.000              0.000
 Translational            0.889              2.981             40.679
 Rotational               0.889              2.981             29.373
 Vibrational             75.054             27.066             19.149
 Vibration     1          0.614              1.916              2.839
 Vibration     2          0.621              1.893              2.562
 Vibration     3          0.638              1.840              2.134
 Vibration     4          0.668              1.746              1.662
 Vibration     5          0.692              1.674              1.417
 Vibration     6          0.708              1.629              1.295
 Vibration     7          0.735              1.552              1.118
 Vibration     8          0.742              1.534              1.079
 Vibration     9          0.842              1.280              0.693
 Vibration    10          0.843              1.278              0.691
 Vibration    11          0.855              1.251              0.659

 Optimization completed.
    -- Stationary point found.
 Normal termination of Gaussian 16 at Sat Feb 10 13:03:31 2024.
