 Q-Chem 5.4, Q-Chem, Inc., Pleasanton, CA (2021)
 Q-Chem 5.4.0 for Intel X86 EM64T Linux

User input:
--------------------------------------------------------------
$molecule
-1 2
C                  4.3904250000     -0.1112880000      0.0160680000
C                  2.9449670000      0.3099520000     -0.1007650000
C                  2.6141270000      1.6443970000     -0.4354130000
C                  1.3015060000      2.0491310000     -0.5355630000
C                  0.2382050000      1.1566260000     -0.3019530000
C                 -1.1351480000      1.6521110000     -0.4231320000
O                 -1.3805490000      2.8427310000     -0.7323650000
C                 -2.1979140000      0.6808610000     -0.1620450000
C                 -3.5463450000      1.0862560000     -0.2661090000
C                 -4.5774400000      0.2011510000     -0.0237730000
C                 -4.2893270000     -1.1333810000      0.3361180000
C                 -2.9782860000     -1.5511020000      0.4448890000
C                 -1.9075510000     -0.6634870000      0.1995870000
C                 -0.5354280000     -1.1593950000      0.3298990000
O                 -0.2844020000     -2.3375850000      0.6734640000
C                  0.5275500000     -0.1993460000      0.0445050000
C                  1.8926550000     -0.5617860000      0.1190410000
N                  2.2946120000     -1.9655520000      0.4285200000
O                  2.4024960000     -2.7393370000     -0.5120390000
O                  2.6323960000     -2.2114720000      1.5787810000
H                  5.0413620000      0.6512590000     -0.4168590000
H                  4.5838000000     -1.0546140000     -0.5016510000
H                  4.6802720000     -0.2503460000      1.0624600000
H                  3.4191650000      2.3490300000     -0.6202650000
H                  1.0432770000      3.0684870000     -0.7972760000
H                 -3.7367900000      2.1167900000     -0.5425570000
H                 -5.6090720000      0.5290980000     -0.1088710000
H                 -5.0999540000     -1.8301230000      0.5270630000
H                 -2.7286080000     -2.5690640000      0.7202410000
$end

$rem
BASIS  =  6-311++G(d,p)
GUI  =  2
JOB_TYPE  =  SP
METHOD  =  B3LYP
SCF_CONVERGENCE  = 8
SOLVENT_METHOD = sm12
$end

$smx
solvent dimethylformamide
charges CM5
$end

--------------------------------------------------------------

             Standard Nuclear Orientation (Angstroms)
    I     Atom           X                Y                Z
 ----------------------------------------------------------------
    1      C       4.3904250000    -0.1112880000     0.0160680000
    2      C       2.9449670000     0.3099520000    -0.1007650000
    3      C       2.6141270000     1.6443970000    -0.4354130000
    4      C       1.3015060000     2.0491310000    -0.5355630000
    5      C       0.2382050000     1.1566260000    -0.3019530000
    6      C      -1.1351480000     1.6521110000    -0.4231320000
    7      O      -1.3805490000     2.8427310000    -0.7323650000
    8      C      -2.1979140000     0.6808610000    -0.1620450000
    9      C      -3.5463450000     1.0862560000    -0.2661090000
   10      C      -4.5774400000     0.2011510000    -0.0237730000
   11      C      -4.2893270000    -1.1333810000     0.3361180000
   12      C      -2.9782860000    -1.5511020000     0.4448890000
   13      C      -1.9075510000    -0.6634870000     0.1995870000
   14      C      -0.5354280000    -1.1593950000     0.3298990000
   15      O      -0.2844020000    -2.3375850000     0.6734640000
   16      C       0.5275500000    -0.1993460000     0.0445050000
   17      C       1.8926550000    -0.5617860000     0.1190410000
   18      N       2.2946120000    -1.9655520000     0.4285200000
   19      O       2.4024960000    -2.7393370000    -0.5120390000
   20      O       2.6323960000    -2.2114720000     1.5787810000
   21      H       5.0413620000     0.6512590000    -0.4168590000
   22      H       4.5838000000    -1.0546140000    -0.5016510000
   23      H       4.6802720000    -0.2503460000     1.0624600000
   24      H       3.4191650000     2.3490300000    -0.6202650000
   25      H       1.0432770000     3.0684870000    -0.7972760000
   26      H      -3.7367900000     2.1167900000    -0.5425570000
   27      H      -5.6090720000     0.5290980000    -0.1088710000
   28      H      -5.0999540000    -1.8301230000     0.5270630000
   29      H      -2.7286080000    -2.5690640000     0.7202410000
 ----------------------------------------------------------------

   20    -932.9028222877      9.70e-09  Convergence criterion met
 Total energy in the final basis set =     -932.9881404184

                    Orbital Energies (a.u.)
 --------------------------------------------------------------

 Alpha MOs
 -- Occupied --
-19.1651 -19.1649 -19.0832 -19.0831 -14.5550 -10.2361 -10.2344 -10.2334
-10.2076 -10.1986 -10.1879 -10.1879 -10.1855 -10.1848 -10.1846 -10.1842
-10.1835 -10.1813 -10.1811 -10.1793  -1.2396  -1.0662  -1.0136  -1.0095
 -0.8904  -0.8669  -0.8152  -0.7993  -0.7682  -0.7612  -0.7223  -0.7006
 -0.6648  -0.6426  -0.6287  -0.5920  -0.5743  -0.5632  -0.5366  -0.5300
 -0.5242  -0.5143  -0.4824  -0.4744  -0.4636  -0.4586  -0.4416  -0.4351
 -0.4302  -0.4267  -0.4172  -0.4109  -0.3959  -0.3895  -0.3889  -0.3768
 -0.3750  -0.3606  -0.3487  -0.3482  -0.3231  -0.3166  -0.3136  -0.2776
 -0.2679  -0.2654  -0.2597  -0.2537  -0.2453  -0.1509

 Beta MOs
 -- Occupied --
-19.1651 -19.1649 -19.0774 -19.0770 -14.5550 -10.2359 -10.2329 -10.2321
-10.2073 -10.1976 -10.1872 -10.1869 -10.1856 -10.1844 -10.1839 -10.1837
-10.1827 -10.1814 -10.1810 -10.1793  -1.2395  -1.0662  -1.0030  -0.9994
 -0.8886  -0.8651  -0.8123  -0.7973  -0.7665  -0.7593  -0.7209  -0.6964
 -0.6606  -0.6408  -0.6266  -0.5914  -0.5729  -0.5618  -0.5352  -0.5286
 -0.5241  -0.5127  -0.4805  -0.4728  -0.4622  -0.4578  -0.4373  -0.4347
 -0.4290  -0.4175  -0.4108  -0.4088  -0.3948  -0.3877  -0.3748  -0.3736
 -0.3663  -0.3593  -0.3473  -0.3369  -0.3225  -0.3145  -0.3132  -0.2655
 -0.2575  -0.2548  -0.2526  -0.2481  -0.2397

          Ground-State Mulliken Net Atomic Charges

     Atom                 Charge (a.u.)    Spin (a.u.)
  --------------------------------------------------------
      1 C                     0.917903       0.001386
      2 C                     0.988517       0.022556
      3 C                     0.208078       0.054660
      4 C                     0.015579       0.001970
      5 C                    -0.485004       0.049689
      6 C                    -2.050348       0.062365
      7 O                    -0.284748       0.215773
      8 C                    -0.755923       0.032768
      9 C                     0.124344       0.023389
     10 C                     0.987666       0.040070
     11 C                     0.854510       0.027927
     12 C                    -0.120759       0.037107
     13 C                    -1.367650       0.036269
     14 C                    -1.721907       0.066787
     15 O                    -0.318678       0.237016
     16 C                    -0.613222       0.064602
     17 C                     0.464337       0.039739
     18 N                    -0.221572      -0.003696
     19 O                     0.037393      -0.000076
     20 O                     0.055856       0.001740
     21 H                     0.309050       0.000206
     22 H                     0.190784       0.000322
     23 H                     0.228365       0.001035
     24 H                     0.333161      -0.004237
     25 H                     0.200002      -0.000692
     26 H                     0.161316      -0.001259
     27 H                     0.366929      -0.003016
     28 H                     0.350465      -0.002358
     29 H                     0.145555      -0.002043
  --------------------------------------------------------
  Sum of atomic charges =    -1.000000

                    Cartesian Multipole Moments
 -----------------------------------------------------------------
    Charge (ESU x 10^10)
                -4.8032
    Dipole Moment (Debye)
         X       2.0640      Y       3.0623      Z      -0.7356
       Tot       3.7655
    Quadrupole Moments (Debye-Ang)
        XX    -121.1059     XY      19.3699     YY    -154.8052
        XZ      -4.8573     YZ       7.4745     ZZ    -126.9067

 Total job time:  1035.25s(wall), 7845.36s(cpu)
        *  Thank you very much for using Q-Chem.  Have a nice day.  *
