 Q-Chem 5.4, Q-Chem, Inc., Pleasanton, CA (2021)
 Q-Chem 5.4.0 for Intel X86 EM64T Linux

User input:
--------------------------------------------------------------
$molecule
-2 1
O                  0.0998540000      2.9838620000      0.8637540000
C                  0.0602490000      1.7679800000      0.4854200000
C                  1.1830150000      0.8572000000      0.2926760000
C                  2.5649500000      1.0600420000      0.4677850000
C                  3.4569980000      0.0225770000      0.2205770000
C                  2.9932740000     -1.2472870000     -0.2053610000
C                  1.6217870000     -1.4737640000     -0.3603790000
C                  0.7085110000     -0.4514520000     -0.0973010000
C                 -0.7361000000     -0.3858000000     -0.1567870000
C                 -1.7131090000     -1.3222770000     -0.4982490000
C                 -3.0667910000     -0.9722170000     -0.4551680000
C                 -3.4473150000      0.3354240000     -0.0633380000
C                 -2.4885490000      1.2890080000      0.2603760000
C                 -1.1208050000      0.9617580000      0.1981410000
H                  2.9210150000      2.0344780000      0.7932320000
H                  4.5271770000      0.1827040000      0.3427400000
H                  3.7061970000     -2.0418640000     -0.4173550000
H                  1.2724790000     -2.4542100000     -0.6805850000
H                 -1.4291640000     -2.3313350000     -0.7930510000
H                 -3.8286080000     -1.6999630000     -0.7283390000
H                 -4.5049940000      0.5922520000     -0.0283690000
H                 -2.7800720000      2.2928820000      0.5595820000
$end

$rem
BASIS  =  6-311++G(d,p)
GUI  =  2
JOB_TYPE  =  SP
METHOD  =  B3LYP
SCF_CONVERGENCE  = 8
SOLVENT_METHOD = sm12
$end

$smx
solvent dimethylformamide
charges CM5
$end

--------------------------------------------------------------

             Standard Nuclear Orientation (Angstroms)
    I     Atom           X                Y                Z
 ----------------------------------------------------------------
    1      O       0.0998540000     2.9838620000     0.8637540000
    2      C       0.0602490000     1.7679800000     0.4854200000
    3      C       1.1830150000     0.8572000000     0.2926760000
    4      C       2.5649500000     1.0600420000     0.4677850000
    5      C       3.4569980000     0.0225770000     0.2205770000
    6      C       2.9932740000    -1.2472870000    -0.2053610000
    7      C       1.6217870000    -1.4737640000    -0.3603790000
    8      C       0.7085110000    -0.4514520000    -0.0973010000
    9      C      -0.7361000000    -0.3858000000    -0.1567870000
   10      C      -1.7131090000    -1.3222770000    -0.4982490000
   11      C      -3.0667910000    -0.9722170000    -0.4551680000
   12      C      -3.4473150000     0.3354240000    -0.0633380000
   13      C      -2.4885490000     1.2890080000     0.2603760000
   14      C      -1.1208050000     0.9617580000     0.1981410000
   15      H       2.9210150000     2.0344780000     0.7932320000
   16      H       4.5271770000     0.1827040000     0.3427400000
   17      H       3.7061970000    -2.0418640000    -0.4173550000
   18      H       1.2724790000    -2.4542100000    -0.6805850000
   19      H      -1.4291640000    -2.3313350000    -0.7930510000
   20      H      -3.8286080000    -1.6999630000    -0.7283390000
   21      H      -4.5049940000     0.5922520000    -0.0283690000
   22      H      -2.7800720000     2.2928820000     0.5595820000
 ----------------------------------------------------------------

   25    -575.4946846455      6.83e-09  Convergence criterion met
 Total energy in the final basis set =     -575.8017973118

                    Orbital Energies (a.u.)
 --------------------------------------------------------------

 Alpha MOs
 -- Occupied --
-19.0251 -10.1806 -10.1805 -10.1759 -10.1749 -10.1748 -10.1716 -10.1715
-10.1689 -10.1688 -10.1595 -10.1592 -10.1421 -10.1421  -0.9407  -0.8618
 -0.8373  -0.7831  -0.7523  -0.7393  -0.7040  -0.6488  -0.6212  -0.5818
 -0.5694  -0.5460  -0.5012  -0.4939  -0.4635  -0.4426  -0.4407  -0.4227
 -0.4194  -0.4092  -0.3974  -0.3813  -0.3573  -0.3539  -0.3535  -0.3320
 -0.3238  -0.3218  -0.2870  -0.2551  -0.2437  -0.2118  -0.1982  -0.1107

          Ground-State Mulliken Net Atomic Charges

     Atom                 Charge (a.u.)
  ----------------------------------------
      1 O                    -0.379698
      2 C                    -2.116999
      3 C                    -1.861576
      4 C                    -0.345556
      5 C                     1.340011
      6 C                     1.415792
      7 C                     0.267149
      8 C                    -1.693202
      9 C                    -1.682789
     10 C                     0.281242
     11 C                     1.433355
     12 C                     1.351633
     13 C                    -0.329067
     14 C                    -1.825467
     15 H                     0.049827
     16 H                     0.387555
     17 H                     0.393945
     18 H                     0.235308
     19 H                     0.237174
     20 H                     0.395931
     21 H                     0.390033
     22 H                     0.055399
  ----------------------------------------
  Sum of atomic charges =    -2.000000

                    Cartesian Multipole Moments
 -----------------------------------------------------------------
    Charge (ESU x 10^10)
                -9.6064
    Dipole Moment (Debye)
         X      -0.3524      Y      -9.1192      Z      -2.8735
       Tot       9.5678
    Quadrupole Moments (Debye-Ang)
        XX    -132.7793     XY       0.5442     YY    -129.0503
        XZ      -1.6679     YZ      -9.2299     ZZ    -103.3006

 Total job time:  510.25s(wall), 3959.71s(cpu)
        *  Thank you very much for using Q-Chem.  Have a nice day.  *
