 Gaussian 16, Revision A.03,
 Gaussian 16:  ES64L-G16RevA.03 25-Dec-2016

 ----------------------------------------------------------------------
 #P UB3LYP/6-311++G(d,p) nosym opt freq SCRF=(PCM,Solvent=n,n-DiMethylF
 ormamide)
 ----------------------------------------------------------------------

 -------
 Reduced
 -------
 Symbolic Z-matrix:
 Charge = -2 Multiplicity = 1

 SCF Done:  E(UB3LYP) =  -767.839987883     A.U. after   17 cycles
 SCF Done:  E(UB3LYP) =  -767.841704836     A.U. after   14 cycles
 SCF Done:  E(UB3LYP) =  -767.841950386     A.U. after   14 cycles
 SCF Done:  E(UB3LYP) =  -767.841972979     A.U. after   13 cycles
 SCF Done:  E(UB3LYP) =  -767.842003618     A.U. after   12 cycles
 SCF Done:  E(UB3LYP) =  -767.842007506     A.U. after   10 cycles
 SCF Done:  E(UB3LYP) =  -767.842008372     A.U. after    9 cycles
 SCF Done:  E(UB3LYP) =  -767.842008743     A.U. after    9 cycles
 SCF Done:  E(UB3LYP) =  -767.842008819     A.U. after    8 cycles
 Optimization completed.
    -- Stationary point found.
 Normal termination of Gaussian 16 at Sat Feb 10 18:04:50 2024.

 ----------------------------------------------------------------------
 #P Geom=AllCheck Guess=TCheck SCRF=Check GenChk UB3LYP/6-311++G(d,p) F
 req
 ----------------------------------------------------------------------

 Structure from the checkpoint file:  "129-an.chk"
 -------
 Reduced
 -------
 Charge = -2 Multiplicity = 1

                          Input orientation:
 ---------------------------------------------------------------------
 Center     Atomic      Atomic             Coordinates (Angstroms)
 Number     Number       Type             X           Y           Z
 ---------------------------------------------------------------------
      1          6           0       -3.755978    1.774679   -0.342871
      2          6           0       -2.521406    0.926164   -0.142739
      3          6           0       -1.268542    1.428166   -0.417947
      4          6           0       -0.062902    0.687857   -0.247312
      5          6           0        1.204071    1.291945   -0.560688
      6          8           0        1.304158    2.513156   -1.012948
      7          6           0        2.351458    0.456446   -0.340807
      8          6           0        3.657753    0.959086   -0.612771
      9          6           0        4.793940    0.206765   -0.424671
     10          6           0        4.682543   -1.129208    0.058724
     11          6           0        3.440415   -1.651556    0.335693
     12          6           0        2.237924   -0.906225    0.157564
     13          6           0        0.970666   -1.506755    0.467594
     14          8           0        0.864676   -2.727765    0.919225
     15          6           0       -0.175732   -0.666683    0.247199
     16          6           0       -1.484163   -1.161371    0.518515
     17          6           0       -2.634010   -0.423893    0.342193
     18          6           0       -3.988916   -1.017433    0.652327
     19          1           0       -3.488569    2.766930   -0.713210
     20          1           0       -4.450966    1.325894   -1.062368
     21          1           0       -4.318296    1.906886    0.589117
     22          1           0       -1.170127    2.445208   -0.784205
     23          1           0        3.727955    1.977085   -0.980794
     24          1           0        5.772021    0.625104   -0.643188
     25          1           0        5.575750   -1.729049    0.206380
     26          1           0        3.342451   -2.667398    0.703016
     27          1           0       -1.554059   -2.180685    0.884995
     28          1           0       -4.518359   -0.449712    1.426683
     29          1           0       -4.644021   -1.026789   -0.226810
     30          1           0       -3.889736   -2.046847    1.004104
 ---------------------------------------------------------------------

 SCF Done:  E(UB3LYP) =  -767.842008819     A.U. after    1 cycles

 Alpha  occ. eigenvalues --  -19.01453 -19.01452 -10.16860 -10.16859 -10.15443
 Alpha  occ. eigenvalues --  -10.15404 -10.15267 -10.15267 -10.14636 -10.14594
 Alpha  occ. eigenvalues --  -10.14409 -10.14403 -10.13956 -10.13946 -10.13351
 Alpha  occ. eigenvalues --  -10.13315 -10.13267 -10.13229  -0.92605  -0.92182
 Alpha  occ. eigenvalues --   -0.83036  -0.81984  -0.76498  -0.74159  -0.72161
 Alpha  occ. eigenvalues --   -0.72012  -0.68135  -0.66117  -0.62618  -0.59346
 Alpha  occ. eigenvalues --   -0.57062  -0.55754  -0.52227  -0.49264  -0.48297
 Alpha  occ. eigenvalues --   -0.44912  -0.43028  -0.42374  -0.41905  -0.41262
 Alpha  occ. eigenvalues --   -0.39735  -0.39476  -0.38706  -0.38679  -0.37399
 Alpha  occ. eigenvalues --   -0.37133  -0.36197  -0.35868  -0.34801  -0.34352
 Alpha  occ. eigenvalues --   -0.32935  -0.31793  -0.31192  -0.30894  -0.29193
 Alpha  occ. eigenvalues --   -0.28891  -0.23066  -0.21871  -0.21786  -0.20624
 Alpha  occ. eigenvalues --   -0.19688  -0.19115  -0.10469
 Alpha virt. eigenvalues --   -0.02390  -0.00207   0.00465   0.00713   0.01383
 Alpha virt. eigenvalues --    0.02071   0.02113   0.02311   0.03882   0.04170
 Alpha virt. eigenvalues --    0.04177   0.04448   0.05367   0.05554   0.06180

  Beta  occ. eigenvalues --  -19.01453 -19.01452 -10.16860 -10.16859 -10.15443
  Beta  occ. eigenvalues --  -10.15404 -10.15267 -10.15267 -10.14636 -10.14594
  Beta  occ. eigenvalues --  -10.14409 -10.14403 -10.13956 -10.13946 -10.13351
  Beta  occ. eigenvalues --  -10.13315 -10.13267 -10.13229  -0.92605  -0.92182
  Beta  occ. eigenvalues --   -0.83036  -0.81984  -0.76498  -0.74159  -0.72161
  Beta  occ. eigenvalues --   -0.72012  -0.68135  -0.66117  -0.62618  -0.59346
  Beta  occ. eigenvalues --   -0.57062  -0.55754  -0.52227  -0.49264  -0.48297
  Beta  occ. eigenvalues --   -0.44912  -0.43028  -0.42374  -0.41905  -0.41262
  Beta  occ. eigenvalues --   -0.39735  -0.39476  -0.38706  -0.38679  -0.37399
  Beta  occ. eigenvalues --   -0.37133  -0.36197  -0.35868  -0.34801  -0.34352
  Beta  occ. eigenvalues --   -0.32935  -0.31793  -0.31192  -0.30894  -0.29193
  Beta  occ. eigenvalues --   -0.28891  -0.23066  -0.21871  -0.21786  -0.20624
  Beta  occ. eigenvalues --   -0.19688  -0.19115  -0.10469
  Beta virt. eigenvalues --   -0.02390  -0.00207   0.00465   0.00713   0.01383
  Beta virt. eigenvalues --    0.02071   0.02113   0.02311   0.03882   0.04170
  Beta virt. eigenvalues --    0.04177   0.04448   0.05367   0.05554   0.06180

 Mulliken charges and spin densities:
               1          2
     1  C   -0.505806  -0.000000
     2  C    0.300897   0.000000
     3  C   -0.219876  -0.000000
     4  C    0.031988  -0.000000
     5  C   -0.521019   0.000000
     6  O   -0.684125  -0.000000
     7  C    0.286475   0.000000
     8  C   -0.076418  -0.000000
     9  C   -0.474167  -0.000000
    10  C   -0.474257   0.000000
    11  C   -0.078401  -0.000000
    12  C    0.286752   0.000000
    13  C   -0.520820   0.000000
    14  O   -0.684202   0.000000
    15  C    0.030657   0.000000
    16  C   -0.218146  -0.000000
    17  C    0.302543   0.000000
    18  C   -0.505732  -0.000000
    19  H    0.160304   0.000000
    20  H    0.146731   0.000000
    21  H    0.147028   0.000000
    22  H    0.110149   0.000000
    23  H    0.142360   0.000000
    24  H    0.155166  -0.000000
    25  H    0.155182   0.000000
    26  H    0.141770   0.000000
    27  H    0.110890   0.000000
    28  H    0.146996  -0.000000
    29  H    0.146737  -0.000000
    30  H    0.160342   0.000000
 Sum of Mulliken charges =  -2.00000   0.00000

 Dipole moment (field-independent basis, Debye):
    X=            -11.8533    Y=              1.1703    Z=              0.5046  Tot=             11.9216
 Quadrupole moment (field-independent basis, Debye-Ang):
   XX=           -141.5263   YY=           -164.9917   ZZ=           -124.9831
   XY=             -1.6612   XZ=              2.3208   YZ=             16.9928

  Exact polarizability: 599.197 -25.256 370.403 -22.183 -68.199 201.490
 Approx polarizability: 642.700 -24.198 430.294 -24.306 -82.925 226.463

                      1                      2                      3
                      A                      A                      A
 Frequencies --     49.8783                69.2447               128.5086
 Red. masses --      5.4858                 3.5402                 3.7757
 Frc consts  --      0.0080                 0.0100                 0.0367
 IR Inten    --     20.4953                 0.1599                 0.2648

                      4                      5                      6
                      A                      A                      A
 Frequencies --    140.3082               153.4065               171.0897
 Red. masses --      4.3018                 1.1025                 4.3149
 Frc consts  --      0.0499                 0.0153                 0.0744
 IR Inten    --      4.9063                 0.0303                17.7365

                      7                      8                      9
                      A                      A                      A
 Frequencies --    187.5477               208.3721               246.7364
 Red. masses --      1.6198                 2.1508                 3.3119
 Frc consts  --      0.0336                 0.0550                 0.1188
 IR Inten    --      4.4145                 1.7914                 0.0777

                     10                     11                     12
                      A                      A                      A
 Frequencies --    265.8386               287.5280               329.7392
 Red. masses --      6.1122                 2.7918                 4.1172
 Frc consts  --      0.2545                 0.1360                 0.2637
 IR Inten    --      7.3081                 5.3087                10.4479

                     13                     14                     15
                      A                      A                      A
 Frequencies --    334.6940               356.5973               360.2417
 Red. masses --      5.7579                 4.9861                 8.3068
 Frc consts  --      0.3800                 0.3736                 0.6351
 IR Inten    --      0.5153                11.0495                 0.7889

                     16                     17                     18
                      A                      A                      A
 Frequencies --    417.7524               427.7185               471.3853
 Red. masses --      6.9416                 3.0731                 4.3309
 Frc consts  --      0.7137                 0.3312                 0.5670
 IR Inten    --      0.0795                15.9552                 4.4531

                     19                     20                     21
                      A                      A                      A
 Frequencies --    479.3247               494.6825               546.2522
 Red. masses --      2.9686                11.5384                 4.4636
 Frc consts  --      0.4019                 1.6636                 0.7847
 IR Inten    --      3.1520                 0.1040                 0.0141

                     22                     23                     24
                      A                      A                      A
 Frequencies --    554.9716               612.0441               651.8215
 Red. masses --      4.3886                 6.6651                 4.1558
 Frc consts  --      0.7964                 1.4710                 1.0403
 IR Inten    --     34.3680                 0.3950                 0.0711

                     25                     26                     27
                      A                      A                      A
 Frequencies --    656.6026               693.9197               696.0301
 Red. masses --      5.7491                 5.8646                 2.3087
 Frc consts  --      1.4603                 1.6638                 0.6590
 IR Inten    --     39.8679                 1.4305               115.8265

                     28                     29                     30
                      A                      A                      A
 Frequencies --    727.0869               737.2725               741.4942
 Red. masses --      4.0302                 6.5255                 4.3174
 Frc consts  --      1.2553                 2.0899                 1.3986
 IR Inten    --      0.4489                11.1311                29.4060

                     31                     32                     33
                      A                      A                      A
 Frequencies --    771.5762               800.6599               847.3219
 Red. masses --      1.9777                 2.7632                 1.8689
 Frc consts  --      0.6937                 1.0437                 0.7906
 IR Inten    --     39.6247                 0.0181                 0.0196

                     34                     35                     36
                      A                      A                      A
 Frequencies --    878.6846               903.3271               908.4844
 Red. masses --      6.0860                 1.4568                 1.4107
 Frc consts  --      2.7685                 0.7004                 0.6860
 IR Inten    --      0.3172                12.4847                20.1747

                     37                     38                     39
                      A                      A                      A
 Frequencies --    934.3734               969.0244               976.2041
 Red. masses --      3.4373                 1.3660                 1.2579
 Frc consts  --      1.7681                 0.7557                 0.7063
 IR Inten    --     27.4387                 3.5497                 0.2099

                     40                     41                     42
                      A                      A                      A
 Frequencies --   1005.1466              1013.1550              1023.6508
 Red. masses --      1.8612                 1.5559                 1.5139
 Frc consts  --      1.1079                 0.9410                 0.9346
 IR Inten    --     40.1564                61.8882                 7.4761

                     43                     44                     45
                      A                      A                      A
 Frequencies --   1045.4787              1062.0140              1073.3941
 Red. masses --      1.4269                 1.5596                 5.9520
 Frc consts  --      0.9189                 1.0364                 4.0405
 IR Inten    --      9.2645                 0.0033               432.2493

                     46                     47                     48
                      A                      A                      A
 Frequencies --   1113.7386              1123.1336              1139.9725
 Red. masses --      2.3275                 1.4825                 2.0772
 Frc consts  --      1.7010                 1.1018                 1.5905
 IR Inten    --     86.4305               297.8592                31.9594

                     49                     50                     51
                      A                      A                      A
 Frequencies --   1154.9243              1193.1811              1210.0834
 Red. masses --      2.3780                 1.9590                 2.5757
 Frc consts  --      1.8688                 1.6432                 2.2222
 IR Inten    --   1086.1756                 0.1393               287.9584

                     52                     53                     54
                      A                      A                      A
 Frequencies --   1230.0421              1237.1291              1306.3969
 Red. masses --      4.4583                 1.7821                 6.1099
 Frc consts  --      3.9743                 1.6070                 6.1438
 IR Inten    --     49.1762               170.1043                25.2531

                     55                     56                     57
                      A                      A                      A
 Frequencies --   1315.9347              1347.0434              1352.4739
 Red. masses --      3.2168                 3.0621                 5.6577
 Frc consts  --      3.2820                 3.2737                 6.0974
 IR Inten    --    844.1098              1883.5703               682.8480

                     58                     59                     60
                      A                      A                      A
 Frequencies --   1402.8424              1408.6315              1438.1916
 Red. masses --      1.3089                 1.2476                 3.0030
 Frc consts  --      1.5177                 1.4586                 3.6597
 IR Inten    --     57.2566                11.1207               173.8760

                     61                     62                     63
                      A                      A                      A
 Frequencies --   1438.9825              1459.4048              1466.9843
 Red. masses --      5.1109                 2.5114                 1.0456
 Frc consts  --      6.2353                 3.1514                 1.3258
 IR Inten    --     22.3777                10.4526                 0.0057

                     64                     65                     66
                      A                      A                      A
 Frequencies --   1476.4625              1478.8092              1480.3587
 Red. masses --      3.9398                 1.0449                 1.2398
 Frc consts  --      5.0602                 1.3464                 1.6009
 IR Inten    --      0.0109                20.3901                56.7359

                     67                     68                     69
                      A                      A                      A
 Frequencies --   1492.4023              1503.3002              1521.6481
 Red. masses --      1.4248                 4.0955                 3.4463
 Frc consts  --      1.8697                 5.4531                 4.7015
 IR Inten    --     17.8548                 0.9493                77.3785

                     70                     71                     72
                      A                      A                      A
 Frequencies --   1573.9125              1603.1952              1632.3526
 Red. masses --      7.4294                 5.2410                 6.4911
 Frc consts  --     10.8433                 7.9366                10.1905
 IR Inten    --      0.0523                10.4034                23.3547

                     73                     74                     75
                      A                      A                      A
 Frequencies --   2998.2570              3000.9794              3033.9820
 Red. masses --      1.0393                 1.0384                 1.0996
 Frc consts  --      5.5045                 5.5100                 5.9638
 IR Inten    --      8.4580               330.2060                 0.0496

                     76                     77                     78
                      A                      A                      A
 Frequencies --   3036.6348              3086.2941              3087.8322
 Red. masses --      1.0995                 1.0979                 1.0979
 Frc consts  --      5.9736                 6.1617                 6.1679
 IR Inten    --     92.0199                85.1281                 7.3667

                     79                     80                     81
                      A                      A                      A
 Frequencies --   3135.2802              3148.5902              3149.6615
 Red. masses --      1.0842                 1.0889                 1.0880
 Frc consts  --      6.2792                 6.3600                 6.3594
 IR Inten    --     22.9538                36.8262                22.2069

                     82                     83                     84
                      A                      A                      A
 Frequencies --   3155.4419              3164.1727              3170.7867
 Red. masses --      1.0881                 1.0925                 1.0942
 Frc consts  --      6.3832                 6.4443                 6.4813
 IR Inten    --     44.1430                59.5141                92.8036

 - Thermochemistry -
 -------------------
 Temperature   298.150 Kelvin.  Pressure   1.00000 Atm.
 Atom     1 has atomic number  6 and mass  12.00000

 Molecular mass:   236.08373 amu.
 Principal axes and moments of inertia in atomic units:
                           1         2         3
     Eigenvalues --  1965.851116313.466038257.05499
           X            0.99453   0.07786   0.06964
           Y           -0.09691   0.93653   0.33693
           Z           -0.03899  -0.34184   0.93895
 This molecule is an asymmetric top.
 Rotational symmetry number  1.
 Warning -- assumption of classical behavior for rotation
           may cause significant error
 Rotational temperatures (Kelvin)      0.04406     0.01372     0.01049
 Rotational constants (GHZ):           0.91805     0.28586     0.21857
 Zero-point vibrational energy     602200.3 (Joules/Mol)
                                  143.92933 (Kcal/Mol)
 Warning -- explicit consideration of  23 degrees of freedom as
           vibrations may cause significant error
 Vibrational temperatures:     71.76    99.63   184.90   201.87   220.72
          (Kelvin)            246.16   269.84   299.80   355.00   382.48
                              413.69   474.42   481.55   513.06   518.31
                              601.05   615.39   678.22   689.64   711.74
                              785.94   798.48   880.60   937.83   944.70
                              998.40  1001.43  1046.12  1060.77  1066.84
                             1110.13  1151.97  1219.11  1264.23  1299.69
                             1307.11  1344.35  1394.21  1404.54  1446.18
                             1457.70  1472.81  1504.21  1528.00  1544.37
                             1602.42  1615.94  1640.17  1661.68  1716.72
                             1741.04  1769.76  1779.95  1879.61  1893.34
                             1938.10  1945.91  2018.38  2026.71  2069.24
                             2070.37  2099.76  2110.66  2124.30  2127.68
                             2129.91  2147.23  2162.91  2189.31  2264.51
                             2306.64  2348.59  4313.82  4317.74  4365.22
                             4369.04  4440.49  4442.70  4510.97  4530.12
                             4531.66  4539.98  4552.54  4562.05

 Zero-point correction=                           0.229366 (Hartree/Particle)
 Thermal correction to Energy=                    0.244002
 Thermal correction to Enthalpy=                  0.244946
 Thermal correction to Gibbs Free Energy=         0.188365
 Sum of electronic and zero-point Energies=           -767.612643
 Sum of electronic and thermal Energies=              -767.598007
 Sum of electronic and thermal Enthalpies=            -767.597063
 Sum of electronic and thermal Free Energies=         -767.653644

                     E (Thermal)             CV                S
                      KCal/Mol        Cal/Mol-Kelvin    Cal/Mol-Kelvin
 Total                  153.114             58.801            119.086
 Electronic               0.000              0.000              0.000
 Translational            0.889              2.981             42.279
 Rotational               0.889              2.981             32.994
 Vibrational            151.336             52.840             43.813
 Vibration     1          0.595              1.978              4.822
 Vibration     2          0.598              1.969              4.175
 Vibration     3          0.611              1.925              2.968
 Vibration     4          0.615              1.913              2.800
 Vibration     5          0.619              1.899              2.630
 Vibration     6          0.626              1.878              2.423
 Vibration     7          0.632              1.857              2.252
 Vibration     8          0.642              1.828              2.058
 Vibration     9          0.661              1.768              1.754
 Vibration    10          0.672              1.736              1.623
 Vibration    11          0.685              1.697              1.488
 Vibration    12          0.713              1.616              1.261
 Vibration    13          0.716              1.606              1.237
 Vibration    14          0.732              1.562              1.137
 Vibration    15          0.735              1.554              1.121
 Vibration    16          0.781              1.432              0.900
 Vibration    17          0.789              1.410              0.866
 Vibration    18          0.828              1.314              0.734
 Vibration    19          0.836              1.296              0.712
 Vibration    20          0.850              1.262              0.672
 Vibration    21          0.901              1.148              0.552
 Vibration    22          0.910              1.129              0.534
 Vibration    23          0.971              1.006              0.429

 Optimization completed.
    -- Stationary point found.
 Normal termination of Gaussian 16 at Sat Feb 10 18:54:23 2024.
