 Q-Chem 5.4, Q-Chem, Inc., Pleasanton, CA (2021)
 Q-Chem 5.4.0 for Intel X86 EM64T Linux

User input:
--------------------------------------------------------------
$molecule
-2 1
C                  0.5178670000      1.6749560000     -2.0136040000
C                 -0.8282830000      1.9673780000     -2.4578630000
C                 -1.7767540000      0.9952900000     -2.6657120000
C                 -1.5503830000     -0.4306810000     -2.4680840000
C                 -0.2434910000     -0.7268870000     -2.0349740000
C                  0.7790710000      0.2584730000     -1.8047390000
O                  1.3699080000      2.6130020000     -1.8340370000
O                 -2.4998950000     -1.2855370000     -2.6871650000
C                  3.2126500000      0.7968320000     -1.0911280000
C                  4.1626570000      1.0583530000     -2.0955670000
C                  3.4404520000      1.2614030000      0.2173100000
C                  4.6101220000      1.9687510000      0.5060020000
C                  5.3242080000      1.7678200000     -1.7807780000
C                  5.5588970000      2.2232120000     -0.4837660000
H                 -1.0593980000      3.0195860000     -2.6239580000
H                 -2.7770850000      1.2752920000     -3.0015840000
H                  0.0196490000     -1.7654910000     -1.8600490000
H                  4.7744520000      2.3308520000      1.5192720000
H                  6.0500090000      1.9720670000     -2.5658450000
H                  6.4664150000      2.7739660000     -0.2487540000
C                  2.0702500000     -0.1810550000     -1.3617050000
O                  2.3977210000     -1.3782170000     -1.1520980000
C                  2.3981430000      1.0346150000      1.2848780000
H                  2.1534510000     -0.0273310000      1.3793300000
H                  1.4737850000      1.5554810000      1.0164960000
H                  2.7427540000      1.4058970000      2.2565870000
C                  3.8956320000      0.6139070000     -3.5127910000
H                  3.0073450000      1.1234220000     -3.8988830000
H                  3.6964160000     -0.4606650000     -3.5595080000
H                  4.7459070000      0.8445300000     -4.1644610000
$end

$rem
BASIS  =  6-311++G(d,p)
GUI  =  2
JOB_TYPE  =  SP
METHOD  =  B3LYP
SCF_CONVERGENCE  = 8
SOLVENT_METHOD = sm12
$end

$smx
solvent dimethylformamide
charges CM5
$end

--------------------------------------------------------------

             Standard Nuclear Orientation (Angstroms)
    I     Atom           X                Y                Z
 ----------------------------------------------------------------
    1      C       0.5178670000     1.6749560000    -2.0136040000
    2      C      -0.8282830000     1.9673780000    -2.4578630000
    3      C      -1.7767540000     0.9952900000    -2.6657120000
    4      C      -1.5503830000    -0.4306810000    -2.4680840000
    5      C      -0.2434910000    -0.7268870000    -2.0349740000
    6      C       0.7790710000     0.2584730000    -1.8047390000
    7      O       1.3699080000     2.6130020000    -1.8340370000
    8      O      -2.4998950000    -1.2855370000    -2.6871650000
    9      C       3.2126500000     0.7968320000    -1.0911280000
   10      C       4.1626570000     1.0583530000    -2.0955670000
   11      C       3.4404520000     1.2614030000     0.2173100000
   12      C       4.6101220000     1.9687510000     0.5060020000
   13      C       5.3242080000     1.7678200000    -1.7807780000
   14      C       5.5588970000     2.2232120000    -0.4837660000
   15      H      -1.0593980000     3.0195860000    -2.6239580000
   16      H      -2.7770850000     1.2752920000    -3.0015840000
   17      H       0.0196490000    -1.7654910000    -1.8600490000
   18      H       4.7744520000     2.3308520000     1.5192720000
   19      H       6.0500090000     1.9720670000    -2.5658450000
   20      H       6.4664150000     2.7739660000    -0.2487540000
   21      C       2.0702500000    -0.1810550000    -1.3617050000
   22      O       2.3977210000    -1.3782170000    -1.1520980000
   23      C       2.3981430000     1.0346150000     1.2848780000
   24      H       2.1534510000    -0.0273310000     1.3793300000
   25      H       1.4737850000     1.5554810000     1.0164960000
   26      H       2.7427540000     1.4058970000     2.2565870000
   27      C       3.8956320000     0.6139070000    -3.5127910000
   28      H       3.0073450000     1.1234220000    -3.8988830000
   29      H       3.6964160000    -0.4606650000    -3.5595080000
   30      H       4.7459070000     0.8445300000    -4.1644610000
 ----------------------------------------------------------------

   18    -804.6865134081      6.55e-09  Convergence criterion met
 Total energy in the final basis set =     -804.9691391092

                    Orbital Energies (a.u.)
 --------------------------------------------------------------

 Alpha MOs
 -- Occupied --
-19.0788 -19.0434 -19.0232 -10.2295 -10.2061 -10.1882 -10.1832 -10.1832
-10.1786 -10.1773 -10.1749 -10.1748 -10.1705 -10.1704 -10.1650 -10.1585
-10.1466 -10.1336  -0.9988  -0.9618  -0.9343  -0.8626  -0.8012  -0.7868
 -0.7694  -0.7357  -0.7003  -0.6850  -0.6720  -0.6303  -0.5942  -0.5763
 -0.5630  -0.5296  -0.4860  -0.4829  -0.4595  -0.4495  -0.4456  -0.4304
 -0.4218  -0.4199  -0.4122  -0.4088  -0.4088  -0.3950  -0.3876  -0.3770
 -0.3707  -0.3537  -0.3537  -0.3528  -0.3449  -0.3345  -0.3341  -0.3270
 -0.2590  -0.2484  -0.2458  -0.2338  -0.2257  -0.2053  -0.1994  -0.1397

          Ground-State Mulliken Net Atomic Charges

     Atom                 Charge (a.u.)
  ----------------------------------------
      1 C                    -0.058591
      2 C                    -0.448559
      3 C                     0.076435
      4 C                    -1.874476
      5 C                    -1.305159
      6 C                    -1.683388
      7 O                    -0.200658
      8 O                    -0.449604
      9 C                    -0.231314
     10 C                    -0.678822
     11 C                    -0.682519
     12 C                     1.332328
     13 C                     1.332034
     14 C                     1.387795
     15 H                     0.194865
     16 H                     0.149505
     17 H                    -0.085368
     18 H                     0.308920
     19 H                     0.308052
     20 H                     0.461255
     21 C                    -0.391227
     22 O                    -0.323435
     23 C                    -0.014686
     24 H                     0.095702
     25 H                     0.051741
     26 H                     0.303747
     27 C                    -0.025618
     28 H                     0.052149
     29 H                     0.095196
     30 H                     0.303702
  ----------------------------------------
  Sum of atomic charges =    -2.000000

                    Cartesian Multipole Moments
 -----------------------------------------------------------------
    Charge (ESU x 10^10)
                -9.6064
    Dipole Moment (Debye)
         X      -1.6434      Y      -0.6854      Z      18.9928
       Tot      19.0761
    Quadrupole Moments (Debye-Ang)
        XX    -173.8922     XY     -15.5513     YY    -152.0307
        XZ     -13.7671     YZ      -0.0910     ZZ    -157.2699

 Total job time:  914.27s(wall), 7082.07s(cpu)
        *  Thank you very much for using Q-Chem.  Have a nice day.  *
