 Q-Chem 5.4, Q-Chem, Inc., Pleasanton, CA (2021)
 Q-Chem 5.4.0 for Intel X86 EM64T Linux

User input:
--------------------------------------------------------------
$molecule
0 1
C                 -3.8078290000      0.0276940000     -0.0518960000
O                 -2.6401080000      0.8624090000     -0.2293250000
C                 -1.3792580000      0.4486450000     -0.1823640000
C                 -0.3905000000      1.3807570000     -0.1431700000
Cl                -0.7640530000      3.0738050000     -0.1349540000
C                  1.0328510000      1.0251420000     -0.1135950000
O                  1.9147820000      1.8636310000     -0.1291890000
C                  1.3869450000     -0.4464180000     -0.0621450000
C                  0.4000410000     -1.3779700000     -0.1432920000
Cl                 0.7733730000     -3.0711150000     -0.1453050000
C                 -1.0197970000     -1.0214020000     -0.2420860000
O                 -1.8949580000     -1.8574320000     -0.3695710000
O                  2.6465220000     -0.8612370000      0.0034590000
C                  3.7949370000     -0.0314310000      0.2932290000
H                 -3.7235820000     -0.5795530000      0.8480660000
H                 -4.6211610000      0.7441580000      0.0465620000
H                 -3.9610840000     -0.6152550000     -0.9155080000
H                  4.0176660000      0.6299390000     -0.5409370000
H                  3.6371550000      0.5563770000      1.1961450000
H                  4.5980560000     -0.7507420000      0.4417790000
$end

$rem
BASIS  =  6-311++G(d,p)
GUI  =  2
JOB_TYPE  =  SP
METHOD  =  B3LYP
SCF_CONVERGENCE  = 8
SOLVENT_METHOD = sm12
$end

$smx
solvent dimethylformamide
charges CM5
$end

--------------------------------------------------------------

             Standard Nuclear Orientation (Angstroms)
    I     Atom           X                Y                Z
 ----------------------------------------------------------------
    1      C      -3.8078290000     0.0276940000    -0.0518960000
    2      O      -2.6401080000     0.8624090000    -0.2293250000
    3      C      -1.3792580000     0.4486450000    -0.1823640000
    4      C      -0.3905000000     1.3807570000    -0.1431700000
    5      Cl     -0.7640530000     3.0738050000    -0.1349540000
    6      C       1.0328510000     1.0251420000    -0.1135950000
    7      O       1.9147820000     1.8636310000    -0.1291890000
    8      C       1.3869450000    -0.4464180000    -0.0621450000
    9      C       0.4000410000    -1.3779700000    -0.1432920000
   10      Cl      0.7733730000    -3.0711150000    -0.1453050000
   11      C      -1.0197970000    -1.0214020000    -0.2420860000
   12      O      -1.8949580000    -1.8574320000    -0.3695710000
   13      O       2.6465220000    -0.8612370000     0.0034590000
   14      C       3.7949370000    -0.0314310000     0.2932290000
   15      H      -3.7235820000    -0.5795530000     0.8480660000
   16      H      -4.6211610000     0.7441580000     0.0465620000
   17      H      -3.9610840000    -0.6152550000    -0.9155080000
   18      H       4.0176660000     0.6299390000    -0.5409370000
   19      H       3.6371550000     0.5563770000     1.1961450000
   20      H       4.5980560000    -0.7507420000     0.4417790000
 ----------------------------------------------------------------

   15   -1529.9061569469      7.10e-09  Convergence criterion met
 Total energy in the final basis set =    -1529.9183057643

                    Orbital Energies (a.u.)
 --------------------------------------------------------------

 Alpha MOs
 -- Occupied --
********-101.5677 -19.1921 -19.1919 -19.1473 -19.1472 -10.3050 -10.3049
-10.2917 -10.2916 -10.2559 -10.2558 -10.2289 -10.2289  -9.4823  -9.4822
 -7.2471  -7.2470  -7.2373  -7.2373  -7.2363  -7.2363  -1.1142  -1.1117
 -1.0793  -1.0783  -0.9087  -0.8920  -0.8334  -0.7890  -0.7424  -0.7202
 -0.6888  -0.6252  -0.6159  -0.5760  -0.5500  -0.5357  -0.5060  -0.4898
 -0.4815  -0.4788  -0.4699  -0.4626  -0.4484  -0.4413  -0.4347  -0.4199
 -0.3973  -0.3841  -0.3750  -0.3745  -0.3516  -0.3490  -0.3291  -0.3239
 -0.2947  -0.2939  -0.2754  -0.2482

          Ground-State Mulliken Net Atomic Charges

     Atom                 Charge (a.u.)
  ----------------------------------------
      1 C                    -0.102948
      2 O                    -0.144600
      3 C                    -1.008831
      4 C                     1.399158
      5 Cl                    0.211909
      6 C                    -0.783450
      7 O                    -0.214093
      8 C                    -1.001878
      9 C                     1.401450
     10 Cl                    0.210557
     11 C                    -0.786718
     12 O                    -0.214589
     13 O                    -0.146035
     14 C                    -0.100530
     15 H                     0.192653
     16 H                     0.249283
     17 H                     0.197704
     18 H                     0.197965
     19 H                     0.192949
     20 H                     0.250044
  ----------------------------------------
  Sum of atomic charges =     0.000000

                    Cartesian Multipole Moments
 -----------------------------------------------------------------
    Charge (ESU x 10^10)
                -0.0000
    Dipole Moment (Debye)
         X      -0.0317      Y      -0.0066      Z       0.9805
       Tot       0.9810
    Quadrupole Moments (Debye-Ang)
        XX     -73.4643     XY      -2.8647     YY    -110.6484
        XZ       0.7133     YZ      -0.4024     ZZ     -92.2112

 Total job time:  268.01s(wall), 2032.87s(cpu)
        *  Thank you very much for using Q-Chem.  Have a nice day.  *
