 Gaussian 16, Revision A.03,
 Gaussian 16:  ES64L-G16RevA.03 25-Dec-2016

 ----------------------------------------------------------------
 #P UB3LYP/6-311++G(d,p) SCRF=(PCM,Solvent=n,n-DiMethylFormamide)
 ----------------------------------------------------------------

 ------------------
 Quinone PCM in DMF
 ------------------
 Symbolic Z-matrix:
 Charge =  0 Multiplicity = 1

                         Standard orientation:
 ---------------------------------------------------------------------
 Center     Atomic      Atomic             Coordinates (Angstroms)
 Number     Number       Type             X           Y           Z
 ---------------------------------------------------------------------
      1          6           0        8.263311   -0.049330   -1.086193
      2          6           0        8.869879   -1.301173   -1.119697
      3          6           0        8.221237   -2.405831   -0.564684
      4          6           0        7.005395    0.094906   -0.496017
      5          6           0        6.350363   -1.014531    0.063390
      6          6           0        6.966463   -2.264121    0.025165
      7          6           0        6.349717    1.414409   -0.451937
      8          6           0        5.005109    1.512733    0.185703
      9          6           0        4.357865    0.458952    0.741371
     10          6           0        4.997201   -0.872979    0.702003
     11          8           0        6.841031    2.440822   -0.908068
     12          8           0        4.441361   -1.850792    1.182893
     13          1           0        8.746842    0.822490   -1.509640
     14          1           0        9.845654   -1.417571   -1.576859
     15          1           0        8.695506   -3.380326   -0.591824
     16          1           0        6.449730   -3.110414    0.460444
     17          8           0        4.484579    2.750665    0.170303
     18          6           0        2.997845    0.586406    1.367978
     19          6           0        1.852474    0.295029    0.374713
     20          6           0        0.468975    0.419049    1.021069
     21          6           0       -0.681891    0.136353    0.048909
     22          6           0       -2.068915    0.262247    0.689385
     23          6           0       -3.219953   -0.022140   -0.282247
     24          6           0       -4.606757    0.104530    0.358171
     25          6           0       -5.756389   -0.181205   -0.615883
     26          6           0       -7.141313   -0.049705    0.037981
     27          6           0       -8.254920   -0.339374   -0.953470
     28         35           0      -10.054326   -0.173493   -0.127477
     29          1           0        5.148711    3.317368   -0.266466
     30          1           0        2.880925    1.597128    1.767303
     31          1           0        2.932482   -0.118915    2.200139
     32          1           0        1.979397   -0.714977   -0.029118
     33          1           0        1.925940    0.987935   -0.471159
     34          1           0        0.352380    1.428030    1.437191
     35          1           0        0.404200   -0.272163    1.870878
     36          1           0       -0.564918   -0.873165   -0.365528
     37          1           0       -0.613179    0.824989   -0.803115
     38          1           0       -2.186052    1.272070    1.103343
     39          1           0       -2.137252   -0.425345    1.542168
     40          1           0       -3.102988   -1.032272   -0.695472
     41          1           0       -3.151169    0.665013   -1.135469
     42          1           0       -4.725361    1.114562    0.770251
     43          1           0       -4.676910   -0.582493    1.210853
     44          1           0       -5.639942   -1.192141   -1.026203
     45          1           0       -5.687477    0.506203   -1.468333
     46          1           0       -7.266117    0.960098    0.441058
     47          1           0       -7.218420   -0.739570    0.884079
     48          1           0       -8.216452   -1.357372   -1.336607
     49          1           0       -8.264062    0.362195   -1.785522
 ---------------------------------------------------------------------

 SCF Done:  E(UB3LYP) =  -3577.32592206     A.U. after   16 cycles

 The electronic state is 1-A.
 Alpha  occ. eigenvalues -- -482.82147 -62.47448 -56.29459 -56.29102 -56.29100
 Alpha  occ. eigenvalues --  -19.18064 -19.15135 -19.13081 -10.29521 -10.28230
 Alpha  occ. eigenvalues --  -10.26894 -10.22643 -10.21290 -10.21161 -10.20550
 Alpha  occ. eigenvalues --  -10.20355 -10.20183 -10.20014 -10.19973 -10.17809
 Alpha  occ. eigenvalues --  -10.17782 -10.17005 -10.16913 -10.16433 -10.16313
 Alpha  occ. eigenvalues --  -10.16173 -10.16143 -10.16093  -8.68404  -6.51463
 Alpha  occ. eigenvalues --   -6.50289  -6.50279  -2.62565  -2.62234  -2.62226
 Alpha  occ. eigenvalues --   -2.61294  -2.61294  -1.11064  -1.06914  -1.06432
 Alpha  occ. eigenvalues --   -0.89484  -0.84608  -0.82981  -0.81247  -0.79897
 Alpha  occ. eigenvalues --   -0.78376  -0.78170  -0.76179  -0.73462  -0.70678
 Alpha  occ. eigenvalues --   -0.68704  -0.66210  -0.65181  -0.62831  -0.60877
 Alpha  occ. eigenvalues --   -0.60416  -0.58942  -0.57783  -0.57757  -0.57535
 Alpha  occ. eigenvalues --   -0.54462  -0.52091  -0.50000  -0.49421  -0.48316
 Alpha  occ. eigenvalues --   -0.47908  -0.47353  -0.46925  -0.46244  -0.45530
 Alpha  occ. eigenvalues --   -0.44941  -0.44045  -0.43551  -0.42993  -0.42885
 Alpha  occ. eigenvalues --   -0.42645  -0.41653  -0.41038  -0.40230  -0.40089
 Alpha  occ. eigenvalues --   -0.39358  -0.38302  -0.37952  -0.37494  -0.37325
 Alpha  occ. eigenvalues --   -0.37036  -0.35532  -0.34966  -0.34844  -0.33642
 Alpha  occ. eigenvalues --   -0.33400  -0.32662  -0.32548  -0.32209  -0.31241
 Alpha  occ. eigenvalues --   -0.30438  -0.29179  -0.28539  -0.28453  -0.28235
 Alpha  occ. eigenvalues --   -0.28042  -0.25844
 Alpha virt. eigenvalues --   -0.12740  -0.05821  -0.02780  -0.02253  -0.00970
 Alpha virt. eigenvalues --   -0.00388   0.00129   0.00442   0.00620   0.00978
 Alpha virt. eigenvalues --    0.01302   0.01782   0.02147   0.02203   0.02297

  Beta  occ. eigenvalues -- -482.82147 -62.47448 -56.29459 -56.29102 -56.29100
  Beta  occ. eigenvalues --  -19.18064 -19.15135 -19.13081 -10.29521 -10.28230
  Beta  occ. eigenvalues --  -10.26894 -10.22643 -10.21290 -10.21161 -10.20550
  Beta  occ. eigenvalues --  -10.20355 -10.20183 -10.20014 -10.19973 -10.17809
  Beta  occ. eigenvalues --  -10.17782 -10.17005 -10.16913 -10.16433 -10.16313
  Beta  occ. eigenvalues --  -10.16173 -10.16143 -10.16093  -8.68404  -6.51463
  Beta  occ. eigenvalues --   -6.50289  -6.50279  -2.62565  -2.62234  -2.62226
  Beta  occ. eigenvalues --   -2.61294  -2.61294  -1.11064  -1.06914  -1.06432
  Beta  occ. eigenvalues --   -0.89484  -0.84608  -0.82981  -0.81247  -0.79897
  Beta  occ. eigenvalues --   -0.78376  -0.78170  -0.76179  -0.73462  -0.70678
  Beta  occ. eigenvalues --   -0.68704  -0.66210  -0.65181  -0.62831  -0.60877
  Beta  occ. eigenvalues --   -0.60416  -0.58942  -0.57783  -0.57757  -0.57535
  Beta  occ. eigenvalues --   -0.54462  -0.52091  -0.50000  -0.49421  -0.48316
  Beta  occ. eigenvalues --   -0.47908  -0.47353  -0.46925  -0.46244  -0.45530
  Beta  occ. eigenvalues --   -0.44941  -0.44045  -0.43551  -0.42993  -0.42885
  Beta  occ. eigenvalues --   -0.42645  -0.41653  -0.41038  -0.40230  -0.40089
  Beta  occ. eigenvalues --   -0.39358  -0.38302  -0.37952  -0.37494  -0.37325
  Beta  occ. eigenvalues --   -0.37036  -0.35532  -0.34966  -0.34844  -0.33642
  Beta  occ. eigenvalues --   -0.33400  -0.32662  -0.32548  -0.32209  -0.31241
  Beta  occ. eigenvalues --   -0.30438  -0.29179  -0.28539  -0.28453  -0.28235
  Beta  occ. eigenvalues --   -0.28042  -0.25844
  Beta virt. eigenvalues --   -0.12740  -0.05821  -0.02780  -0.02253  -0.00970
  Beta virt. eigenvalues --   -0.00388   0.00129   0.00442   0.00620   0.00978
  Beta virt. eigenvalues --    0.01302   0.01782   0.02147   0.02203   0.02297

 Mulliken charges and spin densities:
               1          2
     1  C    0.133550   0.000000
     2  C   -0.380731   0.000000
     3  C   -0.400641  -0.000000
     4  C    0.571371   0.000000
     5  C   -0.137990  -0.000000
     6  C    0.143075  -0.000000
     7  C   -0.852481  -0.000000
     8  C   -0.458773  -0.000000
     9  C    1.944121   0.000000
    10  C   -0.766394   0.000000
    11  O   -0.313590   0.000000
    12  O   -0.276829  -0.000000
    13  H    0.190936   0.000000
    14  H    0.211528   0.000000
    15  H    0.207733   0.000000
    16  H    0.191229   0.000000
    17  O   -0.222699   0.000000
    18  C   -0.375580  -0.000000
    19  C   -0.855477   0.000000
    20  C   -0.295951  -0.000000
    21  C   -0.013697   0.000000
    22  C    0.038326  -0.000000
    23  C   -0.011194  -0.000000
    24  C   -0.150295   0.000000
    25  C   -0.324898   0.000000
    26  C   -0.366684  -0.000000
    27  C   -0.642378   0.000000
    28  Br  -0.191567  -0.000000
    29  H    0.307396  -0.000000
    30  H    0.235659   0.000000
    31  H    0.221580   0.000000
    32  H    0.178663   0.000000
    33  H    0.176550   0.000000
    34  H    0.118928  -0.000000
    35  H    0.122736   0.000000
    36  H    0.129938   0.000000
    37  H    0.129764  -0.000000
    38  H    0.133262   0.000000
    39  H    0.133617   0.000000
    40  H    0.132649   0.000000
    41  H    0.132906   0.000000
    42  H    0.133341  -0.000000
    43  H    0.133463  -0.000000
    44  H    0.137986  -0.000000
    45  H    0.137899  -0.000000
    46  H    0.148969   0.000000
    47  H    0.149002   0.000000
    48  H    0.205839   0.000000
    49  H    0.205834   0.000000
 Sum of Mulliken charges =  -0.00000  -0.00000

 Dipole moment (field-independent basis, Debye):
    X=              5.5856    Y=             -0.7115    Z=             -2.3293  Tot=              6.0935
 Quadrupole moment (field-independent basis, Debye-Ang):
   XX=           -173.0072   YY=           -159.5024   ZZ=           -160.4228
   XY=            -12.9305   XZ=             -2.1718   YZ=              5.0904

 Normal termination of Gaussian 16 at Thu Jan 25 05:58:38 2024.
