 Gaussian 16, Revision A.03,
 Gaussian 16:  ES64L-G16RevA.03 25-Dec-2016

 ----------------------------------------------------------------
 #P UB3LYP/6-311++G(d,p) SCRF=(PCM,Solvent=n,n-DiMethylFormamide)
 ----------------------------------------------------------------

 ------------------
 Quinone PCM in DMF
 ------------------
 Symbolic Z-matrix:
 Charge =  0 Multiplicity = 1

                         Standard orientation:
 ---------------------------------------------------------------------
 Center     Atomic      Atomic             Coordinates (Angstroms)
 Number     Number       Type             X           Y           Z
 ---------------------------------------------------------------------
      1         35           0       -2.917062   -0.615329    0.000005
      2          6           0       -1.063810   -0.177272   -0.000060
      3          6           0       -0.119465   -1.137566   -0.000071
      4          6           0        1.312138   -0.854865   -0.000054
      5          6           0        2.236963   -1.905329    0.000025
      6          6           0        3.605548   -1.641374    0.000091
      7          6           0        4.069186   -0.326274    0.000051
      8          6           0        3.159004    0.728357   -0.000052
      9          6           0        1.787840    0.472926   -0.000081
     10          6           0        0.822140    1.600965   -0.000028
     11          8           0        1.154279    2.762092   -0.000031
     12          6           0       -0.711458    1.260151   -0.000015
     13          8           0       -1.515941    2.157862    0.000143
     14          1           0       -0.416805   -2.180495   -0.000084
     15          1           0        1.882039   -2.930002    0.000016
     16          1           0        4.309742   -2.465433    0.000149
     17          1           0        5.133771   -0.124486    0.000093
     18          1           0        3.493205    1.758972   -0.000079
 ---------------------------------------------------------------------

 SCF Done:  E(UB3LYP) =  -3108.79965738     A.U. after   15 cycles

 The electronic state is 1-A.
 Alpha  occ. eigenvalues -- -482.84685 -62.49958 -56.32001 -56.31609 -56.31586
 Alpha  occ. eigenvalues --  -19.15458 -19.15347 -10.29806 -10.29626 -10.25562
 Alpha  occ. eigenvalues --  -10.23122 -10.22398 -10.21344 -10.20759 -10.20653
 Alpha  occ. eigenvalues --  -10.20563 -10.20223  -8.70926  -6.54088  -6.52781
 Alpha  occ. eigenvalues --   -6.52717  -2.65178  -2.64811  -2.64764  -2.63724
 Alpha  occ. eigenvalues --   -2.63724  -1.10082  -1.07465  -0.90671  -0.86495
 Alpha  occ. eigenvalues --   -0.80952  -0.79215  -0.75140  -0.72048  -0.64594
 Alpha  occ. eigenvalues --   -0.63486  -0.61244  -0.55930  -0.52779  -0.52025
 Alpha  occ. eigenvalues --   -0.48546  -0.47615  -0.47181  -0.46962  -0.45796
 Alpha  occ. eigenvalues --   -0.45112  -0.41871  -0.41792  -0.40298  -0.38850
 Alpha  occ. eigenvalues --   -0.37570  -0.35828  -0.32957  -0.31362  -0.30707
 Alpha  occ. eigenvalues --   -0.28815  -0.27734  -0.25724
 Alpha virt. eigenvalues --   -0.14152  -0.06462  -0.03072  -0.02675  -0.00615
 Alpha virt. eigenvalues --   -0.00367   0.00568   0.01206   0.02864   0.03050
 Alpha virt. eigenvalues --    0.04147   0.04320   0.05536   0.05560   0.05927

  Beta  occ. eigenvalues -- -482.84685 -62.49958 -56.32001 -56.31609 -56.31586
  Beta  occ. eigenvalues --  -19.15458 -19.15347 -10.29806 -10.29626 -10.25562
  Beta  occ. eigenvalues --  -10.23122 -10.22398 -10.21344 -10.20759 -10.20653
  Beta  occ. eigenvalues --  -10.20563 -10.20223  -8.70926  -6.54088  -6.52781
  Beta  occ. eigenvalues --   -6.52717  -2.65178  -2.64811  -2.64764  -2.63724
  Beta  occ. eigenvalues --   -2.63724  -1.10082  -1.07465  -0.90671  -0.86495
  Beta  occ. eigenvalues --   -0.80952  -0.79215  -0.75140  -0.72048  -0.64594
  Beta  occ. eigenvalues --   -0.63486  -0.61244  -0.55930  -0.52779  -0.52025
  Beta  occ. eigenvalues --   -0.48546  -0.47615  -0.47181  -0.46962  -0.45796
  Beta  occ. eigenvalues --   -0.45112  -0.41871  -0.41792  -0.40298  -0.38850
  Beta  occ. eigenvalues --   -0.37570  -0.35828  -0.32957  -0.31362  -0.30707
  Beta  occ. eigenvalues --   -0.28815  -0.27734  -0.25724
  Beta virt. eigenvalues --   -0.14152  -0.06462  -0.03072  -0.02675  -0.00615
  Beta virt. eigenvalues --   -0.00367   0.00568   0.01206   0.02864   0.03050
  Beta virt. eigenvalues --    0.04147   0.04320   0.05536   0.05560   0.05927

 Mulliken charges and spin densities:
               1          2
     1  Br  -0.108094  -0.000000
     2  C    0.666363   0.000000
     3  C   -0.261207  -0.000000
     4  C   -0.548693   0.000000
     5  C   -0.029875   0.000000
     6  C   -0.326488  -0.000000
     7  C   -0.321083  -0.000000
     8  C    0.293324  -0.000000
     9  C    0.794032  -0.000000
    10  C   -0.388314  -0.000000
    11  O   -0.255197  -0.000000
    12  C   -0.315610   0.000000
    13  O   -0.243214   0.000000
    14  H    0.249414  -0.000000
    15  H    0.180529   0.000000
    16  H    0.215591  -0.000000
    17  H    0.214090   0.000000
    18  H    0.184433   0.000000
 Sum of Mulliken charges =  -0.00000  -0.00000

 Dipole moment (field-independent basis, Debye):
    X=              5.8100    Y=             -7.4999    Z=             -0.0002  Tot=              9.4871
 Quadrupole moment (field-independent basis, Debye-Ang):
   XX=            -74.3678   YY=            -94.7430   ZZ=            -87.7374
   XY=             -1.7112   XZ=              0.0009   YZ=             -0.0008

 Normal termination of Gaussian 16 at Sat Jan 13 19:15:48 2024.
