 Gaussian 16, Revision A.03,
 Gaussian 16:  ES64L-G16RevA.03 25-Dec-2016

 ----------------------------------------------------------------------
 #P UB3LYP/6-311++G(d,p) nosym opt freq SCRF=(PCM,Solvent=n,n-DiMethylF
 ormamide)
 ----------------------------------------------------------------------

 -------
 Reduced
 -------
 Symbolic Z-matrix:
 Charge = -2 Multiplicity = 1

 SCF Done:  E(UB3LYP) =  -614.161549216     A.U. after   17 cycles
 SCF Done:  E(UB3LYP) =  -614.163580644     A.U. after   14 cycles
 SCF Done:  E(UB3LYP) =  -614.163905253     A.U. after   13 cycles
 SCF Done:  E(UB3LYP) =  -614.163914628     A.U. after   12 cycles
 SCF Done:  E(UB3LYP) =  -614.163929167     A.U. after   12 cycles
 SCF Done:  E(UB3LYP) =  -614.163930553     A.U. after   11 cycles
 SCF Done:  E(UB3LYP) =  -614.163932263     A.U. after   10 cycles
 SCF Done:  E(UB3LYP) =  -614.163932712     A.U. after   10 cycles
 SCF Done:  E(UB3LYP) =  -614.163932757     A.U. after    9 cycles
 Optimization completed.
    -- Stationary point found.
 Normal termination of Gaussian 16 at Sun Feb 11 02:31:19 2024.

 ----------------------------------------------------------------------
 #P Geom=AllCheck Guess=TCheck SCRF=Check GenChk UB3LYP/6-311++G(d,p) F
 req
 ----------------------------------------------------------------------

 Structure from the checkpoint file:  "246-an.chk"
 -------
 Reduced
 -------
 Charge = -2 Multiplicity = 1

                          Input orientation:
 ---------------------------------------------------------------------
 Center     Atomic      Atomic             Coordinates (Angstroms)
 Number     Number       Type             X           Y           Z
 ---------------------------------------------------------------------
      1          6           0       -2.786998   -0.880197   -0.974069
      2          6           0       -1.439702   -0.410618   -0.474227
      3          6           0       -0.289931   -1.117839   -0.775698
      4          6           0        1.004004   -0.735322   -0.340365
      5          6           0        2.167482   -1.539634   -0.691581
      6          8           0        2.060144   -2.636015   -1.408713
      7          6           0        3.384164   -1.040862   -0.197749
      8          6           0        3.496205    0.142581    0.577316
      9          6           0        2.401703    0.945333    0.938804
     10          8           0        2.499360    2.042563    1.655302
     11          6           0        1.116874    0.461642    0.450233
     12          6           0       -0.074993    1.169089    0.749367
     13          6           0       -1.328645    0.773158    0.320011
     14          6           0       -2.557167    1.575146    0.684976
     15          1           0       -2.684936   -1.792813   -1.565553
     16          1           0       -3.478905   -1.092003   -0.150454
     17          1           0       -3.275867   -0.127370   -1.603469
     18          1           0       -0.357564   -2.018286   -1.377909
     19          1           0        4.289585   -1.601282   -0.428327
     20          1           0        4.484264    0.452555    0.916127
     21          1           0        0.026826    2.067430    1.350485
     22          1           0       -3.281050    0.979408    1.253378
     23          1           0       -2.288274    2.441038    1.294134
     24          1           0       -3.086581    1.942297   -0.202019
 ---------------------------------------------------------------------

 SCF Done:  E(UB3LYP) =  -614.163932757     A.U. after    1 cycles

 Alpha  occ. eigenvalues --  -19.00997 -19.00995 -10.16383 -10.16380 -10.15494
 Alpha  occ. eigenvalues --  -10.15451 -10.15286 -10.15285 -10.13925 -10.13924
 Alpha  occ. eigenvalues --  -10.13417 -10.13376 -10.11518 -10.11473  -0.91690
 Alpha  occ. eigenvalues --   -0.91277  -0.83093  -0.77127  -0.74112  -0.72448
 Alpha  occ. eigenvalues --   -0.68120  -0.65292  -0.62946  -0.57378  -0.55704
 Alpha  occ. eigenvalues --   -0.52159  -0.45941  -0.45509  -0.43627  -0.41942
 Alpha  occ. eigenvalues --   -0.40289  -0.40065  -0.38988  -0.38725  -0.37147
 Alpha  occ. eigenvalues --   -0.36101  -0.36090  -0.35510  -0.34667  -0.33265
 Alpha  occ. eigenvalues --   -0.30778  -0.30646  -0.29856  -0.29593  -0.22067
 Alpha  occ. eigenvalues --   -0.21499  -0.20502  -0.19121  -0.18909  -0.11088
 Alpha virt. eigenvalues --   -0.00204  -0.00130   0.01023   0.01447   0.01450
 Alpha virt. eigenvalues --    0.02793   0.03031   0.03798   0.04468   0.05119
 Alpha virt. eigenvalues --    0.05789   0.06062   0.06401   0.07235   0.07641

  Beta  occ. eigenvalues --  -19.00997 -19.00995 -10.16383 -10.16380 -10.15494
  Beta  occ. eigenvalues --  -10.15451 -10.15286 -10.15285 -10.13925 -10.13924
  Beta  occ. eigenvalues --  -10.13417 -10.13376 -10.11518 -10.11473  -0.91690
  Beta  occ. eigenvalues --   -0.91277  -0.83093  -0.77127  -0.74112  -0.72448
  Beta  occ. eigenvalues --   -0.68120  -0.65292  -0.62946  -0.57378  -0.55704
  Beta  occ. eigenvalues --   -0.52159  -0.45941  -0.45509  -0.43627  -0.41942
  Beta  occ. eigenvalues --   -0.40289  -0.40065  -0.38988  -0.38725  -0.37147
  Beta  occ. eigenvalues --   -0.36101  -0.36090  -0.35510  -0.34667  -0.33265
  Beta  occ. eigenvalues --   -0.30778  -0.30646  -0.29856  -0.29593  -0.22067
  Beta  occ. eigenvalues --   -0.21499  -0.20502  -0.19121  -0.18909  -0.11088
  Beta virt. eigenvalues --   -0.00204  -0.00130   0.01023   0.01447   0.01450
  Beta virt. eigenvalues --    0.02793   0.03031   0.03798   0.04468   0.05119
  Beta virt. eigenvalues --    0.05789   0.06062   0.06401   0.07235   0.07641

 Mulliken charges and spin densities:
               1          2
     1  C   -0.522489  -0.000000
     2  C    0.567710  -0.000000
     3  C   -0.436912   0.000000
     4  C    0.072304  -0.000000
     5  C   -0.637882   0.000000
     6  O   -0.738581  -0.000000
     7  C    0.008715  -0.000000
     8  C    0.007745   0.000000
     9  C   -0.634244  -0.000000
    10  O   -0.738534   0.000000
    11  C    0.073558   0.000000
    12  C   -0.433064   0.000000
    13  C    0.567669   0.000000
    14  C   -0.523977  -0.000000
    15  H    0.156831   0.000000
    16  H    0.147249  -0.000000
    17  H    0.147041  -0.000000
    18  H    0.111816  -0.000000
    19  H    0.121229  -0.000000
    20  H    0.121236  -0.000000
    21  H    0.111517  -0.000000
    22  H    0.147235  -0.000000
    23  H    0.156793  -0.000000
    24  H    0.147037  -0.000000
 Sum of Mulliken charges =  -2.00000   0.00000

 Dipole moment (field-independent basis, Debye):
    X=            -21.2029    Y=              2.7633    Z=             -1.1398  Tot=             21.4126
 Quadrupole moment (field-independent basis, Debye-Ang):
   XX=           -141.6224   YY=           -136.6370   ZZ=           -111.8964
   XY=              2.2485   XZ=             -5.1442   YZ=            -27.1505

  Exact polarizability: 361.453 -18.475 253.213  18.631  69.359 189.385
 Approx polarizability: 389.569 -18.759 283.516  20.487  79.795 210.302

                      1                      2                      3
                      A                      A                      A
 Frequencies --     73.3483                97.5446               138.5444
 Red. masses --      3.8914                 4.3387                 4.6997
 Frc consts  --      0.0123                 0.0243                 0.0531
 IR Inten    --      0.1855                16.0978                 6.4712

                      4                      5                      6
                      A                      A                      A
 Frequencies --    150.3420               188.5925               199.5268
 Red. masses --      1.0641                 1.1068                 5.2200
 Frc consts  --      0.0142                 0.0232                 0.1224
 IR Inten    --      0.0777                 0.3551                 8.8151

                      7                      8                      9
                      A                      A                      A
 Frequencies --    244.6954               289.6698               312.5731
 Red. masses --      3.3438                 2.7887                 3.7174
 Frc consts  --      0.1180                 0.1379                 0.2140
 IR Inten    --      0.0864                 9.1413                 5.2223

                     10                     11                     12
                      A                      A                      A
 Frequencies --    330.9680               363.4574               366.3059
 Red. masses --      6.8813                 4.5307                 5.9508
 Frc consts  --      0.4441                 0.3526                 0.4704
 IR Inten    --      7.9947                10.8640                 0.0093

                     13                     14                     15
                      A                      A                      A
 Frequencies --    439.9395               459.2776               500.1706
 Red. masses --      2.8633                 9.6964                 3.9619
 Frc consts  --      0.3265                 1.2051                 0.5840
 IR Inten    --     15.2451                 0.1544                 0.1258

                     16                     17                     18
                      A                      A                      A
 Frequencies --    516.7537               528.1623               604.0592
 Red. masses --      8.0655                 4.0257                 5.2003
 Frc consts  --      1.2690                 0.6616                 1.1180
 IR Inten    --      1.0370                 0.0233                 6.0042

                     19                     20                     21
                      A                      A                      A
 Frequencies --    645.2297               647.8468               671.3965
 Red. masses --      3.8804                 2.2872                 3.5583
 Frc consts  --      0.9518                 0.5656                 0.9450
 IR Inten    --     10.1525                 9.0711                 0.2156

                     22                     23                     24
                      A                      A                      A
 Frequencies --    726.1561               769.9829               772.4328
 Red. masses --      6.8534                 3.9170                 6.4253
 Frc consts  --      2.1292                 1.3683                 2.2587
 IR Inten    --      0.1025                66.6639               245.9687

                     25                     26                     27
                      A                      A                      A
 Frequencies --    790.1048               802.1414               860.7404
 Red. masses --      3.4584                 2.0314                 1.4345
 Frc consts  --      1.2720                 0.7701                 0.6262
 IR Inten    --      5.8999                96.3051                 1.3070

                     28                     29                     30
                      A                      A                      A
 Frequencies --    895.7807               921.1808              1000.3841
 Red. masses --      1.5129                 1.3666                 1.4791
 Frc consts  --      0.7152                 0.6832                 0.8721
 IR Inten    --     14.7323                19.8144                55.1122

                     31                     32                     33
                      A                      A                      A
 Frequencies --   1008.0158              1024.1992              1043.5951
 Red. masses --      3.7157                 1.6704                 1.4384
 Frc consts  --      2.2245                 1.0324                 0.9230
 IR Inten    --      0.1426                17.9689                 9.9418

                     34                     35                     36
                      A                      A                      A
 Frequencies --   1048.3475              1062.7141              1136.8161
 Red. masses --      1.8256                 1.5616                 1.5189
 Frc consts  --      1.1821                 1.0391                 1.1566
 IR Inten    --     46.1897                 0.0499                 9.6362

                     37                     38                     39
                      A                      A                      A
 Frequencies --   1168.3450              1204.5954              1223.8372
 Red. masses --      4.3568                 4.4206                 1.8800
 Frc consts  --      3.5040                 3.7794                 1.6590
 IR Inten    --    325.5579               159.7884               469.5667

                     40                     41                     42
                      A                      A                      A
 Frequencies --   1233.5347              1266.9504              1306.1654
 Red. masses --      3.2783                 1.5686                 5.3523
 Frc consts  --      2.9390                 1.4835                 5.3801
 IR Inten    --     87.6545               319.5773                77.3246

                     43                     44                     45
                      A                      A                      A
 Frequencies --   1336.0478              1356.6555              1393.5713
 Red. masses --      8.9454                 5.5286                 1.6069
 Frc consts  --      9.4080                 5.9952                 1.8386
 IR Inten    --   1091.8617               134.4052               203.9914

                     46                     47                     48
                      A                      A                      A
 Frequencies --   1408.6665              1412.6808              1455.1205
 Red. masses --      1.2380                 2.0164                 3.2502
 Frc consts  --      1.4473                 2.3709                 4.0547
 IR Inten    --      7.0387               258.1489               147.7211

                     49                     50                     51
                      A                      A                      A
 Frequencies --   1468.2157              1479.5495              1480.9939
 Red. masses --      1.0454                 1.0499                 1.8992
 Frc consts  --      1.3278                 1.3541                 2.4543
 IR Inten    --      0.0004                20.2809                 0.9526

                     52                     53                     54
                      A                      A                      A
 Frequencies --   1482.6858              1506.6142              1534.1306
 Red. masses --      1.1154                 1.8250                 4.7865
 Frc consts  --      1.4448                 2.4407                 6.6373
 IR Inten    --      1.9000                 9.2385               421.3967

                     55                     56                     57
                      A                      A                      A
 Frequencies --   1586.5252              1632.9994              3000.7711
 Red. masses --      7.1994                 6.4649                 1.0391
 Frc consts  --     10.6768                10.1574                 5.5131
 IR Inten    --      6.4156                 6.2523                12.3359

                     58                     59                     60
                      A                      A                      A
 Frequencies --   3002.4082              3037.9271              3038.4627
 Red. masses --      1.0384                 1.0996                 1.0996
 Frc consts  --      5.5150                 5.9792                 5.9811
 IR Inten    --    248.0965                 0.0096                90.7531

                     61                     62                     63
                      A                      A                      A
 Frequencies --   3087.3306              3088.7459              3091.6497
 Red. masses --      1.0982                 1.0980                 1.0838
 Frc consts  --      6.1672                 6.1720                 6.1035
 IR Inten    --     84.1320                 8.2426               111.0608

                     64                     65                     66
                      A                      A                      A
 Frequencies --   3114.7319              3151.1353              3156.0238
 Red. masses --      1.0911                 1.0885                 1.0879
 Frc consts  --      6.2369                 6.3681                 6.3843
 IR Inten    --    166.2459                32.5904                26.7025

 - Thermochemistry -
 -------------------
 Temperature   298.150 Kelvin.  Pressure   1.00000 Atm.
 Atom     1 has atomic number  6 and mass  12.00000

 Molecular mass:   186.06808 amu.
 Principal axes and moments of inertia in atomic units:
                           1         2         3
     Eigenvalues --  1708.305293042.810894728.81728
           X            0.99013   0.07880  -0.11589
           Y           -0.12937   0.83192  -0.53960
           Z            0.05389   0.54927   0.83390
 This molecule is an asymmetric top.
 Rotational symmetry number  1.
 Warning -- assumption of classical behavior for rotation
           may cause significant error
 Rotational temperatures (Kelvin)      0.05070     0.02847     0.01832
 Rotational constants (GHZ):           1.05645     0.59312     0.38165
 Zero-point vibrational energy     480528.4 (Joules/Mol)
                                  114.84903 (Kcal/Mol)
 Warning -- explicit consideration of  18 degrees of freedom as
           vibrations may cause significant error
 Vibrational temperatures:    105.53   140.34   199.33   216.31   271.34
          (Kelvin)            287.07   352.06   416.77   449.72   476.19
                              522.93   527.03   632.97   660.80   719.63
                              743.49   759.91   869.11   928.34   932.11
                              965.99  1044.78  1107.83  1111.36  1136.78
                             1154.10  1238.41  1288.83  1325.37  1439.33
                             1450.31  1473.59  1501.50  1508.34  1529.01
                             1635.62  1680.99  1733.14  1760.83  1774.78
                             1822.86  1879.28  1922.27  1951.92  2005.04
                             2026.76  2032.53  2093.59  2112.43  2128.74
                             2130.82  2133.25  2167.68  2207.27  2282.66
                             2349.52  4317.44  4319.80  4370.90  4371.67
                             4441.98  4444.02  4448.19  4481.40  4533.78
                             4540.81

 Zero-point correction=                           0.183024 (Hartree/Particle)
 Thermal correction to Energy=                    0.194951
 Thermal correction to Enthalpy=                  0.195895
 Thermal correction to Gibbs Free Energy=         0.145439
 Sum of electronic and zero-point Energies=           -613.980909
 Sum of electronic and thermal Energies=              -613.968982
 Sum of electronic and thermal Enthalpies=            -613.968038
 Sum of electronic and thermal Free Energies=         -614.018494

                     E (Thermal)             CV                S
                      KCal/Mol        Cal/Mol-Kelvin    Cal/Mol-Kelvin
 Total                  122.333             47.039            106.193
 Electronic               0.000              0.000              0.000
 Translational            0.889              2.981             41.569
 Rotational               0.889              2.981             31.575
 Vibrational            120.556             41.078             33.049
 Vibration     1          0.599              1.967              4.061
 Vibration     2          0.603              1.951              3.503
 Vibration     3          0.614              1.915              2.824
 Vibration     4          0.618              1.902              2.668
 Vibration     5          0.633              1.856              2.242
 Vibration     6          0.638              1.841              2.137
 Vibration     7          0.660              1.772              1.768
 Vibration     8          0.686              1.693              1.476
 Vibration     9          0.701              1.650              1.349
 Vibration    10          0.713              1.614              1.255
 Vibration    11          0.737              1.548              1.107
 Vibration    12          0.739              1.542              1.095
 Vibration    13          0.800              1.383              0.827
 Vibration    14          0.817              1.340              0.768
 Vibration    15          0.856              1.250              0.658
 Vibration    16          0.872              1.213              0.618
 Vibration    17          0.883              1.188              0.591
 Vibration    18          0.963              1.023              0.443

 Optimization completed.
    -- Stationary point found.
 Normal termination of Gaussian 16 at Sun Feb 11 03:11:16 2024.
