 Gaussian 16, Revision A.03,
 Gaussian 16:  ES64L-G16RevA.03 25-Dec-2016

 ----------------------------------------------------------------------
 #P UB3LYP/6-311++G(d,p) nosym opt freq SCRF=(PCM,Solvent=n,n-DiMethylF
 ormamide)
 ----------------------------------------------------------------------

 -------
 Radical
 -------
 Symbolic Z-matrix:
 Charge = -1 Multiplicity = 2

 SCF Done:  E(UB3LYP) =  -803.653956676     A.U. after   19 cycles
 SCF Done:  E(UB3LYP) =  -803.654368777     A.U. after   14 cycles
 SCF Done:  E(UB3LYP) =  -803.654441472     A.U. after   14 cycles
 SCF Done:  E(UB3LYP) =  -803.654445814     A.U. after   11 cycles
 SCF Done:  E(UB3LYP) =  -803.654446484     A.U. after    9 cycles
 SCF Done:  E(UB3LYP) =  -803.654446648     A.U. after    9 cycles
 Optimization completed.
    -- Stationary point found.
 Normal termination of Gaussian 16 at Sat Feb 10 16:30:52 2024.

 ----------------------------------------------------------------------
 #P Geom=AllCheck Guess=TCheck SCRF=Check GenChk UB3LYP/6-311++G(d,p) F
 req
 ----------------------------------------------------------------------

 Structure from the checkpoint file:  "138-rad.chk"
 -------
 Radical
 -------
 Charge = -1 Multiplicity = 2

                          Input orientation:
 ---------------------------------------------------------------------
 Center     Atomic      Atomic             Coordinates (Angstroms)
 Number     Number       Type             X           Y           Z
 ---------------------------------------------------------------------
      1          6           0        4.713835   -0.712231    0.883908
      2          8           0        4.258994    0.349126    0.043709
      3          6           0        2.912794    0.493178   -0.146566
      4          6           0        2.536394    1.566188   -0.991706
      5          6           0        1.206035    1.798882   -1.248494
      6          6           0        0.187767    0.990393   -0.689306
      7          6           0       -1.210165    1.276149   -0.990840
      8          8           0       -1.547694    2.234495   -1.741278
      9          6           0       -2.203575    0.394776   -0.377593
     10          6           0       -3.577340    0.610884   -0.627627
     11          6           0       -4.545995   -0.197722   -0.066090
     12          6           0       -4.166757   -1.265109    0.776368
     13          6           0       -2.830927   -1.498066    1.035478
     14          6           0       -1.819281   -0.684819    0.472595
     15          6           0       -0.418761   -0.966230    0.771548
     16          8           0       -0.077257   -1.925862    1.524637
     17          6           0        0.571477   -0.086367    0.158074
     18          6           0        1.945098   -0.316562    0.416911
     19          1           0        4.414543   -1.686589    0.486336
     20          1           0        4.331200   -0.600869    1.902806
     21          1           0        5.799807   -0.640653    0.892969
     22          1           0        3.312121    2.188458   -1.423194
     23          1           0        0.910325    2.617356   -1.893561
     24          1           0       -3.851442    1.433917   -1.276641
     25          1           0       -5.595399   -0.014842   -0.270531
     26          1           0       -4.925998   -1.901058    1.219013
     27          1           0       -2.526338   -2.313820    1.679918
     28          1           0        2.196538   -1.143002    1.066235
 ---------------------------------------------------------------------

 SCF Done:  E(UB3LYP) =  -803.654446648     A.U. after    1 cycles

 Alpha  occ. eigenvalues --  -19.15781 -19.07442 -19.07333 -10.23570 -10.22425
 Alpha  occ. eigenvalues --  -10.22054 -10.22004 -10.17584 -10.17407 -10.17255
 Alpha  occ. eigenvalues --  -10.17221 -10.17214 -10.17188 -10.17136 -10.16970
 Alpha  occ. eigenvalues --  -10.16919 -10.16916 -10.16693  -1.06993  -0.99847
 Alpha  occ. eigenvalues --   -0.99484  -0.86090  -0.85039  -0.78680  -0.75334
 Alpha  occ. eigenvalues --   -0.74912  -0.74717  -0.70296  -0.66655  -0.63270
 Alpha  occ. eigenvalues --   -0.61295  -0.58920  -0.55864  -0.54041  -0.53271
 Alpha  occ. eigenvalues --   -0.49341  -0.48461  -0.47048  -0.46768  -0.45839
 Alpha  occ. eigenvalues --   -0.43713  -0.42900  -0.42279  -0.42091  -0.41537
 Alpha  occ. eigenvalues --   -0.40877  -0.39992  -0.39106  -0.37826  -0.37699
 Alpha  occ. eigenvalues --   -0.35817  -0.35344  -0.35045  -0.33856  -0.33049
 Alpha  occ. eigenvalues --   -0.31430  -0.26447  -0.25752  -0.25487  -0.24504
 Alpha  occ. eigenvalues --   -0.23678  -0.23027  -0.14153
 Alpha virt. eigenvalues --   -0.05205  -0.01858  -0.00393  -0.00153   0.00334
 Alpha virt. eigenvalues --    0.01062   0.01888   0.02121   0.03439   0.03448
 Alpha virt. eigenvalues --    0.03766   0.04394   0.05010   0.05399   0.05600

  Beta  occ. eigenvalues --  -19.15772 -19.06926 -19.06743 -10.23535 -10.22264
  Beta  occ. eigenvalues --  -10.22004 -10.21846 -10.17500 -10.17414 -10.17188
  Beta  occ. eigenvalues --  -10.17187 -10.17178 -10.17099 -10.17076 -10.16976
  Beta  occ. eigenvalues --  -10.16902 -10.16862 -10.16657  -1.06965  -0.98926
  Beta  occ. eigenvalues --   -0.98440  -0.85824  -0.84928  -0.78319  -0.75106
  Beta  occ. eigenvalues --   -0.74735  -0.74573  -0.70186  -0.65897  -0.63118
  Beta  occ. eigenvalues --   -0.61058  -0.58860  -0.55640  -0.53895  -0.53102
  Beta  occ. eigenvalues --   -0.49165  -0.48355  -0.46985  -0.46533  -0.45705
  Beta  occ. eigenvalues --   -0.43658  -0.42804  -0.42226  -0.41298  -0.40851
  Beta  occ. eigenvalues --   -0.40464  -0.39780  -0.38909  -0.37469  -0.35766
  Beta  occ. eigenvalues --   -0.35431  -0.35229  -0.34361  -0.33772  -0.32913
  Beta  occ. eigenvalues --   -0.30565  -0.25469  -0.24589  -0.24442  -0.23996
  Beta  occ. eigenvalues --   -0.23161  -0.22397
  Beta virt. eigenvalues --   -0.08221  -0.04282  -0.00894  -0.00380   0.00125
  Beta virt. eigenvalues --    0.00334   0.01067   0.01898   0.02121   0.03459
  Beta virt. eigenvalues --    0.03504   0.03768   0.04405   0.05188   0.05417

 Mulliken charges and spin densities:
               1          2
     1  C   -0.339676  -0.000580
     2  O   -0.209832   0.003257
     3  C   -0.708986   0.012915
     4  C   -0.377868   0.026112
     5  C    0.149100   0.016436
     6  C    0.189423   0.021778
     7  C   -0.665651   0.086894
     8  O   -0.467142   0.190882
     9  C    0.077501   0.040487
    10  C    0.120900   0.016647
    11  C   -0.472759   0.051938
    12  C   -0.464752   0.024396
    13  C    0.068425   0.039693
    14  C    0.325533   0.018966
    15  C   -0.637442   0.127684
    16  O   -0.473967   0.220486
    17  C    0.633350   0.062637
    18  C    0.509957   0.054021
    19  H    0.168542   0.000743
    20  H    0.168463   0.000737
    21  H    0.190600  -0.000127
    22  H    0.204581  -0.002712
    23  H    0.174573  -0.000767
    24  H    0.164421  -0.000797
    25  H    0.178778  -0.003918
    26  H    0.180874  -0.002385
    27  H    0.163045  -0.002443
    28  H    0.150010  -0.002981
 Sum of Mulliken charges =  -1.00000   1.00000

 Dipole moment (field-independent basis, Debye):
    X=              4.3376    Y=             -1.8706    Z=              1.4099  Tot=              4.9297
 Quadrupole moment (field-independent basis, Debye-Ang):
   XX=           -106.8344   YY=           -127.5468   ZZ=           -120.7859
   XY=              2.5958   XZ=             -1.4461   YZ=             12.4017

  Exact polarizability: 481.774  19.560 280.122   5.395-104.805 222.160
 Approx polarizability: 495.540  12.151 328.797  10.654-127.110 259.670

                      1                      2                      3
                      A                      A                      A
 Frequencies --     46.1280                70.6187               123.0812
 Red. masses --      5.7839                 4.1607                 3.9057
 Frc consts  --      0.0073                 0.0122                 0.0349
 IR Inten    --     11.7464                 0.3778                 3.4787

                      4                      5                      6
                      A                      A                      A
 Frequencies --    137.8588               148.1375               157.1611
 Red. masses --      5.2848                 4.3737                 5.4886
 Frc consts  --      0.0592                 0.0565                 0.0799
 IR Inten    --     11.0289                 4.6040                 2.4634

                      7                      8                      9
                      A                      A                      A
 Frequencies --    196.8064               240.2506               246.2579
 Red. masses --      2.7957                 1.4673                 4.2895
 Frc consts  --      0.0638                 0.0499                 0.1533
 IR Inten    --      0.0578                 0.6621                12.9023

                     10                     11                     12
                      A                      A                      A
 Frequencies --    295.1633               316.7235               351.9228
 Red. masses --      7.0134                 4.8363                 6.7799
 Frc consts  --      0.3600                 0.2858                 0.4947
 IR Inten    --      0.8419                 0.7355                 1.6726

                     13                     14                     15
                      A                      A                      A
 Frequencies --    377.1602               419.0607               430.2528
 Red. masses --     10.9630                 3.7903                 7.0406
 Frc consts  --      0.9188                 0.3922                 0.7679
 IR Inten    --     22.0167                 1.8217                 8.9917

                     16                     17                     18
                      A                      A                      A
 Frequencies --    446.4011               465.4931               474.1552
 Red. masses --      4.9701                 3.0448                 5.9482
 Frc consts  --      0.5835                 0.3887                 0.7879
 IR Inten    --      1.3159                 0.0471                 0.8073

                     19                     20                     21
                      A                      A                      A
 Frequencies --    499.0909               554.3979               572.2506
 Red. masses --      6.9251                 4.3775                 6.5259
 Frc consts  --      1.0163                 0.7927                 1.2591
 IR Inten    --      0.6089                 8.9320                46.3097

                     22                     23                     24
                      A                      A                      A
 Frequencies --    640.5185               656.8332               673.4932
 Red. masses --      6.9564                 3.4223                 6.2732
 Frc consts  --      1.6815                 0.8699                 1.6765
 IR Inten    --     13.9037                20.7697                 9.5841

                     25                     26                     27
                      A                      A                      A
 Frequencies --    700.6086               708.2186               728.0384
 Red. masses --      6.3797                 2.7537                 4.2099
 Frc consts  --      1.8450                 0.8138                 1.3147
 IR Inten    --      4.5437               106.4035                 2.2833

                     28                     29                     30
                      A                      A                      A
 Frequencies --    747.2823               786.5525               792.9454
 Red. masses --      6.5173                 1.8190                 3.1607
 Frc consts  --      2.1443                 0.6630                 1.1709
 IR Inten    --     39.0365                26.7963                 0.2525

                     31                     32                     33
                      A                      A                      A
 Frequencies --    833.7956               854.5087               882.0772
 Red. masses --      1.7212                 6.3288                 1.4656
 Frc consts  --      0.7050                 2.7227                 0.6719
 IR Inten    --     41.4590                48.3543                27.1149

                     34                     35                     36
                      A                      A                      A
 Frequencies --    884.8228               932.5546               986.2691
 Red. masses --      1.5307                 6.8147                 1.3163
 Frc consts  --      0.7061                 3.4918                 0.7544
 IR Inten    --     14.9839                43.1027                 0.0075

                     37                     38                     39
                      A                      A                      A
 Frequencies --    988.9648               989.3083              1000.2810
 Red. masses --      1.3712                 3.8478                 1.2848
 Frc consts  --      0.7902                 2.2188                 0.7574
 IR Inten    --      4.2739                 2.3274                 0.0281

                     40                     41                     42
                      A                      A                      A
 Frequencies --   1036.1940              1039.8394              1105.2193
 Red. masses --      2.2903                 3.1130                 2.4335
 Frc consts  --      1.4488                 1.9832                 1.7514
 IR Inten    --     24.3703                94.5754                38.0391

                     43                     44                     45
                      A                      A                      A
 Frequencies --   1112.4483              1149.0738              1154.7903
 Red. masses --      1.8358                 1.4284                 1.6524
 Frc consts  --      1.3386                 1.1112                 1.2983
 IR Inten    --     24.4420                69.0095                48.3479

                     46                     47                     48
                      A                      A                      A
 Frequencies --   1167.0481              1192.6313              1203.0522
 Red. masses --      1.2750                 2.2676                 1.5837
 Frc consts  --      1.0232                 1.9003                 1.3505
 IR Inten    --      1.1467                 4.6384                21.7969

                     49                     50                     51
                      A                      A                      A
 Frequencies --   1216.1513              1229.7268              1241.9327
 Red. masses --      1.6766                 2.2928                 4.4826
 Frc consts  --      1.4611                 2.0428                 4.0736
 IR Inten    --     51.1278               289.1577               334.9448

                     52                     53                     54
                      A                      A                      A
 Frequencies --   1268.1506              1334.0899              1357.1098
 Red. masses --      2.3121                 2.4325                10.4325
 Frc consts  --      2.1908                 2.5508                11.3206
 IR Inten    --    129.2471               113.3588                10.9737

                     55                     56                     57
                      A                      A                      A
 Frequencies --   1374.8491              1412.5928              1458.0049
 Red. masses --      7.0049                 3.3519                 1.9800
 Frc consts  --      7.8012                 3.9407                 2.4799
 IR Inten    --     14.4386              1207.5796               301.8021

                     58                     59                     60
                      A                      A                      A
 Frequencies --   1468.9563              1472.1690              1481.9487
 Red. masses --      2.2054                 2.3341                 1.0446
 Frc consts  --      2.8038                 2.9804                 1.3516
 IR Inten    --    235.0875                16.9405                13.6860

                     61                     62                     63
                      A                      A                      A
 Frequencies --   1495.1539              1497.8323              1504.0588
 Red. masses --      3.0216                 1.0969                 3.7209
 Frc consts  --      3.9798                 1.4499                 4.9594
 IR Inten    --    144.0335                61.7564               994.4360

                     64                     65                     66
                      A                      A                      A
 Frequencies --   1523.5251              1559.1110              1607.1071
 Red. masses --      5.3470                 5.9740                 8.5797
 Frc consts  --      7.3125                 8.5560                13.0560
 IR Inten    --     12.8482               103.5131                15.6385

                     67                     68                     69
                      A                      A                      A
 Frequencies --   1620.0589              1631.9297              3015.6200
 Red. masses --      5.6506                 6.4201                 1.0331
 Frc consts  --      8.7379                10.0738                 5.5353
 IR Inten    --    188.7878               159.3816                74.6907

                     70                     71                     72
                      A                      A                      A
 Frequencies --   3077.9451              3138.6044              3158.0924
 Red. masses --      1.1066                 1.1010                 1.0859
 Frc consts  --      6.1771                 6.3903                 6.3809
 IR Inten    --     52.3678                33.7579                13.0358

                     73                     74                     75
                      A                      A                      A
 Frequencies --   3172.0102              3175.7869              3187.5241
 Red. masses --      1.0900                 1.0875                 1.0919
 Frc consts  --      6.4617                 6.4623                 6.5363
 IR Inten    --     20.2337                 4.4333                17.1361

                     76                     77                     78
                      A                      A                      A
 Frequencies --   3191.0177              3192.7817              3216.4763
 Red. masses --      1.0947                 1.0941                 1.0889
 Frc consts  --      6.5677                 6.5712                 6.6376
 IR Inten    --     57.2917                17.1213                14.9901

 - Thermochemistry -
 -------------------
 Temperature   298.150 Kelvin.  Pressure   1.00000 Atm.
 Atom     1 has atomic number  6 and mass  12.00000

 Molecular mass:   238.06299 amu.
 Principal axes and moments of inertia in atomic units:
                           1         2         3
     Eigenvalues --  1917.281086559.596398465.38561
           X            0.99721  -0.05763  -0.04744
           Y            0.07460   0.79123   0.60695
           Z            0.00256  -0.60880   0.79332
 This molecule is an asymmetric top.
 Rotational symmetry number  1.
 Warning -- assumption of classical behavior for rotation
           may cause significant error
 Rotational temperatures (Kelvin)      0.04518     0.01320     0.01023
 Rotational constants (GHZ):           0.94130     0.27513     0.21319
 Zero-point vibrational energy     549062.4 (Joules/Mol)
                                  131.22906 (Kcal/Mol)
 Warning -- explicit consideration of  21 degrees of freedom as
           vibrations may cause significant error
 Vibrational temperatures:     66.37   101.60   177.09   198.35   213.14
          (Kelvin)            226.12   283.16   345.67   354.31   424.67
                              455.69   506.34   542.65   602.93   619.04
                              642.27   669.74   682.20   718.08   797.65
                              823.34   921.56   945.04   969.01  1008.02
                             1018.97  1047.48  1075.17  1131.67  1140.87
                             1199.65  1229.45  1269.11  1273.06  1341.74
                             1419.02  1422.90  1423.39  1439.18  1490.85
                             1496.10  1590.16  1600.57  1653.26  1661.49
                             1679.12  1715.93  1730.92  1749.77  1769.30
                             1786.86  1824.59  1919.46  1952.58  1978.10
                             2032.41  2097.74  2113.50  2118.12  2132.19
                             2151.19  2155.05  2164.01  2192.01  2243.21
                             2312.27  2330.90  2347.98  4338.80  4428.48
                             4515.75  4543.79  4563.82  4569.25  4586.14
                             4591.16  4593.70  4627.79

 Zero-point correction=                           0.209127 (Hartree/Particle)
 Thermal correction to Energy=                    0.223000
 Thermal correction to Enthalpy=                  0.223944
 Thermal correction to Gibbs Free Energy=         0.167835
 Sum of electronic and zero-point Energies=           -803.445320
 Sum of electronic and thermal Energies=              -803.431446
 Sum of electronic and thermal Enthalpies=            -803.430502
 Sum of electronic and thermal Free Energies=         -803.486612

                     E (Thermal)             CV                S
                      KCal/Mol        Cal/Mol-Kelvin    Cal/Mol-Kelvin
 Total                  139.935             55.488            118.093
 Electronic               0.000              0.000              1.377
 Translational            0.889              2.981             42.303
 Rotational               0.889              2.981             33.032
 Vibrational            138.157             49.526             41.381
 Vibration     1          0.595              1.979              4.977
 Vibration     2          0.598              1.968              4.136
 Vibration     3          0.610              1.930              3.051
 Vibration     4          0.614              1.916              2.833
 Vibration     5          0.618              1.905              2.696
 Vibration     6          0.621              1.895              2.584
 Vibration     7          0.636              1.844              2.163
 Vibration     8          0.657              1.779              1.801
 Vibration     9          0.661              1.769              1.757
 Vibration    10          0.689              1.683              1.444
 Vibration    11          0.704              1.642              1.327
 Vibration    12          0.728              1.571              1.158
 Vibration    13          0.748              1.519              1.051
 Vibration    14          0.782              1.429              0.895
 Vibration    15          0.791              1.404              0.858
 Vibration    16          0.806              1.369              0.807
 Vibration    17          0.823              1.327              0.750
 Vibration    18          0.831              1.307              0.726
 Vibration    19          0.855              1.252              0.660
 Vibration    20          0.910              1.130              0.535
 Vibration    21          0.928              1.091              0.500

 Optimization completed.
    -- Stationary point found.
 Normal termination of Gaussian 16 at Sat Feb 10 17:40:43 2024.
