 Q-Chem 5.4, Q-Chem, Inc., Pleasanton, CA (2021)
 Q-Chem 5.4.0 for Intel X86 EM64T Linux

User input:
--------------------------------------------------------------
$molecule
-1 2
C                 -1.2379970000      2.7334090000     -0.5181290000
C                 -2.5151820000      2.2073740000     -0.4572760000
C                 -2.7162120000      0.8929190000      0.0114110000
C                 -0.1166310000      1.9757660000     -0.1168420000
C                 -0.3221120000      0.6504120000      0.3562260000
C                 -1.6300260000      0.1335400000      0.4097690000
C                  1.2195640000      2.5789500000     -0.2015630000
C                  2.3107180000      1.7220200000      0.2353380000
C                  2.1099930000      0.4334290000      0.6917260000
C                  0.8147610000     -0.1810640000      0.7862250000
O                  1.4028510000      3.7514500000     -0.6195010000
O                  0.6585650000     -1.3582720000      1.2073510000
H                 -1.0570530000      3.7410340000     -0.8748540000
H                 -1.7493620000     -0.8804420000      0.7752090000
O                  3.5399880000      2.3312850000      0.1606080000
H                 -3.3651680000      2.8069910000     -0.7709440000
H                 -3.7196180000      0.4797370000      0.0592070000
H                  2.9354080000     -0.1933450000      1.0063200000
C                  4.7289380000      1.6097160000      0.4765090000
C                  5.7815690000      2.6666050000      0.7977900000
C                  5.1503590000      0.7093190000     -0.6877900000
H                  4.5598200000      0.9983400000      1.3716560000
H                  6.7341510000      2.1944430000      1.0582190000
H                  5.4541460000      3.2858520000      1.6357710000
H                  5.9367060000      3.3185160000     -0.0663720000
H                  6.0548150000      0.1474020000     -0.4313240000
H                  5.3569340000      1.3192900000     -1.5722390000
H                  4.3622820000     -0.0023630000     -0.9381520000
$end

$rem
BASIS  =  6-311++G(d,p)
GUI  =  2
JOB_TYPE  =  SP
METHOD  =  B3LYP
SCF_CONVERGENCE  = 8
SOLVENT_METHOD = sm12
$end

$smx
solvent dimethylformamide
charges CM5
$end

--------------------------------------------------------------

             Standard Nuclear Orientation (Angstroms)
    I     Atom           X                Y                Z
 ----------------------------------------------------------------
    1      C      -1.2379970000     2.7334090000    -0.5181290000
    2      C      -2.5151820000     2.2073740000    -0.4572760000
    3      C      -2.7162120000     0.8929190000     0.0114110000
    4      C      -0.1166310000     1.9757660000    -0.1168420000
    5      C      -0.3221120000     0.6504120000     0.3562260000
    6      C      -1.6300260000     0.1335400000     0.4097690000
    7      C       1.2195640000     2.5789500000    -0.2015630000
    8      C       2.3107180000     1.7220200000     0.2353380000
    9      C       2.1099930000     0.4334290000     0.6917260000
   10      C       0.8147610000    -0.1810640000     0.7862250000
   11      O       1.4028510000     3.7514500000    -0.6195010000
   12      O       0.6585650000    -1.3582720000     1.2073510000
   13      H      -1.0570530000     3.7410340000    -0.8748540000
   14      H      -1.7493620000    -0.8804420000     0.7752090000
   15      O       3.5399880000     2.3312850000     0.1606080000
   16      H      -3.3651680000     2.8069910000    -0.7709440000
   17      H      -3.7196180000     0.4797370000     0.0592070000
   18      H       2.9354080000    -0.1933450000     1.0063200000
   19      C       4.7289380000     1.6097160000     0.4765090000
   20      C       5.7815690000     2.6666050000     0.7977900000
   21      C       5.1503590000     0.7093190000    -0.6877900000
   22      H       4.5598200000     0.9983400000     1.3716560000
   23      H       6.7341510000     2.1944430000     1.0582190000
   24      H       5.4541460000     3.2858520000     1.6357710000
   25      H       5.9367060000     3.3185160000    -0.0663720000
   26      H       6.0548150000     0.1474020000    -0.4313240000
   27      H       5.3569340000     1.3192900000    -1.5722390000
   28      H       4.3622820000    -0.0023630000    -0.9381520000
 ----------------------------------------------------------------

   17    -728.5369080054      4.52e-09  Convergence criterion met
 Total energy in the final basis set =     -728.6263282457

                    Orbital Energies (a.u.)
 --------------------------------------------------------------

 Alpha MOs
 -- Occupied --
-19.1468 -19.0743 -19.0717 -10.2308 -10.2306 -10.2241 -10.2206 -10.1827
-10.1816 -10.1793 -10.1789 -10.1780 -10.1773 -10.1622 -10.1610 -10.1606
 -1.0635  -0.9964  -0.9947  -0.8636  -0.8134  -0.7844  -0.7571  -0.7401
 -0.6938  -0.6805  -0.6316  -0.6254  -0.5810  -0.5681  -0.5277  -0.5172
 -0.4967  -0.4677  -0.4624  -0.4484  -0.4413  -0.4319  -0.4213  -0.4130
 -0.4058  -0.3998  -0.3936  -0.3887  -0.3813  -0.3727  -0.3664  -0.3571
 -0.3552  -0.3457  -0.3248  -0.3191  -0.2688  -0.2638  -0.2418  -0.2386
 -0.2360  -0.1489

 Beta MOs
 -- Occupied --
-19.1459 -19.0671 -19.0660 -10.2306 -10.2291 -10.2230 -10.2189 -10.1825
-10.1809 -10.1792 -10.1787 -10.1778 -10.1763 -10.1622 -10.1610 -10.1601
 -1.0615  -0.9862  -0.9828  -0.8615  -0.8098  -0.7827  -0.7553  -0.7383
 -0.6936  -0.6725  -0.6293  -0.6239  -0.5790  -0.5659  -0.5263  -0.5154
 -0.4943  -0.4656  -0.4608  -0.4463  -0.4394  -0.4312  -0.4149  -0.4067
 -0.4013  -0.3956  -0.3925  -0.3876  -0.3761  -0.3673  -0.3561  -0.3500
 -0.3491  -0.3442  -0.3215  -0.3099  -0.2571  -0.2488  -0.2357  -0.2302
 -0.2274

          Ground-State Mulliken Net Atomic Charges

     Atom                 Charge (a.u.)    Spin (a.u.)
  --------------------------------------------------------
      1 C                    -0.136887       0.061947
      2 C                     0.786049       0.012431
      3 C                     0.795727       0.055991
      4 C                    -1.014644       0.012905
      5 C                    -0.971929       0.070589
      6 C                    -0.050972       0.004307
      7 C                    -1.051257       0.091575
      8 C                    -0.050656       0.137754
      9 C                     0.147354       0.011514
     10 C                    -1.277770       0.050941
     11 O                    -0.370602       0.277850
     12 O                    -0.369969       0.204956
     13 H                     0.136742      -0.003643
     14 H                     0.132804      -0.000823
     15 O                     0.016629       0.017446
     16 H                     0.356492      -0.001533
     17 H                     0.358669      -0.003970
     18 H                     0.193098      -0.005867
     19 C                     0.143167       0.003775
     20 C                     0.149049       0.000709
     21 C                    -0.127455       0.000678
     22 H                     0.130850       0.000112
     23 H                     0.279038      -0.000018
     24 H                     0.135527       0.000104
     25 H                     0.137545       0.000021
     26 H                     0.270869       0.001143
     27 H                     0.115674       0.000020
     28 H                     0.136858      -0.000916
  --------------------------------------------------------
  Sum of atomic charges =    -1.000000

                    Cartesian Multipole Moments
 -----------------------------------------------------------------
    Charge (ESU x 10^10)
                -4.8032
    Dipole Moment (Debye)
         X      -2.5204      Y      -6.3849      Z      -1.0398
       Tot       6.9426
    Quadrupole Moments (Debye-Ang)
        XX     -94.4865     XY     -10.0778     YY    -139.4022
        XZ       2.4785     YZ       9.0937     ZZ    -104.5911

 Total job time:  627.45s(wall), 4874.71s(cpu)
        *  Thank you very much for using Q-Chem.  Have a nice day.  *
