 Q-Chem 5.4, Q-Chem, Inc., Pleasanton, CA (2021)
 Q-Chem 5.4.0 for Intel X86 EM64T Linux

User input:
--------------------------------------------------------------
$molecule
0 1
C                 -4.4041840000     -0.3459880000      0.1959550000
C                 -2.9267290000     -0.6319200000      0.2406410000
C                 -2.4538140000     -1.9187660000      0.4308180000
C                 -1.0875500000     -2.2069810000      0.4788550000
C                 -0.1645370000     -1.1845970000      0.3316340000
C                  1.2835460000     -1.5447870000      0.3893280000
O                  1.6462460000     -2.6983560000      0.5634850000
C                  2.2723930000     -0.4452790000      0.2260120000
C                  3.6393880000     -0.7373630000      0.2731400000
C                  4.5749680000      0.2781940000      0.1214010000
C                  4.1504600000      1.5951400000     -0.0790200000
C                  2.7938930000      1.8926090000     -0.1269320000
C                  1.8445610000      0.8761590000      0.0250700000
C                  0.3941080000      1.2293190000     -0.0300110000
O                  0.0738920000      2.4101050000     -0.2106460000
C                 -0.5926740000      0.1546560000      0.1325500000
C                 -1.9919120000      0.4351160000      0.0882760000
N                 -2.4526780000      1.7012490000     -0.0881320000
H                 -4.7046740000      0.0925630000     -0.7634220000
H                 -4.7055510000      0.3537170000      0.9846380000
H                 -4.9798520000     -1.2621390000      0.3313740000
H                 -3.1705100000     -2.7255050000      0.5466080000
H                 -0.7300770000     -3.2169420000      0.6291490000
H                  3.9414050000     -1.7655800000      0.4293140000
H                  5.6340100000      0.0491710000      0.1583690000
H                  4.8809890000      2.3875220000     -0.1974330000
H                  2.4449990000      2.9057780000     -0.2808910000
H                 -3.4369510000      1.8820540000     -0.1669430000
H                 -1.7731650000      2.4408500000     -0.2217580000
$end

$rem
BASIS  =  6-311++G(d,p)
GUI  =  2
JOB_TYPE  =  SP
METHOD  =  B3LYP
SCF_CONVERGENCE  = 8
SOLVENT_METHOD = sm12
$end

$smx
solvent dimethylformamide
charges CM5
$end

--------------------------------------------------------------

             Standard Nuclear Orientation (Angstroms)
    I     Atom           X                Y                Z
 ----------------------------------------------------------------
    1      C      -4.4041840000    -0.3459880000     0.1959550000
    2      C      -2.9267290000    -0.6319200000     0.2406410000
    3      C      -2.4538140000    -1.9187660000     0.4308180000
    4      C      -1.0875500000    -2.2069810000     0.4788550000
    5      C      -0.1645370000    -1.1845970000     0.3316340000
    6      C       1.2835460000    -1.5447870000     0.3893280000
    7      O       1.6462460000    -2.6983560000     0.5634850000
    8      C       2.2723930000    -0.4452790000     0.2260120000
    9      C       3.6393880000    -0.7373630000     0.2731400000
   10      C       4.5749680000     0.2781940000     0.1214010000
   11      C       4.1504600000     1.5951400000    -0.0790200000
   12      C       2.7938930000     1.8926090000    -0.1269320000
   13      C       1.8445610000     0.8761590000     0.0250700000
   14      C       0.3941080000     1.2293190000    -0.0300110000
   15      O       0.0738920000     2.4101050000    -0.2106460000
   16      C      -0.5926740000     0.1546560000     0.1325500000
   17      C      -1.9919120000     0.4351160000     0.0882760000
   18      N      -2.4526780000     1.7012490000    -0.0881320000
   19      H      -4.7046740000     0.0925630000    -0.7634220000
   20      H      -4.7055510000     0.3537170000     0.9846380000
   21      H      -4.9798520000    -1.2621390000     0.3313740000
   22      H      -3.1705100000    -2.7255050000     0.5466080000
   23      H      -0.7300770000    -3.2169420000     0.6291490000
   24      H       3.9414050000    -1.7655800000     0.4293140000
   25      H       5.6340100000     0.0491710000     0.1583690000
   26      H       4.8809890000     2.3875220000    -0.1974330000
   27      H       2.4449990000     2.9057780000    -0.2808910000
   28      H      -3.4369510000     1.8820540000    -0.1669430000
   29      H      -1.7731650000     2.4408500000    -0.2217580000
 ----------------------------------------------------------------

   15    -783.6637810252      4.63e-09  Convergence criterion met
 Total energy in the final basis set =     -783.6875643803

                    Orbital Energies (a.u.)
 --------------------------------------------------------------

 Alpha MOs
 -- Occupied --
-19.1217 -19.1209 -14.3325 -10.2750 -10.2741 -10.2443 -10.2048 -10.2031
-10.2004 -10.1998 -10.1985 -10.1953 -10.1946 -10.1940 -10.1931 -10.1910
-10.1834 -10.1734  -1.0564  -1.0546  -0.9435  -0.8863  -0.8647  -0.8141
 -0.7794  -0.7744  -0.7556  -0.7140  -0.6785  -0.6563  -0.6358  -0.6085
 -0.5866  -0.5722  -0.5460  -0.5255  -0.5057  -0.4982  -0.4735  -0.4688
 -0.4661  -0.4542  -0.4484  -0.4473  -0.4378  -0.4310  -0.4257  -0.4126
 -0.3976  -0.3873  -0.3870  -0.3757  -0.3683  -0.3643  -0.3625  -0.3316
 -0.2838  -0.2810  -0.2749  -0.2684  -0.2683  -0.2227

          Ground-State Mulliken Net Atomic Charges

     Atom                 Charge (a.u.)
  ----------------------------------------
      1 C                     1.084994
      2 C                     1.663356
      3 C                    -0.817162
      4 C                    -0.508581
      5 C                    -0.181461
      6 C                    -1.938725
      7 O                    -0.268721
      8 C                    -0.781204
      9 C                     0.061752
     10 C                     0.409186
     11 C                     0.316361
     12 C                     0.267017
     13 C                    -0.420080
     14 C                    -1.127807
     15 O                    -0.271513
     16 C                    -0.455629
     17 C                     0.350134
     18 N                    -0.279070
     19 H                     0.244082
     20 H                     0.240480
     21 H                     0.261720
     22 H                     0.214618
     23 H                     0.169269
     24 H                     0.181994
     25 H                     0.324233
     26 H                     0.327500
     27 H                     0.199134
     28 H                     0.423277
     29 H                     0.310845
  ----------------------------------------
  Sum of atomic charges =     0.000000

                    Cartesian Multipole Moments
 -----------------------------------------------------------------
    Charge (ESU x 10^10)
                 0.0000
    Dipole Moment (Debye)
         X      -3.1979      Y       1.8685      Z      -0.3862
       Tot       3.7239
    Quadrupole Moments (Debye-Ang)
        XX     -68.8736     XY       6.8739     YY    -110.5219
        XZ      -1.1077     YZ       0.4260     ZZ    -108.4291

 Total job time:  654.16s(wall), 5120.93s(cpu)
        *  Thank you very much for using Q-Chem.  Have a nice day.  *
