 Q-Chem 5.4, Q-Chem, Inc., Pleasanton, CA (2021)
 Q-Chem 5.4.0 for Intel X86 EM64T Linux

User input:
--------------------------------------------------------------
$molecule
-1 2
Cl                 2.3031190000     -2.0477020000      0.0546730000
C                  0.9916690000     -0.8788530000      0.0234670000
C                  1.2367110000      0.4748710000      0.0011460000
Cl                 2.8758220000      1.1100470000      0.0026340000
C                  0.1646800000      1.4695600000     -0.0250650000
O                  0.3757770000      2.7056720000     -0.0455630000
C                 -1.1683750000      0.9048560000     -0.0253230000
C                 -1.4117590000     -0.4372850000     -0.0031880000
C                 -0.3620430000     -1.4337450000      0.0228130000
O                 -0.5982500000     -2.6652950000      0.0430570000
H                 -1.9817670000      1.6236780000     -0.0445240000
H                 -2.4255850000     -0.8258040000     -0.0041270000
$end

$rem
BASIS  =  6-311++G(d,p)
GUI  =  2
JOB_TYPE  =  SP
METHOD  =  B3LYP
SCF_CONVERGENCE  = 8
SOLVENT_METHOD = sm12
$end

$smx
solvent dimethylformamide
charges CM5
$end

--------------------------------------------------------------

             Standard Nuclear Orientation (Angstroms)
    I     Atom           X                Y                Z
 ----------------------------------------------------------------
    1      Cl      2.3031190000    -2.0477020000     0.0546730000
    2      C       0.9916690000    -0.8788530000     0.0234670000
    3      C       1.2367110000     0.4748710000     0.0011460000
    4      Cl      2.8758220000     1.1100470000     0.0026340000
    5      C       0.1646800000     1.4695600000    -0.0250650000
    6      O       0.3757770000     2.7056720000    -0.0455630000
    7      C      -1.1683750000     0.9048560000    -0.0253230000
    8      C      -1.4117590000    -0.4372850000    -0.0031880000
    9      C      -0.3620430000    -1.4337450000     0.0228130000
   10      O      -0.5982500000    -2.6652950000     0.0430570000
   11      H      -1.9817670000     1.6236780000    -0.0445240000
   12      H      -2.4255850000    -0.8258040000    -0.0041270000
 ----------------------------------------------------------------

   16   -1300.8935186102      3.00e-09  Convergence criterion met
 Total energy in the final basis set =    -1300.9716137940

                    Orbital Energies (a.u.)
 --------------------------------------------------------------

 Alpha MOs
 -- Occupied --
********-101.5528 -19.0865 -19.0865 -10.2376 -10.2376 -10.2370 -10.2364
-10.1801 -10.1794  -9.4669  -9.4668  -7.2315  -7.2313  -7.2222  -7.2221
 -7.2210  -7.2209  -1.0140  -1.0111  -0.8946  -0.8459  -0.8201  -0.7318
 -0.6922  -0.6025  -0.5834  -0.5015  -0.4810  -0.4568  -0.4355  -0.4352
 -0.4154  -0.3972  -0.3906  -0.3850  -0.3597  -0.3306  -0.3226  -0.3000
 -0.2904  -0.2543  -0.2529  -0.2499  -0.1727

 Beta MOs
 -- Occupied --
********-101.5528 -19.0791 -19.0791 -10.2367 -10.2367 -10.2357 -10.2352
-10.1790 -10.1783  -9.4668  -9.4667  -7.2316  -7.2314  -7.2220  -7.2219
 -7.2209  -7.2209  -1.0017  -0.9983  -0.8917  -0.8446  -0.8153  -0.7295
 -0.6820  -0.5983  -0.5795  -0.4994  -0.4769  -0.4540  -0.4346  -0.4207
 -0.4080  -0.3921  -0.3830  -0.3657  -0.3491  -0.3235  -0.3220  -0.2996
 -0.2602  -0.2459  -0.2448  -0.2430

          Ground-State Mulliken Net Atomic Charges

     Atom                 Charge (a.u.)    Spin (a.u.)
  --------------------------------------------------------
      1 Cl                    0.533976       0.006591
      2 C                     0.563838       0.063119
      3 C                     0.566817       0.062531
      4 Cl                    0.532555       0.006546
      5 C                    -1.598314       0.075311
      6 O                    -0.334097       0.266937
      7 C                     0.092315       0.095265
      8 C                     0.094854       0.095268
      9 C                    -1.593873       0.075330
     10 O                    -0.333506       0.266966
     11 H                     0.237806      -0.006933
     12 H                     0.237629      -0.006931
  --------------------------------------------------------
  Sum of atomic charges =    -1.000000

                    Cartesian Multipole Moments
 -----------------------------------------------------------------
    Charge (ESU x 10^10)
                -4.8032
    Dipole Moment (Debye)
         X      -2.8337      Y       0.5081      Z      -0.0314
       Tot       2.8791
    Quadrupole Moments (Debye-Ang)
        XX     -81.4813     XY      -5.4036     YY    -110.2306
        XZ       0.0402     YZ       0.6009     ZZ     -74.3472

 Total job time:  148.51s(wall), 830.44s(cpu)
        *  Thank you very much for using Q-Chem.  Have a nice day.  *
