 Q-Chem 5.4, Q-Chem, Inc., Pleasanton, CA (2021)
 Q-Chem 5.4.0 for Intel X86 EM64T Linux

User input:
--------------------------------------------------------------
$molecule
0 1
C                 -0.02189300    4.08932500    0.78779100
C                 -1.14428500    4.05893800   -0.03409000
C                 -1.11085400    3.34717000   -1.23463800
C                  1.13465200    3.40526800    0.40578100
C                  1.17144000    2.68848200   -0.80150500
C                  0.04219300    2.66460100   -1.61805900
C                  2.33213900    3.42771000    1.26523100
C                  3.53874500    2.67666900    0.81337000
C                  3.60169200    1.98623600   -0.35178100
C                  2.40963400    1.94910000   -1.22478100
O                  2.39971800    4.02677100    2.33274400
O                  2.42300400    1.33059000   -2.28001900
O                  4.57478800    2.74796200    1.66497300
C                  4.82819200    1.22869300   -0.77635400
C                  4.80106500   -0.24974000   -0.33242200
C                  6.04699800   -1.02034500   -0.78083900
C                  6.04010400   -2.49037400   -0.34660800
C                  7.28235800   -3.26739100   -0.79709700
C                  7.27606400   -4.73799900   -0.36471400
C                  8.51488600   -5.51627100   -0.82159500
C                  8.50811500   -6.98704500   -0.38891000
C                  9.74839000   -7.75804600   -0.85486200
C                  9.72764700   -9.21378300   -0.41557800
H                 -0.02341700    4.63483900    1.72352100
H                 -2.04378400    4.58798700    0.25865200
H                 -1.98639400    3.32469700   -1.87357800
H                  0.08519200    2.10804500   -2.54601100
H                  4.27728900    3.31003600    2.40558100
H                  5.71274300    1.71531600   -0.35754800
H                  4.90017200    1.26935200   -1.86605100
H                  3.90626800   -0.72878700   -0.74368700
H                  4.71376400   -0.29534400    0.75906400
H                  6.94213300   -0.52793500   -0.37948600
H                  6.13115000   -0.96533400   -1.87357400
H                  5.14270300   -2.98047400   -0.74547400
H                  5.95600000   -2.54454800    0.74651400
H                  8.18015200   -2.77709800   -0.39899400
H                  7.36600900   -3.21238600   -1.89015000
H                  6.37595400   -5.22680500   -0.75953200
H                  7.19658100   -4.79325100    0.72877400
H                  9.41551800   -5.02843200   -0.42760500
H                  8.59376300   -5.46228000   -1.91483500
H                  7.60549700   -7.47311000   -0.78105300
H                  8.43260200   -7.03988600    0.70485000
H                 10.65440500   -7.28571600   -0.46047500
H                  9.82409700   -7.72252800   -1.94686600
H                  8.84632800   -9.72786300   -0.82117000
H                  9.68992500   -9.28698000    0.67927500
O                 10.91651800   -9.83788600   -0.90079700
C                 11.12769300  -11.16102700   -0.63075700
C                 10.25746200  -11.97338100    0.10153800
C                 12.30931300  -11.71076800   -1.13767600
C                 10.57918100  -13.31478700    0.31705500
H                  9.33501200  -11.57940800    0.50677200
C                 12.60785500  -13.04842100   -0.91361400
H                 12.97854800  -11.07353700   -1.70369400
C                 11.75308200  -13.88391600   -0.18170100
H                  9.88594400  -13.92164100    0.89050000
H                 13.52974800  -13.45526500   -1.31798000
C                 12.09788600  -15.34473400    0.04525700
C                 12.33972700  -15.67570900    1.54585600
H                 11.65416600  -15.08840300    2.16404000
H                 13.34874500  -15.34748300    1.81657800
C                 12.16413400  -17.17812200    1.86709300
H                 11.12413700  -17.37907500    2.15048600
H                 12.77226200  -17.44701400    2.73603000
C                 12.52438500  -18.05303900    0.66113700
H                 12.49033400  -19.11331700    0.92864700
H                 13.56074800  -17.84654600    0.36905500
C                 11.57475700  -17.77400500   -0.52760600
H                 10.72148200  -18.45918000   -0.48878900
H                 12.09573100  -17.98767400   -1.46667500
C                 11.05366400  -16.31757900   -0.54112100
H                 10.79264900  -16.01912000   -1.56014900
H                 10.12992700  -16.24440300    0.04416700
H                 13.03601900  -15.52974400   -0.49164300
$end
$rem
MAX_SCF_CYCLES=200
BASIS  =  6-311++G(d,p)
GUI  =  2
JOB_TYPE  =  SP
THRESH = 14
SCF_CONVERGENCE  = 6
METHOD  =  B3LYP
SOLVENT_METHOD = COSMO
$end
$solvent
dielectric 37.219
opticaldielectric 1.43
$end

--------------------------------------------------------------

             Standard Nuclear Orientation (Angstroms)
    I     Atom           X                Y                Z
 ----------------------------------------------------------------
    1      C      11.6739444344     1.4318072324     1.0825271695
    2      C      12.2012542170     2.4496520539     0.2937864882
    3      C      11.5724672621     2.8028960377    -0.9015764153
    4      C      10.5151840997     0.7679801918     0.6725636306
    5      C       9.8804280628     1.1209415517    -0.5295919603
    6      C      10.4167232596     2.1414351164    -1.3128606693
    7      C       9.9440122717    -0.3125867439     1.4967425561
    8      C       8.7028638993    -0.9853509568     1.0160368065
    9      C       8.0780325678    -0.6692990376    -0.1449687476
   10      C       8.6338287319     0.4140993042    -0.9827330430
   11      O      10.4260967658    -0.6950515786     2.5570916490
   12      O       8.0951685100     0.7350879083    -2.0330054339
   13      O       8.2531869899    -1.9487063489     1.8366661535
   14      C       6.8213006821    -1.3570383527    -0.5989241212
   15      C       5.5410139533    -0.6246822509    -0.1427486477
   16      C       4.2635699912    -1.3223024074    -0.6209974882
   17      C       2.9808123295    -0.6114148288    -0.1751713098
   18      C       1.6995831348    -1.3026356845    -0.6553340292
   19      C       0.4160407145    -0.5919350147    -0.2113678412
   20      C      -0.8645621104    -1.2793632867    -0.6978103123
   21      C      -2.1480187713    -0.5681743067    -0.2535271269
   22      C      -3.4229191360    -1.2601546814    -0.7491359496
   23      C      -4.6864802918    -0.5443099095    -0.2979703639
   24      H      12.1439838894     1.1395979891     2.0135777313
   25      H      13.0999123216     2.9675201671     0.6082946795
   26      H      11.9848621553     3.5962179515    -1.5146754644
   27      H       9.9167458110     2.4026287791    -2.2372517287
   28      H       8.8835671997    -1.9851336803     2.5811303143
   29      H       6.8111939300    -2.3783591585    -0.2097807715
   30      H       6.8295716873    -1.4079147582    -1.6905362356
   31      H       5.5626790664     0.4016584646    -0.5241171808
   32      H       5.5358926081    -0.5580798239     0.9511346944
   33      H       4.2534744869    -2.3551716412    -0.2496516473
   34      H       4.2784474396    -1.3907131742    -1.7161121753
   35      H       2.9940118760     0.4222310296    -0.5439838127
   36      H       2.9666391298    -0.5434657549     0.9203222117
   37      H       1.6863657456    -2.3366963239    -0.2872970941
   38      H       1.7147022035    -1.3705972337    -1.7507520052
   39      H       0.4316624788     0.4433243183    -0.5760658597
   40      H       0.3986684522    -0.5275013191     0.8843660865
   41      H      -0.8812766008    -2.3145818308    -0.3339474243
   42      H      -0.8479963897    -1.3426600965    -1.7932688454
   43      H      -2.1288000526     0.4678568947    -0.6155002769
   44      H      -2.1652266284    -0.5083883832     0.8423446060
   45      H      -3.4557995006    -2.2925103510    -0.3849099646
   46      H      -3.4209373698    -1.3117055587    -1.8431215042
   47      H      -4.7020102452     0.4872084349    -0.6737828469
   48      H      -4.7399081234    -0.5075849842     0.7980591013
   49      O      -5.8079444565    -1.2625908596    -0.8125059713
   50      C      -7.0677550483    -0.8088361693    -0.5382751527
   51      C      -7.3572862672     0.3254373486     0.2253165192
   52      C      -8.1206227956    -1.5564561596    -1.0748771663
   53      C      -8.6865994933     0.6932689519     0.4419891008
   54      H      -6.5661305431     0.9259784841     0.6539962210
   55      C      -9.4354096650    -1.1704881939    -0.8490213020
   56      H      -7.8870294654    -2.4347686742    -1.6650606053
   57      C      -9.7526796746    -0.0383922820    -0.0860770029
   58      H      -8.8820195730     1.5774747420     1.0400523054
   59      H     -10.2375329723    -1.7642863527    -1.2767157633
   60      C     -11.1975609104     0.3672545195     0.1423039248
   61      C     -11.6153722664     0.2741151689     1.6378264459
   62      H     -10.7726621899     0.5674455438     2.2709699513
   63      H     -11.8233977147    -0.7741478735     1.8765941980
   64      C     -12.8432272567     1.1512583881     1.9758542998
   65      H     -12.5130306532     2.1482729298     2.2908458349
   66      H     -13.3810546529     0.7267133419     2.8288943210
   67      C     -13.7738887506     1.2992094194     0.7669001692
   68      H     -14.6845690429     1.8386431848     1.0436367336
   69      H     -14.0974133590     0.3029139326     0.4432851940
   70      C     -13.0581942156     2.0260141223    -0.3959839557
   71      H     -13.2399660391     3.1036305226    -0.3270516421
   72      H     -13.4921432270     1.7032301537    -1.3480436713
   73      C     -11.5326482131     1.7700671747    -0.4058742325
   74      H     -11.1373563273     1.8817685809    -1.4192309271
   75      H     -11.0221483029     2.5230662827     0.2053450410
   76      H     -11.8130424546    -0.3451256157    -0.4200845952
 ----------------------------------------------------------------

   11   -1544.8376759825      5.56e-07  Convergence criterion met
 Total energy in the final basis set =    -1544.8376759825
    6   -1544.8594039979      6.19e-07  Convergence criterion met
 Total energy in the final basis set =    -1544.8594039979

                    Orbital Energies (a.u.)
 --------------------------------------------------------------

 Alpha MOs
 -- Occupied --
-19.1782 -19.1551 -19.1501 -19.1303 -10.2941 -10.2817 -10.2672 -10.2357
-10.2216 -10.2104 -10.2092 -10.2035 -10.2003 -10.1981 -10.1966 -10.1963
-10.1751 -10.1751 -10.1746 -10.1741 -10.1740 -10.1717 -10.1714 -10.1660
-10.1656 -10.1633 -10.1599 -10.1592 -10.1590 -10.1588 -10.1582 -10.1581
-10.1578 -10.1576 -10.1575 -10.1571  -1.1085  -1.0701  -1.0677  -1.0642
 -0.8922  -0.8632  -0.8437  -0.8268  -0.8132  -0.8034  -0.7890  -0.7797
 -0.7737  -0.7609  -0.7523  -0.7394  -0.7329  -0.7173  -0.7022  -0.6865
 -0.6638  -0.6520  -0.6337  -0.6267  -0.6139  -0.6076  -0.6045  -0.5967
 -0.5834  -0.5798  -0.5743  -0.5733  -0.5722  -0.5425  -0.5381  -0.5237
 -0.5186  -0.4977  -0.4951  -0.4942  -0.4814  -0.4813  -0.4769  -0.4718
 -0.4689  -0.4686  -0.4629  -0.4519  -0.4498  -0.4493  -0.4367  -0.4334
 -0.4325  -0.4297  -0.4279  -0.4251  -0.4207  -0.4130  -0.4116  -0.4075
 -0.4028  -0.4012  -0.3917  -0.3899  -0.3825  -0.3789  -0.3768  -0.3752
 -0.3707  -0.3691  -0.3665  -0.3604  -0.3582  -0.3541  -0.3515  -0.3488
 -0.3446  -0.3433  -0.3329  -0.3294  -0.3285  -0.3229  -0.3211  -0.3192
 -0.3178  -0.3075  -0.3025  -0.3021  -0.2966  -0.2939  -0.2896  -0.2800
 -0.2799  -0.2605  -0.2563  -0.2230

          Ground-State Mulliken Net Atomic Charges

     Atom                 Charge (a.u.)
  ----------------------------------------
      1 C                     0.185045
      2 C                    -0.406375
      3 C                    -0.404274
      4 C                     0.316126
      5 C                    -0.010027
      6 C                     0.199521
      7 C                    -0.675994
      8 C                    -0.501403
      9 C                     1.728298
     10 C                    -0.763997
     11 O                    -0.331692
     12 O                    -0.295649
     13 O                    -0.236752
     14 C                    -0.300824
     15 C                    -0.624226
     16 C                    -0.207582
     17 C                    -0.180459
     18 C                    -0.252953
     19 C                    -0.408403
     20 C                    -0.243612
     21 C                    -0.163410
     22 C                    -0.332619
     23 C                    -0.674136
     24 H                     0.206391
     25 H                     0.229896
     26 H                     0.226490
     27 H                     0.202916
     28 H                     0.325407
     29 H                     0.236559
     30 H                     0.222614
     31 H                     0.182039
     32 H                     0.181854
     33 H                     0.122406
     34 H                     0.125325
     35 H                     0.132171
     36 H                     0.132233
     37 H                     0.139379
     38 H                     0.139496
     39 H                     0.136643
     40 H                     0.137026
     41 H                     0.132697
     42 H                     0.132266
     43 H                     0.126366
     44 H                     0.127970
     45 H                     0.170674
     46 H                     0.172034
     47 H                     0.203856
     48 H                     0.202635
     49 O                    -0.123516
     50 C                     0.198868
     51 C                    -0.146856
     52 C                    -0.338286
     53 C                    -0.414195
     54 H                     0.194885
     55 C                    -0.270286
     56 H                     0.211092
     57 C                     0.630740
     58 H                     0.226466
     59 H                     0.198383
     60 C                     0.380788
     61 C                    -0.559927
     62 H                     0.157321
     63 H                     0.169821
     64 C                    -0.460989
     65 H                     0.136270
     66 H                     0.175897
     67 C                    -0.286182
     68 H                     0.184017
     69 H                     0.140317
     70 C                    -0.511200
     71 H                     0.161856
     72 H                     0.151004
     73 C                    -0.488916
     74 H                     0.180636
     75 H                     0.146216
     76 H                     0.193836
  ----------------------------------------
  Sum of atomic charges =     0.000000

                    Cartesian Multipole Moments
 -----------------------------------------------------------------
    Charge (ESU x 10^10)
                -0.0000
    Dipole Moment (Debye)
         X       3.2204      Y       3.1477      Z       1.8193
       Tot       4.8569
    Quadrupole Moments (Debye-Ang)
        XX    -163.7467     XY      17.0282     YY    -212.6053
        XZ      -3.3710     YZ       1.9832     ZZ    -228.6854

 Total job time:  713.69s(wall), 5468.81s(cpu)
        *  Thank you very much for using Q-Chem.  Have a nice day.  *
