 Q-Chem 5.4, Q-Chem, Inc., Pleasanton, CA (2021)
 Q-Chem 5.4.0 for Intel X86 EM64T Linux

User input:
--------------------------------------------------------------
$molecule
0 1
C                  4.9913220000     -2.0561900000      0.4419460000
C                  5.7299600000     -1.3281400000     -0.4784040000
C                  5.1253070000     -0.5693550000     -1.4816910000
C                  3.5969970000     -2.0344500000      0.3548550000
C                  2.9700130000     -1.2793270000     -0.6513560000
C                  3.7394060000     -0.5491770000     -1.5624520000
C                  2.8053110000     -2.8227490000      1.3461160000
C                  1.3171410000     -2.7709550000      1.2301590000
C                  0.6849470000     -2.0179680000      0.2255670000
C                  1.4803110000     -1.2350870000     -0.7691790000
C                  0.5483460000     -3.4911220000      2.1479620000
C                 -0.7106670000     -1.9879110000      0.1452060000
C                 -1.4791730000     -2.7040190000      1.0531520000
O                  3.3504360000     -3.4825710000      2.2107690000
O                  0.9352100000     -0.5858180000     -1.6426860000
H                  5.4694570000     -2.6293370000      1.2261720000
S                  7.5220910000     -1.3539230000     -0.3734750000
H                 -2.5608690000     -2.6841530000      1.0122840000
H                  3.2333820000      0.0293110000     -2.3249630000
H                  1.0394910000     -4.0594250000      2.9276620000
H                 -1.1745480000     -1.3963550000     -0.6339010000
C                 -0.8335470000     -3.4485310000      2.0414290000
S                 -1.8268830000     -4.3728040000      3.2171710000
O                 -1.0971660000     -4.5294460000      4.4664520000
O                 -3.1829650000     -3.8425740000      3.2209970000
O                 -1.8129110000     -5.8007670000      2.4127310000
C                 -2.4590610000     -6.9143330000      3.0830670000
H                 -1.9629730000     -7.1223240000      4.0321080000
H                 -2.3394550000     -7.7537400000      2.4022070000
H                 -3.5181570000     -6.7007840000      3.2363440000
H                  5.7364970000     -0.0018910000     -2.1720310000
O                  7.9341860000     -1.6204730000      0.9964960000
O                  8.0616100000     -0.2083270000     -1.0922580000
O                  7.7558210000     -2.7061030000     -1.2698660000
C                  9.1277700000     -3.1672730000     -1.3789310000
H                  9.5228260000     -3.4122870000     -0.3920370000
H                  9.7436620000     -2.4105080000     -1.8675700000
H                  9.0706640000     -4.0611220000     -1.9955820000
$end

$rem
BASIS  =  6-311++G(d,p)
GUI  =  2
JOB_TYPE  =  SP
METHOD  =  B3LYP
SCF_CONVERGENCE  = 8
SOLVENT_METHOD = sm12
$end

$smx
solvent dimethylformamide
charges CM5
$end

--------------------------------------------------------------

             Standard Nuclear Orientation (Angstroms)
    I     Atom           X                Y                Z
 ----------------------------------------------------------------
    1      C       4.9913220000    -2.0561900000     0.4419460000
    2      C       5.7299600000    -1.3281400000    -0.4784040000
    3      C       5.1253070000    -0.5693550000    -1.4816910000
    4      C       3.5969970000    -2.0344500000     0.3548550000
    5      C       2.9700130000    -1.2793270000    -0.6513560000
    6      C       3.7394060000    -0.5491770000    -1.5624520000
    7      C       2.8053110000    -2.8227490000     1.3461160000
    8      C       1.3171410000    -2.7709550000     1.2301590000
    9      C       0.6849470000    -2.0179680000     0.2255670000
   10      C       1.4803110000    -1.2350870000    -0.7691790000
   11      C       0.5483460000    -3.4911220000     2.1479620000
   12      C      -0.7106670000    -1.9879110000     0.1452060000
   13      C      -1.4791730000    -2.7040190000     1.0531520000
   14      O       3.3504360000    -3.4825710000     2.2107690000
   15      O       0.9352100000    -0.5858180000    -1.6426860000
   16      H       5.4694570000    -2.6293370000     1.2261720000
   17      S       7.5220910000    -1.3539230000    -0.3734750000
   18      H      -2.5608690000    -2.6841530000     1.0122840000
   19      H       3.2333820000     0.0293110000    -2.3249630000
   20      H       1.0394910000    -4.0594250000     2.9276620000
   21      H      -1.1745480000    -1.3963550000    -0.6339010000
   22      C      -0.8335470000    -3.4485310000     2.0414290000
   23      S      -1.8268830000    -4.3728040000     3.2171710000
   24      O      -1.0971660000    -4.5294460000     4.4664520000
   25      O      -3.1829650000    -3.8425740000     3.2209970000
   26      O      -1.8129110000    -5.8007670000     2.4127310000
   27      C      -2.4590610000    -6.9143330000     3.0830670000
   28      H      -1.9629730000    -7.1223240000     4.0321080000
   29      H      -2.3394550000    -7.7537400000     2.4022070000
   30      H      -3.5181570000    -6.7007840000     3.2363440000
   31      H       5.7364970000    -0.0018910000    -2.1720310000
   32      O       7.9341860000    -1.6204730000     0.9964960000
   33      O       8.0616100000    -0.2083270000    -1.0922580000
   34      O       7.7558210000    -2.7061030000    -1.2698660000
   35      C       9.1277700000    -3.1672730000    -1.3789310000
   36      H       9.5228260000    -3.4122870000    -0.3920370000
   37      H       9.7436620000    -2.4105080000    -1.8675700000
   38      H       9.0706640000    -4.0611220000    -1.9955820000
 ----------------------------------------------------------------

   15   -2015.3463189986      9.67e-09  Convergence criterion met
 Total energy in the final basis set =    -2015.3853209786

                    Orbital Energies (a.u.)
 --------------------------------------------------------------

 Alpha MOs
 -- Occupied --
-89.0961 -89.0960 -19.1832 -19.1832 -19.1453 -19.1433 -19.1433 -19.1433
-19.1432 -19.1432 -10.2971 -10.2967 -10.2467 -10.2467 -10.2315 -10.2315
-10.2297 -10.2297 -10.2288 -10.2288 -10.2248 -10.2248 -10.2237 -10.2237
-10.2154 -10.2154  -8.1572  -8.1572  -6.1208  -6.1208  -6.1190  -6.1189
 -6.1180  -6.1180  -1.1653  -1.1652  -1.0807  -1.0785  -1.0550  -1.0550
 -1.0387  -1.0387  -0.9189  -0.9101  -0.8452  -0.8145  -0.8044  -0.7986
 -0.7575  -0.7461  -0.7098  -0.6979  -0.6795  -0.6490  -0.6377  -0.6224
 -0.6058  -0.5837  -0.5807  -0.5487  -0.5461  -0.5306  -0.5274  -0.5251
 -0.5100  -0.4961  -0.4947  -0.4814  -0.4769  -0.4721  -0.4718  -0.4689
 -0.4667  -0.4610  -0.4607  -0.4580  -0.4550  -0.4362  -0.4329  -0.4242
 -0.4132  -0.4118  -0.4110  -0.3992  -0.3928  -0.3896  -0.3626  -0.3626
 -0.3579  -0.3573  -0.3466  -0.3464  -0.3442  -0.3441  -0.3105  -0.3101
 -0.3089  -0.3022  -0.3007  -0.2982  -0.2959  -0.2889

          Ground-State Mulliken Net Atomic Charges

     Atom                 Charge (a.u.)
  ----------------------------------------
      1 C                    -0.151490
      2 C                    -1.098499
      3 C                     0.169086
      4 C                     0.135371
      5 C                     0.688416
      6 C                     0.541333
      7 C                    -1.043150
      8 C                     0.134170
      9 C                     0.686812
     10 C                    -0.685550
     11 C                    -0.153333
     12 C                     0.542345
     13 C                     0.168479
     14 O                    -0.269100
     15 O                    -0.229850
     16 H                     0.220190
     17 S                    -0.120192
     18 H                     0.330812
     19 H                     0.269359
     20 H                     0.219936
     21 H                     0.269435
     22 C                    -1.098020
     23 S                    -0.119343
     24 O                    -0.248199
     25 O                    -0.180330
     26 O                    -0.005739
     27 C                    -0.054727
     28 H                     0.186164
     29 H                     0.242896
     30 H                     0.191466
     31 H                     0.330665
     32 O                    -0.248456
     33 O                    -0.181869
     34 O                    -0.005092
     35 C                    -0.054539
     36 H                     0.186165
     37 H                     0.191476
     38 H                     0.242900
  ----------------------------------------
  Sum of atomic charges =     0.000000

                    Cartesian Multipole Moments
 -----------------------------------------------------------------
    Charge (ESU x 10^10)
                -0.0000
    Dipole Moment (Debye)
         X      -0.9224      Y      -3.1691      Z      -5.0815
       Tot       6.0594
    Quadrupole Moments (Debye-Ang)
        XX    -170.4391     XY      -9.0247     YY    -135.9030
        XZ     -18.6226     YZ      12.1879     ZZ    -184.6949

 Total job time:  1376.20s(wall), 10721.25s(cpu)
        *  Thank you very much for using Q-Chem.  Have a nice day.  *
