 Q-Chem 5.4, Q-Chem, Inc., Pleasanton, CA (2021)
 Q-Chem 5.4.0 for Intel X86 EM64T Linux

User input:
--------------------------------------------------------------
$molecule
0 1
C                  4.4055450000     -0.1139980000     -0.0116060000
C                  2.9679950000      0.3243210000     -0.1138280000
C                  2.6333390000      1.6405610000     -0.4532080000
C                  1.3122110000      2.0518870000     -0.5448700000
C                  0.2741410000      1.1539660000     -0.2958110000
C                 -1.1341640000      1.6428000000     -0.4117950000
O                 -1.3696200000      2.8011140000     -0.7121240000
C                 -2.2265660000      0.6670410000     -0.1523410000
C                 -3.5563180000      1.0848070000     -0.2643950000
C                 -4.5906110000      0.1879610000     -0.0262570000
C                 -4.3053490000     -1.1340840000      0.3274580000
C                 -2.9868290000     -1.5573660000      0.4428190000
C                 -1.9396580000     -0.6618230000      0.2032490000
C                 -0.5379040000     -1.1495040000      0.3390590000
O                 -0.2958940000     -2.2932470000      0.6769760000
C                  0.5643040000     -0.1792670000      0.0504580000
C                  1.9087650000     -0.5549410000      0.1278890000
N                  2.3008210000     -1.9518800000      0.4704500000
O                  2.4198020000     -2.7317830000     -0.4585740000
O                  2.5682140000     -2.1758490000      1.6383920000
H                  5.0740070000      0.6974230000     -0.2990140000
H                  4.6052540000     -0.9703610000     -0.6610510000
H                  4.6499160000     -0.4162000000      1.0103310000
H                  3.4318940000      2.3473810000     -0.6489850000
H                  1.0589610000      3.0707100000     -0.8097120000
H                 -3.7538490000      2.1136350000     -0.5384770000
H                 -5.6203110000      0.5148770000     -0.1148020000
H                 -5.1139300000     -1.8317840000      0.5128060000
H                 -2.7441640000     -2.5763960000      0.7169630000
$end

$rem
BASIS  =  6-311++G(d,p)
GUI  =  2
JOB_TYPE  =  SP
METHOD  =  B3LYP
SCF_CONVERGENCE  = 8
SOLVENT_METHOD = sm12
$end

$smx
solvent dimethylformamide
charges CM5
$end

--------------------------------------------------------------

             Standard Nuclear Orientation (Angstroms)
    I     Atom           X                Y                Z
 ----------------------------------------------------------------
    1      C       4.4055450000    -0.1139980000    -0.0116060000
    2      C       2.9679950000     0.3243210000    -0.1138280000
    3      C       2.6333390000     1.6405610000    -0.4532080000
    4      C       1.3122110000     2.0518870000    -0.5448700000
    5      C       0.2741410000     1.1539660000    -0.2958110000
    6      C      -1.1341640000     1.6428000000    -0.4117950000
    7      O      -1.3696200000     2.8011140000    -0.7121240000
    8      C      -2.2265660000     0.6670410000    -0.1523410000
    9      C      -3.5563180000     1.0848070000    -0.2643950000
   10      C      -4.5906110000     0.1879610000    -0.0262570000
   11      C      -4.3053490000    -1.1340840000     0.3274580000
   12      C      -2.9868290000    -1.5573660000     0.4428190000
   13      C      -1.9396580000    -0.6618230000     0.2032490000
   14      C      -0.5379040000    -1.1495040000     0.3390590000
   15      O      -0.2958940000    -2.2932470000     0.6769760000
   16      C       0.5643040000    -0.1792670000     0.0504580000
   17      C       1.9087650000    -0.5549410000     0.1278890000
   18      N       2.3008210000    -1.9518800000     0.4704500000
   19      O       2.4198020000    -2.7317830000    -0.4585740000
   20      O       2.5682140000    -2.1758490000     1.6383920000
   21      H       5.0740070000     0.6974230000    -0.2990140000
   22      H       4.6052540000    -0.9703610000    -0.6610510000
   23      H       4.6499160000    -0.4162000000     1.0103310000
   24      H       3.4318940000     2.3473810000    -0.6489850000
   25      H       1.0589610000     3.0707100000    -0.8097120000
   26      H      -3.7538490000     2.1136350000    -0.5384770000
   27      H      -5.6203110000     0.5148770000    -0.1148020000
   28      H      -5.1139300000    -1.8317840000     0.5128060000
   29      H      -2.7441640000    -2.5763960000     0.7169630000
 ----------------------------------------------------------------

   16    -932.8260918468      6.49e-09  Convergence criterion met
 Total energy in the final basis set =     -932.8519903277

                    Orbital Energies (a.u.)
 --------------------------------------------------------------

 Alpha MOs
 -- Occupied --
-19.1804 -19.1803 -19.1387 -19.1338 -14.5712 -10.2933 -10.2867 -10.2610
-10.2324 -10.2291 -10.2199 -10.2137 -10.2123 -10.2078 -10.2067 -10.2006
-10.2003 -10.1998 -10.1996 -10.1819  -1.2580  -1.0866  -1.0766  -1.0688
 -0.9170  -0.8916  -0.8378  -0.8208  -0.7897  -0.7817  -0.7395  -0.7209
 -0.6827  -0.6646  -0.6479  -0.6122  -0.5945  -0.5832  -0.5611  -0.5526
 -0.5380  -0.5376  -0.5090  -0.4953  -0.4868  -0.4794  -0.4665  -0.4609
 -0.4549  -0.4524  -0.4410  -0.4408  -0.4267  -0.4119  -0.4020  -0.3954
 -0.3917  -0.3820  -0.3725  -0.3716  -0.3387  -0.3351  -0.3283  -0.2953
 -0.2944  -0.2841  -0.2816  -0.2808  -0.2787

          Ground-State Mulliken Net Atomic Charges

     Atom                 Charge (a.u.)
  ----------------------------------------
      1 C                    -0.033053
      2 C                     0.611331
      3 C                     0.066283
      4 C                     0.320579
      5 C                     0.273240
      6 C                    -1.453153
      7 O                    -0.240291
      8 C                     0.004584
      9 C                     0.289408
     10 C                     0.510192
     11 C                     0.361565
     12 C                     0.026487
     13 C                    -0.832881
     14 C                    -1.379901
     15 O                    -0.260600
     16 C                    -0.355712
     17 C                     0.144130
     18 N                    -0.330434
     19 O                     0.004313
     20 O                     0.008256
     21 H                     0.265107
     22 H                     0.172972
     23 H                     0.187572
     24 H                     0.361112
     25 H                     0.239072
     26 H                     0.196314
     27 H                     0.338671
     28 H                     0.322336
     29 H                     0.182504
  ----------------------------------------
  Sum of atomic charges =     0.000000

                    Cartesian Multipole Moments
 -----------------------------------------------------------------
    Charge (ESU x 10^10)
                 0.0000
    Dipole Moment (Debye)
         X      -1.3495      Y       3.9383      Z      -1.0643
       Tot       4.2970
    Quadrupole Moments (Debye-Ang)
        XX     -79.0662     XY      19.3962     YY    -130.9846
        XZ      -5.3773     YZ       2.9410     ZZ    -119.9287

 Total job time:  776.21s(wall), 5948.61s(cpu)
        *  Thank you very much for using Q-Chem.  Have a nice day.  *
