 Q-Chem 5.4, Q-Chem, Inc., Pleasanton, CA (2021)
 Q-Chem 5.4.0 for Intel X86 EM64T Linux

User input:
--------------------------------------------------------------
$molecule
-2 1
O                 -0.3080000000      2.1592900000      0.3710260000
C                 -0.5257480000      0.9163780000      0.1470910000
C                  0.5231160000     -0.0156670000     -0.1669800000
C                  0.2649120000     -1.3725350000     -0.4267590000
O                  1.3185770000     -2.2299730000     -0.7224090000
C                 -1.0380730000     -1.9701560000     -0.4285380000
O                 -1.2518070000     -3.2067130000     -0.6717730000
C                 -2.1126580000     -1.0345300000     -0.1175560000
C                 -3.4467680000     -1.5048310000     -0.0754600000
C                 -4.5079910000     -0.6689320000      0.2196170000
C                 -4.2712730000      0.7017990000      0.4907890000
C                 -2.9742530000      1.1865120000      0.4613850000
C                 -1.8734160000      0.3549960000      0.1679700000
C                  1.9242000000      0.5552370000     -0.2934840000
H                 -3.5969040000     -2.5586080000     -0.2882960000
H                 -5.5230320000     -1.0617780000      0.2428710000
H                 -5.1015260000      1.3661910000      0.7219320000
H                 -2.7558320000      2.2301830000      0.6652690000
C                  2.9231020000      0.0534350000      0.7233110000
C                  4.1958160000     -0.3427080000      0.5464410000
C                  4.9118680000     -0.3811020000     -0.7830260000
C                  5.0468460000     -0.8017460000      1.7086380000
H                  2.1283180000     -1.8318960000     -0.3801520000
H                  1.7953010000      1.6356810000     -0.1488450000
H                  2.3089580000      0.4066470000     -1.3122540000
H                  2.5355740000      0.0294180000      1.7414570000
H                  4.2752450000     -0.0907210000     -1.6198820000
H                  5.3061670000     -1.3877990000     -0.9834980000
H                  5.7822980000      0.2886210000     -0.7731600000
H                  4.5082060000     -0.7486230000      2.6586650000
H                  5.9580820000     -0.1948790000      1.8009560000
H                  5.3896850000     -1.8376490000      1.5690300000
$end

$rem
BASIS  =  6-311++G(d,p)
GUI  =  2
JOB_TYPE  =  SP
METHOD  =  B3LYP
SCF_CONVERGENCE  = 8
SOLVENT_METHOD = sm12
$end

$smx
solvent dimethylformamide
charges CM5
$end

--------------------------------------------------------------

             Standard Nuclear Orientation (Angstroms)
    I     Atom           X                Y                Z
 ----------------------------------------------------------------
    1      O      -0.3080000000     2.1592900000     0.3710260000
    2      C      -0.5257480000     0.9163780000     0.1470910000
    3      C       0.5231160000    -0.0156670000    -0.1669800000
    4      C       0.2649120000    -1.3725350000    -0.4267590000
    5      O       1.3185770000    -2.2299730000    -0.7224090000
    6      C      -1.0380730000    -1.9701560000    -0.4285380000
    7      O      -1.2518070000    -3.2067130000    -0.6717730000
    8      C      -2.1126580000    -1.0345300000    -0.1175560000
    9      C      -3.4467680000    -1.5048310000    -0.0754600000
   10      C      -4.5079910000    -0.6689320000     0.2196170000
   11      C      -4.2712730000     0.7017990000     0.4907890000
   12      C      -2.9742530000     1.1865120000     0.4613850000
   13      C      -1.8734160000     0.3549960000     0.1679700000
   14      C       1.9242000000     0.5552370000    -0.2934840000
   15      H      -3.5969040000    -2.5586080000    -0.2882960000
   16      H      -5.5230320000    -1.0617780000     0.2428710000
   17      H      -5.1015260000     1.3661910000     0.7219320000
   18      H      -2.7558320000     2.2301830000     0.6652690000
   19      C       2.9231020000     0.0534350000     0.7233110000
   20      C       4.1958160000    -0.3427080000     0.5464410000
   21      C       4.9118680000    -0.3811020000    -0.7830260000
   22      C       5.0468460000    -0.8017460000     1.7086380000
   23      H       2.1283180000    -1.8318960000    -0.3801520000
   24      H       1.7953010000     1.6356810000    -0.1488450000
   25      H       2.3089580000     0.4066470000    -1.3122540000
   26      H       2.5355740000     0.0294180000     1.7414570000
   27      H       4.2752450000    -0.0907210000    -1.6198820000
   28      H       5.3061670000    -1.3877990000    -0.9834980000
   29      H       5.7822980000     0.2886210000    -0.7731600000
   30      H       4.5082060000    -0.7486230000     2.6586650000
   31      H       5.9580820000    -0.1948790000     1.8009560000
   32      H       5.3896850000    -1.8376490000     1.5690300000
 ----------------------------------------------------------------

   18    -805.8594556193      6.81e-09  Convergence criterion met
 Total energy in the final basis set =     -806.1537547189

                    Orbital Energies (a.u.)
 --------------------------------------------------------------

 Alpha MOs
 -- Occupied --
-19.1250 -19.0225 -19.0135 -10.1887 -10.1834 -10.1810 -10.1733 -10.1715
-10.1702 -10.1693 -10.1691 -10.1683 -10.1667 -10.1657 -10.1652 -10.1463
-10.1459 -10.1396  -1.0298  -0.9430  -0.9318  -0.8405  -0.8219  -0.7808
 -0.7482  -0.7390  -0.7039  -0.6967  -0.6587  -0.6331  -0.5999  -0.5834
 -0.5407  -0.5231  -0.5211  -0.4973  -0.4756  -0.4560  -0.4446  -0.4357
 -0.4325  -0.4201  -0.4123  -0.3976  -0.3960  -0.3862  -0.3817  -0.3770
 -0.3739  -0.3695  -0.3602  -0.3552  -0.3424  -0.3379  -0.3314  -0.3211
 -0.3148  -0.3031  -0.2467  -0.2455  -0.2315  -0.2043  -0.2012  -0.1908
 -0.1105

          Ground-State Mulliken Net Atomic Charges

     Atom                 Charge (a.u.)
  ----------------------------------------
      1 O                    -0.223540
      2 C                    -3.024496
      3 C                     1.787312
      4 C                    -0.830617
      5 O                    -0.012226
      6 C                    -2.394640
      7 O                    -0.442889
      8 C                    -2.355118
      9 C                    -0.722452
     10 C                     0.940745
     11 C                     1.085072
     12 C                    -0.458532
     13 C                    -1.753423
     14 C                     0.594112
     15 H                     0.053843
     16 H                     0.365724
     17 H                     0.378168
     18 H                     0.078052
     19 C                    -2.556466
     20 C                     3.466445
     21 C                     1.128780
     22 C                     0.916851
     23 H                     0.259910
     24 H                     0.225868
     25 H                    -0.174669
     26 H                     0.005202
     27 H                     0.427035
     28 H                     0.195874
     29 H                     0.230260
     30 H                     0.341437
     31 H                     0.247868
     32 H                     0.220508
  ----------------------------------------
  Sum of atomic charges =    -2.000000

                    Cartesian Multipole Moments
 -----------------------------------------------------------------
    Charge (ESU x 10^10)
                -9.6064
    Dipole Moment (Debye)
         X      13.2856      Y       6.0059      Z       1.2961
       Tot      14.6376
    Quadrupole Moments (Debye-Ang)
        XX    -154.3700     XY     -11.5686     YY    -177.2765
        XZ       0.1945     YZ     -12.4563     ZZ    -122.7056

 Total job time:  966.73s(wall), 7176.69s(cpu)
        *  Thank you very much for using Q-Chem.  Have a nice day.  *
