 Q-Chem 5.4, Q-Chem, Inc., Pleasanton, CA (2021)
 Q-Chem 5.4.0 for Intel X86 EM64T Linux

User input:
--------------------------------------------------------------
$molecule
-2 1
Cl                -3.1048820000      0.6513360000      0.1062150000
C                 -1.3128600000      0.3223360000      0.0448720000
C                 -0.9248800000     -1.0159300000      0.0326190000
C                  0.4424000000     -1.4568420000     -0.0140090000
O                  0.7951820000     -2.6970270000     -0.0253070000
C                  1.3128210000     -0.3223260000     -0.0448700000
C                  0.9248740000      1.0159310000     -0.0326180000
C                 -0.4424120000      1.4568150000      0.0140140000
O                 -0.7951770000      2.6970350000      0.0253070000
Cl                 3.1049370000     -0.6513190000     -0.1062220000
H                 -1.6805630000     -1.7948410000      0.0592440000
H                  1.6805610000      1.7948320000     -0.0592450000
$end
$rem
MAX_SCF_CYCLES=200
BASIS  =  6-311++G(d,p)
GUI  =  2
JOB_TYPE  =  SP
METHOD  =  B3LYP
SOLVENT_METHOD = PCM
$end
$pcm
theory = CPCM
$end
$solvent
dielectric 37.219
opticaldielectric 1.43
$end

--------------------------------------------------------------

             Standard Nuclear Orientation (Angstroms)
    I     Atom           X                Y                Z
 ----------------------------------------------------------------
    1      Cl     -3.1048820000     0.6513360000     0.1062150000
    2      C      -1.3128600000     0.3223360000     0.0448720000
    3      C      -0.9248800000    -1.0159300000     0.0326190000
    4      C       0.4424000000    -1.4568420000    -0.0140090000
    5      O       0.7951820000    -2.6970270000    -0.0253070000
    6      C       1.3128210000    -0.3223260000    -0.0448700000
    7      C       0.9248740000     1.0159310000    -0.0326180000
    8      C      -0.4424120000     1.4568150000     0.0140140000
    9      O      -0.7951770000     2.6970350000     0.0253070000
   10      Cl      3.1049370000    -0.6513190000    -0.1062220000
   11      H      -1.6805630000    -1.7948410000     0.0592440000
   12      H       1.6805610000     1.7948320000    -0.0592450000
 ----------------------------------------------------------------

    9   -1301.0996607804      2.62e-06  Convergence criterion met
 Total energy in the final basis set =    -1301.0996607804

                    Orbital Energies (a.u.)
 --------------------------------------------------------------

 Alpha MOs
 -- Occupied --
********-101.5296 -19.0310 -19.0310 -10.1949 -10.1949 -10.1939 -10.1939
-10.1440 -10.1440  -9.4437  -9.4437  -7.2074  -7.2074  -7.1992  -7.1992
 -7.1988  -7.1988  -0.9492  -0.9453  -0.8416  -0.8306  -0.7740  -0.6963
 -0.6612  -0.5775  -0.5334  -0.4591  -0.4460  -0.4215  -0.3905  -0.3875
 -0.3761  -0.3565  -0.3462  -0.3454  -0.3167  -0.3087  -0.2985  -0.2951
 -0.2394  -0.2195  -0.2138  -0.2137  -0.1366

          Ground-State Mulliken Net Atomic Charges

     Atom                 Charge (a.u.)
  ----------------------------------------
      1 Cl                    0.109873
      2 C                     1.103228
      3 C                    -0.868655
      4 C                    -0.823933
      5 O                    -0.693596
      6 C                     1.103213
      7 C                    -0.868647
      8 C                    -0.824088
      9 O                    -0.693622
     10 Cl                    0.109840
     11 H                     0.173195
     12 H                     0.173192
  ----------------------------------------
  Sum of atomic charges =    -2.000000

                    Cartesian Multipole Moments
 -----------------------------------------------------------------
    Charge (ESU x 10^10)
                -9.6064
    Dipole Moment (Debye)
         X      -0.0005      Y      -0.0003      Z       0.0000
       Tot       0.0006
    Quadrupole Moments (Debye-Ang)
        XX    -105.1741     XY      22.2425     YY    -133.6391
        XZ       0.8734     YZ      -0.7258     ZZ     -79.3268

 Total job time:  9.60s(wall), 71.22s(cpu)
        *  Thank you very much for using Q-Chem.  Have a nice day.  *
