 Q-Chem 5.4, Q-Chem, Inc., Pleasanton, CA (2021)
 Q-Chem 5.4.0 for Intel X86 EM64T Linux

User input:
--------------------------------------------------------------
$molecule
-2 1
C                  6.8763690000     -1.6273040000     -0.2414080000
C                  7.4606330000     -0.6711420000     -1.0496840000
C                  6.6284040000      0.3430880000     -1.6301670000
C                  5.2767710000      0.3371920000     -1.3438790000
C                  4.6596270000     -0.6301060000     -0.5143170000
C                  5.4933330000     -1.6537820000      0.0604220000
C                  4.9698270000     -2.6962060000      0.9263980000
C                  3.5388790000     -2.6244370000      1.1668310000
C                  2.7051020000     -1.6010350000      0.5917120000
C                  3.2286000000     -0.5586330000     -0.2742950000
C                  2.9219350000     -3.5911240000      1.9972260000
C                  1.5687070000     -3.6027200000      2.2757250000
C                  0.7396840000     -2.5770430000      1.7109770000
C                  1.3220790000     -1.6274250000      0.8936980000
O                  5.7095240000     -3.6043560000      1.4363280000
O                  2.4888700000      0.3494100000     -0.7843700000
C                  0.9789600000     -4.6476590000      3.1961860000
C                 -0.7505410000     -2.5650360000      1.9678990000
C                  8.9407680000     -0.7192850000     -1.3559800000
C                  7.2286540000      1.4252400000     -2.4994260000
H                  7.4785290000     -2.4170540000      0.1989480000
H                  4.6244420000      1.1019970000     -1.7558980000
H                  3.5772420000     -4.3453570000      2.4237650000
H                  0.7169470000     -0.8482330000      0.4388460000
H                  1.7423190000     -5.3709570000      3.4969630000
H                  0.1598440000     -5.2044530000      2.7276320000
H                  0.5587040000     -4.2085430000      4.1181090000
H                 -0.9912510000     -2.5362000000      3.0364140000
H                 -1.2546020000     -3.4623250000      1.5676490000
H                 -1.2151050000     -1.6926490000      1.4994540000
H                  9.4236000000     -1.5262750000     -0.7974280000
H                  9.4524140000      0.2149680000     -1.0992760000
H                  9.1441840000     -0.8918520000     -2.4275360000
H                  7.7787000000      1.0183750000     -3.3552240000
H                  7.9480040000      2.0571050000     -1.9492480000
H                  6.4471420000      2.0834020000     -2.8898170000
$end
$rem
MAX_SCF_CYCLES=200
BASIS  =  6-311++G(d,p)
GUI  =  2
JOB_TYPE  =  SP
METHOD  =  B3LYP
SOLVENT_METHOD = PCM
$end
$pcm
theory = CPCM
$end
$solvent
dielectric 37.219
opticaldielectric 1.43
$end

--------------------------------------------------------------

             Standard Nuclear Orientation (Angstroms)
    I     Atom           X                Y                Z
 ----------------------------------------------------------------
    1      C       6.8763690000    -1.6273040000    -0.2414080000
    2      C       7.4606330000    -0.6711420000    -1.0496840000
    3      C       6.6284040000     0.3430880000    -1.6301670000
    4      C       5.2767710000     0.3371920000    -1.3438790000
    5      C       4.6596270000    -0.6301060000    -0.5143170000
    6      C       5.4933330000    -1.6537820000     0.0604220000
    7      C       4.9698270000    -2.6962060000     0.9263980000
    8      C       3.5388790000    -2.6244370000     1.1668310000
    9      C       2.7051020000    -1.6010350000     0.5917120000
   10      C       3.2286000000    -0.5586330000    -0.2742950000
   11      C       2.9219350000    -3.5911240000     1.9972260000
   12      C       1.5687070000    -3.6027200000     2.2757250000
   13      C       0.7396840000    -2.5770430000     1.7109770000
   14      C       1.3220790000    -1.6274250000     0.8936980000
   15      O       5.7095240000    -3.6043560000     1.4363280000
   16      O       2.4888700000     0.3494100000    -0.7843700000
   17      C       0.9789600000    -4.6476590000     3.1961860000
   18      C      -0.7505410000    -2.5650360000     1.9678990000
   19      C       8.9407680000    -0.7192850000    -1.3559800000
   20      C       7.2286540000     1.4252400000    -2.4994260000
   21      H       7.4785290000    -2.4170540000     0.1989480000
   22      H       4.6244420000     1.1019970000    -1.7558980000
   23      H       3.5772420000    -4.3453570000     2.4237650000
   24      H       0.7169470000    -0.8482330000     0.4388460000
   25      H       1.7423190000    -5.3709570000     3.4969630000
   26      H       0.1598440000    -5.2044530000     2.7276320000
   27      H       0.5587040000    -4.2085430000     4.1181090000
   28      H      -0.9912510000    -2.5362000000     3.0364140000
   29      H      -1.2546020000    -3.4623250000     1.5676490000
   30      H      -1.2151050000    -1.6926490000     1.4994540000
   31      H       9.4236000000    -1.5262750000    -0.7974280000
   32      H       9.4524140000     0.2149680000    -1.0992760000
   33      H       9.1441840000    -0.8918520000    -2.4275360000
   34      H       7.7787000000     1.0183750000    -3.3552240000
   35      H       7.9480040000     2.0571050000    -1.9492480000
   36      H       6.4471420000     2.0834020000    -2.8898170000
 ----------------------------------------------------------------

    9    -846.4990366546      4.86e-06  Convergence criterion met
 Total energy in the final basis set =     -846.4990366546

                    Orbital Energies (a.u.)
 --------------------------------------------------------------

 Alpha MOs
 -- Occupied --
-19.0197 -19.0197 -10.1697 -10.1697 -10.1525 -10.1525 -10.1521 -10.1521
-10.1500 -10.1500 -10.1500 -10.1500 -10.1382 -10.1382 -10.1382 -10.1382
-10.1296 -10.1296 -10.1292 -10.1292  -0.9426  -0.9396  -0.8313  -0.8275
 -0.7696  -0.7407  -0.7393  -0.7391  -0.6826  -0.6771  -0.6758  -0.6412
 -0.6095  -0.5828  -0.5581  -0.5559  -0.5199  -0.4794  -0.4746  -0.4527
 -0.4287  -0.4191  -0.4161  -0.4151  -0.4141  -0.3978  -0.3902  -0.3828
 -0.3823  -0.3812  -0.3790  -0.3722  -0.3683  -0.3682  -0.3659  -0.3498
 -0.3458  -0.3362  -0.3257  -0.3196  -0.3093  -0.3074  -0.2944  -0.2859
 -0.2267  -0.2189  -0.2178  -0.2033  -0.2019  -0.1944  -0.0995

          Ground-State Mulliken Net Atomic Charges

     Atom                 Charge (a.u.)
  ----------------------------------------
      1 C                    -0.273468
      2 C                     0.284171
      3 C                     0.280725
      4 C                    -0.278541
      5 C                     0.112186
      6 C                     0.121538
      7 C                    -0.640229
      8 C                     0.114158
      9 C                     0.115659
     10 C                    -0.636529
     11 C                    -0.274136
     12 C                     0.274239
     13 C                     0.282373
     14 C                    -0.271479
     15 O                    -0.678815
     16 O                    -0.679025
     17 C                    -0.543329
     18 C                    -0.544911
     19 C                    -0.542214
     20 C                    -0.548468
     21 H                     0.110419
     22 H                     0.111075
     23 H                     0.110932
     24 H                     0.110412
     25 H                     0.161145
     26 H                     0.149830
     27 H                     0.159787
     28 H                     0.149631
     29 H                     0.160171
     30 H                     0.161087
     31 H                     0.161176
     32 H                     0.149911
     33 H                     0.159776
     34 H                     0.149745
     35 H                     0.159876
     36 H                     0.161108
  ----------------------------------------
  Sum of atomic charges =    -2.000016

                    Cartesian Multipole Moments
 -----------------------------------------------------------------
    Charge (ESU x 10^10)
                -9.6065
    Dipole Moment (Debye)
         X     -39.3804      Y      15.6320      Z      -3.1310
       Tot      42.4851
    Quadrupole Moments (Debye-Ang)
        XX    -313.2295     XY      84.2751     YY    -183.9212
        XZ     -23.2965     YZ      20.9032     ZZ    -141.5095

 Total job time:  120.74s(wall), 600.67s(cpu)
        *  Thank you very much for using Q-Chem.  Have a nice day.  *
