 Q-Chem 5.4, Q-Chem, Inc., Pleasanton, CA (2021)
 Q-Chem 5.4.0 for Intel X86 EM64T Linux

User input:
--------------------------------------------------------------
$molecule
-1 2
C                  5.5746060000     -4.6064590000     -1.0106830000
C                  6.4735110000     -4.0939920000     -1.9771220000
C                  6.1711400000     -2.8192610000     -2.5774340000
C                  4.4041960000     -3.9359170000     -0.6077270000
C                  4.1392580000     -2.6529880000     -1.2398790000
C                  5.0128090000     -2.1422140000     -2.1872830000
C                  3.4537860000     -4.4552820000      0.3997780000
C                  2.2835350000     -3.6179570000      0.6955240000
C                  2.0393480000     -2.3664880000      0.0686410000
C                  2.9555000000     -1.8313700000     -0.9241760000
C                  1.3545700000     -4.0850540000      1.6541190000
C                  0.2330170000     -3.3521380000      1.9820590000
C                 -0.0068020000     -2.1071920000      1.3561790000
C                  0.8838130000     -1.6301710000      0.4185020000
C                  7.6660560000     -4.7573350000     -2.4003740000
C                  8.4955080000     -4.2056370000     -3.3426970000
C                  8.1934540000     -2.9476360000     -3.9325510000
C                  7.0593370000     -2.2800540000     -3.5534420000
O                  3.6030740000     -5.5462560000      0.9913220000
O                  2.7598990000     -0.7290280000     -1.4902010000
Cl                 6.0124640000     -6.1766580000     -0.3180230000
H                  4.7632350000     -1.1819070000     -2.6240700000
H                  1.5612180000     -5.0415350000      2.1190510000
H                 -0.4666470000     -3.7307870000      2.7212070000
H                 -0.8898210000     -1.5303870000      1.6144920000
H                  0.7297990000     -0.6800810000     -0.0797260000
H                  7.9115040000     -5.7145930000     -1.9626020000
H                  9.3938240000     -4.7361120000     -3.6418560000
H                  8.8596850000     -2.5240870000     -4.6768570000
H                  6.8098250000     -1.3183740000     -3.9910710000
$end
$rem
MAX_SCF_CYCLES=200
BASIS  =  6-311++G(d,p)
GUI  =  2
JOB_TYPE  =  SP
METHOD  =  B3LYP
SOLVENT_METHOD = PCM
$end
$pcm
theory = CPCM
$end
$solvent
dielectric 37.219
opticaldielectric 1.43
$end

--------------------------------------------------------------

             Standard Nuclear Orientation (Angstroms)
    I     Atom           X                Y                Z
 ----------------------------------------------------------------
    1      C       5.5746060000    -4.6064590000    -1.0106830000
    2      C       6.4735110000    -4.0939920000    -1.9771220000
    3      C       6.1711400000    -2.8192610000    -2.5774340000
    4      C       4.4041960000    -3.9359170000    -0.6077270000
    5      C       4.1392580000    -2.6529880000    -1.2398790000
    6      C       5.0128090000    -2.1422140000    -2.1872830000
    7      C       3.4537860000    -4.4552820000     0.3997780000
    8      C       2.2835350000    -3.6179570000     0.6955240000
    9      C       2.0393480000    -2.3664880000     0.0686410000
   10      C       2.9555000000    -1.8313700000    -0.9241760000
   11      C       1.3545700000    -4.0850540000     1.6541190000
   12      C       0.2330170000    -3.3521380000     1.9820590000
   13      C      -0.0068020000    -2.1071920000     1.3561790000
   14      C       0.8838130000    -1.6301710000     0.4185020000
   15      C       7.6660560000    -4.7573350000    -2.4003740000
   16      C       8.4955080000    -4.2056370000    -3.3426970000
   17      C       8.1934540000    -2.9476360000    -3.9325510000
   18      C       7.0593370000    -2.2800540000    -3.5534420000
   19      O       3.6030740000    -5.5462560000     0.9913220000
   20      O       2.7598990000    -0.7290280000    -1.4902010000
   21      Cl      6.0124640000    -6.1766580000    -0.3180230000
   22      H       4.7632350000    -1.1819070000    -2.6240700000
   23      H       1.5612180000    -5.0415350000     2.1190510000
   24      H      -0.4666470000    -3.7307870000     2.7212070000
   25      H      -0.8898210000    -1.5303870000     1.6144920000
   26      H       0.7297990000    -0.6800810000    -0.0797260000
   27      H       7.9115040000    -5.7145930000    -1.9626020000
   28      H       9.3938240000    -4.7361120000    -3.6418560000
   29      H       8.8596850000    -2.5240870000    -4.6768570000
   30      H       6.8098250000    -1.3183740000    -3.9910710000
 ----------------------------------------------------------------

    8   -1302.3834894340      8.88e-06  Convergence criterion met
 Total energy in the final basis set =    -1302.3834894340

                    Orbital Energies (a.u.)
 --------------------------------------------------------------

 Alpha MOs
 -- Occupied --
******** -19.0788 -19.0766 -10.2420 -10.2328 -10.2291 -10.1963 -10.1935
-10.1904 -10.1823 -10.1801 -10.1797 -10.1784 -10.1782 -10.1753 -10.1744
-10.1730 -10.1728 -10.1723 -10.1706 -10.1695  -9.4623  -7.2267  -7.2177
 -7.2164  -1.0101  -1.0070  -0.8974  -0.8586  -0.8541  -0.8282  -0.7805
 -0.7660  -0.7516  -0.7439  -0.7271  -0.6658  -0.6567  -0.6260  -0.6064
 -0.5859  -0.5595  -0.5561  -0.5286  -0.5056  -0.4979  -0.4760  -0.4611
 -0.4493  -0.4467  -0.4331  -0.4322  -0.4282  -0.4235  -0.4166  -0.4157
 -0.4078  -0.4003  -0.3876  -0.3778  -0.3679  -0.3584  -0.3497  -0.3483
 -0.3418  -0.3371  -0.3201  -0.3143  -0.2842  -0.2671  -0.2579  -0.2514
 -0.2488  -0.2343  -0.2290  -0.1390

 Beta MOs
 -- Occupied --
******** -19.0741 -19.0715 -10.2416 -10.2310 -10.2270 -10.1960 -10.1929
-10.1900 -10.1818 -10.1801 -10.1795 -10.1784 -10.1779 -10.1751 -10.1735
-10.1723 -10.1722 -10.1718 -10.1705 -10.1696  -9.4623  -7.2267  -7.2175
 -7.2164  -1.0012  -0.9983  -0.8962  -0.8564  -0.8536  -0.8267  -0.7774
 -0.7651  -0.7493  -0.7423  -0.7252  -0.6595  -0.6550  -0.6237  -0.6057
 -0.5853  -0.5570  -0.5538  -0.5276  -0.5046  -0.4962  -0.4734  -0.4602
 -0.4487  -0.4459  -0.4318  -0.4278  -0.4230  -0.4229  -0.4141  -0.4121
 -0.4056  -0.3935  -0.3767  -0.3694  -0.3670  -0.3535  -0.3486  -0.3414
 -0.3409  -0.3361  -0.3136  -0.3119  -0.2813  -0.2521  -0.2509  -0.2463
 -0.2445  -0.2299  -0.2226

          Ground-State Mulliken Net Atomic Charges

     Atom                 Charge (a.u.)    Spin (a.u.)
  --------------------------------------------------------
      1 C                     0.520780       0.034266
      2 C                     0.418012       0.017634
      3 C                     1.122105       0.030803
      4 C                     0.192022       0.021879
      5 C                     0.706085       0.012777
      6 C                     0.079396       0.024308
      7 C                    -1.922134       0.099856
      8 C                    -0.275820       0.064166
      9 C                     0.496988       0.035910
     10 C                    -0.616058       0.106516
     11 C                     0.161884       0.029057
     12 C                    -0.491194       0.048233
     13 C                    -0.531320       0.035395
     14 C                     0.127456       0.034317
     15 C                    -1.137850       0.006138
     16 C                    -0.718762       0.011249
     17 C                    -0.297584       0.026410
     18 C                    -0.238568      -0.004922
     19 O                    -0.354186       0.197668
     20 O                    -0.458537       0.181203
     21 Cl                    0.538925       0.001679
     22 H                     0.144394      -0.002714
     23 H                     0.172873      -0.001309
     24 H                     0.199415      -0.003704
     25 H                     0.198807      -0.002883
     26 H                     0.168113      -0.001483
     27 H                     0.186089       0.000036
     28 H                     0.215631      -0.001219
     29 H                     0.205272      -0.001954
     30 H                     0.187765       0.000689
  --------------------------------------------------------
  Sum of atomic charges =    -1.000002

                    Cartesian Multipole Moments
 -----------------------------------------------------------------
    Charge (ESU x 10^10)
                -4.8032
    Dipole Moment (Debye)
         X     -16.0978      Y      17.0446      Z       0.5166
       Tot      23.4505
    Quadrupole Moments (Debye-Ang)
        XX    -179.2837     XY      64.3573     YY    -219.1934
        XZ     -10.4805     YZ       7.5267     ZZ    -133.3660

 Total job time:  210.23s(wall), 551.45s(cpu)
        *  Thank you very much for using Q-Chem.  Have a nice day.  *
