 Q-Chem 5.4, Q-Chem, Inc., Pleasanton, CA (2021)
 Q-Chem 5.4.0 for Intel X86 EM64T Linux

User input:
--------------------------------------------------------------
$molecule
-1 2
O                 -1.2702140000      2.5196350000      0.3353790000
C                 -1.2449400000      1.2687290000      0.2174870000
C                 -2.4376550000      0.4671370000      0.1936810000
C                 -2.3862980000     -0.8993370000      0.0637190000
O                 -3.5094920000     -1.6694900000      0.0399670000
C                 -1.1571540000     -1.6500920000     -0.0592350000
O                 -1.2329660000     -2.9176710000     -0.1743820000
C                  0.0732000000     -0.8840250000     -0.0403750000
C                  1.3231510000     -1.5314390000     -0.1545000000
C                  2.5012630000     -0.8081330000     -0.1373820000
C                  2.4672920000      0.5945130000     -0.0048090000
C                  1.2494750000      1.2462480000      0.1083520000
C                  0.0381460000      0.5350280000      0.0938260000
H                 -3.3918670000      0.9749820000      0.2820790000
H                  1.3250400000     -2.6109750000     -0.2554770000
H                  3.4547740000     -1.3210590000     -0.2262010000
H                  3.3933830000      1.1615760000      0.0084900000
H                  1.1913470000      2.3241020000      0.2115760000
H                 -3.1370090000     -2.5726020000     -0.0603660000
$end

$rem
BASIS  =  6-311++G(d,p)
GUI  =  2
JOB_TYPE  =  SP
METHOD  =  B3LYP
SCF_CONVERGENCE  = 8
SOLVENT_METHOD = sm12
$end

$smx
solvent dimethylformamide
charges CM5
$end

--------------------------------------------------------------

             Standard Nuclear Orientation (Angstroms)
    I     Atom           X                Y                Z
 ----------------------------------------------------------------
    1      O      -1.2702140000     2.5196350000     0.3353790000
    2      C      -1.2449400000     1.2687290000     0.2174870000
    3      C      -2.4376550000     0.4671370000     0.1936810000
    4      C      -2.3862980000    -0.8993370000     0.0637190000
    5      O      -3.5094920000    -1.6694900000     0.0399670000
    6      C      -1.1571540000    -1.6500920000    -0.0592350000
    7      O      -1.2329660000    -2.9176710000    -0.1743820000
    8      C       0.0732000000    -0.8840250000    -0.0403750000
    9      C       1.3231510000    -1.5314390000    -0.1545000000
   10      C       2.5012630000    -0.8081330000    -0.1373820000
   11      C       2.4672920000     0.5945130000    -0.0048090000
   12      C       1.2494750000     1.2462480000     0.1083520000
   13      C       0.0381460000     0.5350280000     0.0938260000
   14      H      -3.3918670000     0.9749820000     0.2820790000
   15      H       1.3250400000    -2.6109750000    -0.2554770000
   16      H       3.4547740000    -1.3210590000    -0.2262010000
   17      H       3.3933830000     1.1615760000     0.0084900000
   18      H       1.1913470000     2.3241020000     0.2115760000
   19      H      -3.1370090000    -2.5726020000    -0.0603660000
 ----------------------------------------------------------------

   18    -610.5925264398      8.94e-09  Convergence criterion met
 Total energy in the final basis set =     -610.6795459487

                    Orbital Energies (a.u.)
 --------------------------------------------------------------

 Alpha MOs
 -- Occupied --
-19.1504 -19.0912 -19.0774 -10.2326 -10.2310 -10.2264 -10.1855 -10.1853
-10.1839 -10.1829 -10.1823 -10.1813 -10.1636  -1.0699  -1.0024  -1.0006
 -0.8679  -0.8093  -0.7613  -0.7467  -0.6821  -0.6331  -0.6170  -0.5786
 -0.5445  -0.5178  -0.4913  -0.4667  -0.4654  -0.4393  -0.4379  -0.4242
 -0.4123  -0.4022  -0.3932  -0.3847  -0.3741  -0.3577  -0.3484  -0.3467
 -0.2753  -0.2674  -0.2630  -0.2435  -0.2423  -0.1578

 Beta MOs
 -- Occupied --
-19.1499 -19.0842 -19.0719 -10.2314 -10.2302 -10.2238 -10.1854 -10.1853
-10.1830 -10.1819 -10.1818 -10.1814 -10.1629  -1.0677  -0.9928  -0.9888
 -0.8657  -0.8047  -0.7592  -0.7448  -0.6726  -0.6315  -0.6139  -0.5764
 -0.5429  -0.5155  -0.4876  -0.4657  -0.4642  -0.4372  -0.4256  -0.4213
 -0.4076  -0.3990  -0.3843  -0.3827  -0.3563  -0.3558  -0.3449  -0.3317
 -0.2606  -0.2567  -0.2545  -0.2370  -0.2328

          Ground-State Mulliken Net Atomic Charges

     Atom                 Charge (a.u.)    Spin (a.u.)
  --------------------------------------------------------
      1 O                    -0.363397       0.200653
      2 C                    -1.158136       0.030329
      3 C                    -0.005505       0.065282
      4 C                    -0.104064       0.087809
      5 O                    -0.176260       0.018287
      6 C                    -1.052755       0.142034
      7 O                    -0.354359       0.260059
      8 C                    -0.485095      -0.009436
      9 C                     0.355574       0.082388
     10 C                     0.979932      -0.006971
     11 C                     0.987906       0.076703
     12 C                     0.093905      -0.011078
     13 C                    -1.231855       0.084224
     14 H                     0.161235      -0.006748
     15 H                     0.179839      -0.004474
     16 H                     0.370373      -0.000246
     17 H                     0.356724      -0.005204
     18 H                     0.144464      -0.000094
     19 H                     0.301473      -0.003516
  --------------------------------------------------------
  Sum of atomic charges =    -1.000000

                    Cartesian Multipole Moments
 -----------------------------------------------------------------
    Charge (ESU x 10^10)
                -4.8032
    Dipole Moment (Debye)
         X       6.6898      Y      -0.0519      Z      -0.5089
       Tot       6.7093
    Quadrupole Moments (Debye-Ang)
        XX     -92.5527     XY       0.0488     YY    -107.3177
        XZ       0.8080     YZ      -2.4636     ZZ     -81.2222

 Total job time:  344.58s(wall), 2024.24s(cpu)
        *  Thank you very much for using Q-Chem.  Have a nice day.  *
