 Q-Chem 5.4, Q-Chem, Inc., Pleasanton, CA (2021)
 Q-Chem 5.4.0 for Intel X86 EM64T Linux

User input:
--------------------------------------------------------------
$molecule
-1 2
O                 -0.3447460000      2.1699070000      0.2951340000
C                 -0.5352630000      0.9363600000      0.1055220000
C                  0.5484600000      0.0220340000     -0.1734980000
C                  0.3221030000     -1.3343660000     -0.3708980000
O                  1.3596500000     -2.2000110000     -0.6227200000
C                 -0.9903460000     -1.9472280000     -0.3528040000
O                 -1.1666260000     -3.1770810000     -0.5515020000
C                 -2.1017670000     -1.0276230000     -0.0826590000
C                 -3.4191290000     -1.5297680000     -0.0381230000
C                 -4.4921790000     -0.6969120000      0.2214180000
C                 -4.2789000000      0.6779460000      0.4466000000
C                 -2.9934620000      1.1893420000      0.4068750000
C                 -1.8875680000      0.3580100000      0.1453570000
C                  1.9400800000      0.6197190000     -0.2855980000
H                 -3.5545780000     -2.5908010000     -0.2145280000
H                 -5.4998790000     -1.1016890000      0.2519710000
H                 -5.1211320000      1.3329640000      0.6499580000
H                 -2.7966830000      2.2421530000      0.5747370000
C                  2.9267900000      0.0856680000      0.7223140000
C                  4.1778710000     -0.3640110000      0.5309280000
C                  4.8811080000     -0.4126780000     -0.8041830000
C                  5.0112750000     -0.8554150000      1.6910090000
H                  2.1809640000     -1.7747030000     -0.3457260000
H                  1.8055390000      1.6940480000     -0.1149880000
H                  2.3213260000      0.5035210000     -1.3070700000
H                  2.5454300000      0.0709000000      1.7426800000
H                  4.2422140000     -0.1101690000     -1.6334860000
H                  5.2527960000     -1.4238150000     -1.0125290000
H                  5.7584460000      0.2470870000     -0.7997590000
H                  4.4622610000     -0.7983860000      2.6332640000
H                  5.9309650000     -0.2646370000      1.7952870000
H                  5.3239720000     -1.8968210000      1.5413920000
$end
$rem
MAX_SCF_CYCLES=200
BASIS  =  6-311++G(d,p)
GUI  =  2
JOB_TYPE  =  SP
METHOD  =  B3LYP
SOLVENT_METHOD = PCM
$end
$pcm
theory = CPCM
$end
$solvent
dielectric 37.219
opticaldielectric 1.43
$end

--------------------------------------------------------------

             Standard Nuclear Orientation (Angstroms)
    I     Atom           X                Y                Z
 ----------------------------------------------------------------
    1      O      -0.3447460000     2.1699070000     0.2951340000
    2      C      -0.5352630000     0.9363600000     0.1055220000
    3      C       0.5484600000     0.0220340000    -0.1734980000
    4      C       0.3221030000    -1.3343660000    -0.3708980000
    5      O       1.3596500000    -2.2000110000    -0.6227200000
    6      C      -0.9903460000    -1.9472280000    -0.3528040000
    7      O      -1.1666260000    -3.1770810000    -0.5515020000
    8      C      -2.1017670000    -1.0276230000    -0.0826590000
    9      C      -3.4191290000    -1.5297680000    -0.0381230000
   10      C      -4.4921790000    -0.6969120000     0.2214180000
   11      C      -4.2789000000     0.6779460000     0.4466000000
   12      C      -2.9934620000     1.1893420000     0.4068750000
   13      C      -1.8875680000     0.3580100000     0.1453570000
   14      C       1.9400800000     0.6197190000    -0.2855980000
   15      H      -3.5545780000    -2.5908010000    -0.2145280000
   16      H      -5.4998790000    -1.1016890000     0.2519710000
   17      H      -5.1211320000     1.3329640000     0.6499580000
   18      H      -2.7966830000     2.2421530000     0.5747370000
   19      C       2.9267900000     0.0856680000     0.7223140000
   20      C       4.1778710000    -0.3640110000     0.5309280000
   21      C       4.8811080000    -0.4126780000    -0.8041830000
   22      C       5.0112750000    -0.8554150000     1.6910090000
   23      H       2.1809640000    -1.7747030000    -0.3457260000
   24      H       1.8055390000     1.6940480000    -0.1149880000
   25      H       2.3213260000     0.5035210000    -1.3070700000
   26      H       2.5454300000     0.0709000000     1.7426800000
   27      H       4.2422140000    -0.1101690000    -1.6334860000
   28      H       5.2527960000    -1.4238150000    -1.0125290000
   29      H       5.7584460000     0.2470870000    -0.7997590000
   30      H       4.4622610000    -0.7983860000     2.6332640000
   31      H       5.9309650000    -0.2646370000     1.7952870000
   32      H       5.3239720000    -1.8968210000     1.5413920000
 ----------------------------------------------------------------

    8    -806.0624841322      8.06e-06  Convergence criterion met
 Total energy in the final basis set =     -806.0624841322

                    Orbital Energies (a.u.)
 --------------------------------------------------------------

 Alpha MOs
 -- Occupied --
-19.1469 -19.0787 -19.0744 -10.2253 -10.2235 -10.2222 -10.1794 -10.1725
-10.1713 -10.1710 -10.1702 -10.1684 -10.1683 -10.1669 -10.1662 -10.1631
-10.1591 -10.1582  -1.0593  -1.0005  -0.9991  -0.8569  -0.8207  -0.8009
 -0.7580  -0.7491  -0.7184  -0.6895  -0.6773  -0.6420  -0.6161  -0.5966
 -0.5580  -0.5467  -0.5176  -0.5124  -0.4806  -0.4655  -0.4571  -0.4365
 -0.4329  -0.4308  -0.4242  -0.4218  -0.4183  -0.4134  -0.3982  -0.3869
 -0.3824  -0.3815  -0.3707  -0.3684  -0.3651  -0.3580  -0.3448  -0.3420
 -0.3358  -0.3304  -0.2661  -0.2562  -0.2513  -0.2486  -0.2346  -0.2285
 -0.1501

 Beta MOs
 -- Occupied --
-19.1462 -19.0725 -19.0693 -10.2237 -10.2218 -10.2199 -10.1794 -10.1721
-10.1708 -10.1705 -10.1696 -10.1684 -10.1680 -10.1664 -10.1661 -10.1630
-10.1591 -10.1582  -1.0573  -0.9908  -0.9887  -0.8547  -0.8199  -0.7976
 -0.7562  -0.7472  -0.7162  -0.6895  -0.6705  -0.6399  -0.6139  -0.5953
 -0.5550  -0.5445  -0.5170  -0.5107  -0.4792  -0.4626  -0.4559  -0.4344
 -0.4317  -0.4273  -0.4223  -0.4187  -0.4132  -0.4076  -0.3949  -0.3816
 -0.3806  -0.3774  -0.3682  -0.3655  -0.3598  -0.3492  -0.3428  -0.3354
 -0.3294  -0.3272  -0.2497  -0.2493  -0.2465  -0.2433  -0.2298  -0.2207

          Ground-State Mulliken Net Atomic Charges

     Atom                 Charge (a.u.)    Spin (a.u.)
  --------------------------------------------------------
      1 O                    -0.493135       0.193163
      2 C                    -0.930404       0.091922
      3 C                     1.352895       0.057315
      4 C                    -0.431395       0.120600
      5 O                    -0.331722       0.017166
      6 C                    -0.476728       0.131116
      7 O                    -0.518535       0.236643
      8 C                     0.507884      -0.002072
      9 C                    -0.032712       0.055639
     10 C                    -0.445696       0.014685
     11 C                    -0.501969       0.048030
     12 C                     0.063594       0.011887
     13 C                    -0.191141       0.023930
     14 C                    -0.011718       0.006929
     15 H                     0.166304      -0.003416
     16 H                     0.197960      -0.001532
     17 H                     0.195678      -0.003523
     18 H                     0.172832      -0.001234
     19 C                    -0.615859      -0.010796
     20 C                     0.646479       0.012567
     21 C                    -0.608737       0.000728
     22 C                    -0.629424      -0.000449
     23 H                     0.370804      -0.000166
     24 H                     0.206254      -0.001383
     25 H                     0.184653       0.002559
     26 H                     0.190128      -0.000728
     27 H                     0.163646      -0.000025
     28 H                     0.159053       0.000041
     29 H                     0.162263      -0.000014
     30 H                     0.166010       0.000376
     31 H                     0.153464      -0.000175
     32 H                     0.159276       0.000215
  --------------------------------------------------------
  Sum of atomic charges =    -1.000000

                    Cartesian Multipole Moments
 -----------------------------------------------------------------
    Charge (ESU x 10^10)
                -4.8032
    Dipole Moment (Debye)
         X       5.6917      Y       4.2123      Z       1.0970
       Tot       7.1654
    Quadrupole Moments (Debye-Ang)
        XX     -98.7923     XY      -7.9783     YY    -154.1189
        XZ      -1.8698     YZ      -8.0768     ZZ    -112.5871

 Total job time:  93.14s(wall), 509.99s(cpu)
        *  Thank you very much for using Q-Chem.  Have a nice day.  *
