 Q-Chem 5.4, Q-Chem, Inc., Pleasanton, CA (2021)
 Q-Chem 5.4.0 for Intel X86 EM64T Linux

User input:
--------------------------------------------------------------
$molecule
0 1
O                 -4.7056080000     -0.6612140000      0.9823790000
C                 -3.4839300000     -0.2273370000      0.5702630000
C                 -3.4432040000      0.9726380000     -0.1533690000
C                 -2.2287650000      1.4636780000     -0.5988130000
C                 -1.0350800000      0.7770550000     -0.3365170000
C                  0.2502540000      1.3312830000     -0.8290770000
O                  0.2971570000      2.3757570000     -1.4610670000
C                  1.4937280000      0.5600460000     -0.5216820000
C                  2.7236710000      1.0509370000     -0.9685340000
C                  3.8955260000      0.3540640000     -0.6967190000
C                  3.8496780000     -0.8417590000      0.0251700000
C                  2.6315380000     -1.3380650000      0.4737280000
C                  1.4477690000     -0.6435060000      0.2048290000
C                  0.1551420000     -1.1982680000      0.6978070000
O                  0.1073480000     -2.2420110000      1.3287050000
C                 -1.0858830000     -0.4250880000      0.3894720000
C                 -2.3081950000     -0.9232110000      0.8401790000
H                 -4.6173660000     -1.4895740000      1.4669940000
H                 -4.3705600000      1.4961770000     -0.3513760000
H                 -2.1777460000      2.3889410000     -1.1593250000
H                  2.7360580000      1.9792280000     -1.5261490000
H                  4.8466070000      0.7398470000     -1.0459330000
H                  4.7647670000     -1.3834010000      0.2359600000
H                  2.5722320000     -2.2624790000      1.0347710000
H                 -2.3151380000     -1.8537380000      1.3983020000
$end
$rem
MAX_SCF_CYCLES=200
BASIS  =  6-311++G(d,p)
GUI  =  2
JOB_TYPE  =  SP
METHOD  =  B3LYP
SOLVENT_METHOD = PCM
$end
$pcm
theory = CPCM
$end
$solvent
dielectric 37.219
opticaldielectric 1.43
$end

--------------------------------------------------------------

             Standard Nuclear Orientation (Angstroms)
    I     Atom           X                Y                Z
 ----------------------------------------------------------------
    1      O      -4.7056080000    -0.6612140000     0.9823790000
    2      C      -3.4839300000    -0.2273370000     0.5702630000
    3      C      -3.4432040000     0.9726380000    -0.1533690000
    4      C      -2.2287650000     1.4636780000    -0.5988130000
    5      C      -1.0350800000     0.7770550000    -0.3365170000
    6      C       0.2502540000     1.3312830000    -0.8290770000
    7      O       0.2971570000     2.3757570000    -1.4610670000
    8      C       1.4937280000     0.5600460000    -0.5216820000
    9      C       2.7236710000     1.0509370000    -0.9685340000
   10      C       3.8955260000     0.3540640000    -0.6967190000
   11      C       3.8496780000    -0.8417590000     0.0251700000
   12      C       2.6315380000    -1.3380650000     0.4737280000
   13      C       1.4477690000    -0.6435060000     0.2048290000
   14      C       0.1551420000    -1.1982680000     0.6978070000
   15      O       0.1073480000    -2.2420110000     1.3287050000
   16      C      -1.0858830000    -0.4250880000     0.3894720000
   17      C      -2.3081950000    -0.9232110000     0.8401790000
   18      H      -4.6173660000    -1.4895740000     1.4669940000
   19      H      -4.3705600000     1.4961770000    -0.3513760000
   20      H      -2.1777460000     2.3889410000    -1.1593250000
   21      H       2.7360580000     1.9792280000    -1.5261490000
   22      H       4.8466070000     0.7398470000    -1.0459330000
   23      H       4.7647670000    -1.3834010000     0.2359600000
   24      H       2.5722320000    -2.2624790000     1.0347710000
   25      H      -2.3151380000    -1.8537380000     1.3983020000
 ----------------------------------------------------------------

    9    -764.2223076812      1.61e-06  Convergence criterion met
 Total energy in the final basis set =     -764.2223076812

                    Orbital Energies (a.u.)
 --------------------------------------------------------------

 Alpha MOs
 -- Occupied --
-19.1732 -19.1336 -19.1283 -10.2852 -10.2810 -10.2640 -10.2119 -10.2080
-10.2074 -10.2024 -10.1996 -10.1968 -10.1967 -10.1966 -10.1959 -10.1956
-10.1951  -1.0856  -1.0684  -1.0632  -0.8935  -0.8809  -0.8104  -0.7807
 -0.7771  -0.7672  -0.6896  -0.6762  -0.6425  -0.6274  -0.5875  -0.5804
 -0.5616  -0.5297  -0.5095  -0.4939  -0.4861  -0.4619  -0.4577  -0.4561
 -0.4543  -0.4486  -0.4461  -0.4307  -0.4215  -0.4200  -0.4003  -0.3832
 -0.3822  -0.3730  -0.3652  -0.3528  -0.2894  -0.2874  -0.2804  -0.2775
 -0.2761  -0.2541

          Ground-State Mulliken Net Atomic Charges

     Atom                 Charge (a.u.)
  ----------------------------------------
      1 O                    -0.267402
      2 C                    -0.629795
      3 C                    -0.149181
      4 C                     0.193989
      5 C                     0.166869
      6 C                    -0.533474
      7 O                    -0.302898
      8 C                     0.129215
      9 C                     0.167339
     10 C                    -0.440655
     11 C                    -0.410716
     12 C                     0.160840
     13 C                     0.228232
     14 C                    -0.579304
     15 O                    -0.287225
     16 C                     0.450784
     17 C                     0.293427
     18 H                     0.330407
     19 H                     0.247306
     20 H                     0.202817
     21 H                     0.197332
     22 H                     0.222775
     23 H                     0.223866
     24 H                     0.196530
     25 H                     0.188922
  ----------------------------------------
  Sum of atomic charges =     0.000000

                    Cartesian Multipole Moments
 -----------------------------------------------------------------
    Charge (ESU x 10^10)
                 0.0000
    Dipole Moment (Debye)
         X       0.4468      Y      -1.6991      Z       0.9636
       Tot       2.0038
    Quadrupole Moments (Debye-Ang)
        XX     -71.8972     XY       2.8302     YY    -104.0465
        XZ      -5.1752     YZ       2.1157     ZZ    -100.5571

 Total job time:  63.37s(wall), 323.23s(cpu)
        *  Thank you very much for using Q-Chem.  Have a nice day.  *
