 Gaussian 16, Revision A.03,
 Gaussian 16:  ES64L-G16RevA.03 25-Dec-2016

 --------------------------------------
 #P UB3LYP/6-311++G(d,p) nosym opt freq
 --------------------------------------

 -------
 Reduced
 -------
 Symbolic Z-matrix:
 Charge = -2 Multiplicity = 1

 SCF Done:  E(UB3LYP) =  -989.959049714     A.U. after   23 cycles
 Optimization completed.
    -- Stationary point found.
 Normal termination of Gaussian 16 at Sun Jan 14 01:40:06 2024.

 ----------------------------------------------------------------------
 #P Geom=AllCheck Guess=TCheck SCRF=Check GenChk UB3LYP/6-311++G(d,p) F
 req
 ----------------------------------------------------------------------

 Structure from the checkpoint file:  "204-an.chk"
 -------
 Reduced
 -------
 Charge = -2 Multiplicity = 1

                          Input orientation:
 ---------------------------------------------------------------------
 Center     Atomic      Atomic             Coordinates (Angstroms)
 Number     Number       Type             X           Y           Z
 ---------------------------------------------------------------------
      1          8           0        4.870340   -0.934024    0.017666
      2          6           0        3.639669   -0.274288    0.058308
      3          6           0        3.580776    1.134444    0.126084
      4          6           0        2.346337    1.758472    0.165120
      5          6           0        1.134808    1.027023    0.139396
      6          6           0       -0.142741    1.743611    0.183275
      7          8           0       -0.160876    3.010777    0.243714
      8          6           0       -1.335118    0.902891    0.152496
      9          6           0       -2.659042    1.447272    0.189265
     10          8           0       -2.841035    2.826216    0.257337
     11          6           0       -3.780477    0.643814    0.159173
     12          6           0       -3.668980   -0.774805    0.090855
     13          6           0       -2.431089   -1.362920    0.052472
     14          8           0       -2.333368   -2.725571   -0.014196
     15          6           0       -1.226440   -0.558181    0.081472
     16          6           0        0.029841   -1.200058    0.041349
     17          8           0        0.152967   -2.557791   -0.024107
     18          6           0        1.199088   -0.403233    0.070574
     19          6           0        2.486058   -1.027668    0.031077
     20          8           0        2.601465   -2.390377   -0.034351
     21          1           0        4.625626   -1.870839   -0.024379
     22          1           0        4.507745    1.701282    0.145872
     23          1           0        2.263264    2.838329    0.217222
     24          1           0       -3.796133    2.951937    0.285486
     25          1           0       -4.768068    1.106356    0.187916
     26          1           0       -4.554214   -1.403795    0.067378
     27          1           0       -1.333977   -2.910706   -0.030179
     28          1           0        1.593576   -2.698968   -0.041238
 ---------------------------------------------------------------------

 SCF Done:  E(UB3LYP) =  -989.959049714     A.U. after    1 cycles

 Alpha  occ. eigenvalues --  -18.92138 -18.90916 -18.88037 -18.87052 -18.82063
 Alpha  occ. eigenvalues --  -18.78422  -9.98374  -9.97785  -9.97585  -9.97413
 Alpha  occ. eigenvalues --   -9.95467  -9.94761  -9.93006  -9.92357  -9.91927
 Alpha  occ. eigenvalues --   -9.91927  -9.91817  -9.91759  -9.91430  -9.90785
 Alpha  occ. eigenvalues --   -0.82892  -0.81599  -0.79005  -0.78306  -0.71105
 Alpha  occ. eigenvalues --   -0.70806  -0.60024  -0.58679  -0.53145  -0.49037
 Alpha  occ. eigenvalues --   -0.48427  -0.47917  -0.41814  -0.39307  -0.38887
 Alpha  occ. eigenvalues --   -0.34844  -0.33080  -0.30371  -0.30083  -0.27551
 Alpha  occ. eigenvalues --   -0.26834  -0.23562  -0.22834  -0.22204  -0.21015
 Alpha  occ. eigenvalues --   -0.19784  -0.18802  -0.17955  -0.17002  -0.16765
 Alpha  occ. eigenvalues --   -0.16165  -0.14714  -0.14349  -0.13686  -0.12902
 Alpha  occ. eigenvalues --   -0.12868  -0.12639  -0.11010  -0.10898  -0.10501
 Alpha  occ. eigenvalues --   -0.08408  -0.08218  -0.06408  -0.05142  -0.00408
 Alpha  occ. eigenvalues --   -0.00204   0.01264   0.03384   0.03923   0.04458
 Alpha  occ. eigenvalues --    0.12097
 Alpha virt. eigenvalues --    0.15737   0.17168   0.17785   0.18408   0.20221
 Alpha virt. eigenvalues --    0.21150   0.21403   0.21600   0.22649   0.24418
 Alpha virt. eigenvalues --    0.25075   0.25424   0.26318   0.26340   0.26676

  Beta  occ. eigenvalues --  -18.92138 -18.90916 -18.88037 -18.87052 -18.82063
  Beta  occ. eigenvalues --  -18.78422  -9.98374  -9.97785  -9.97585  -9.97413
  Beta  occ. eigenvalues --   -9.95467  -9.94761  -9.93006  -9.92357  -9.91927
  Beta  occ. eigenvalues --   -9.91927  -9.91817  -9.91759  -9.91430  -9.90785
  Beta  occ. eigenvalues --   -0.82892  -0.81599  -0.79005  -0.78306  -0.71105
  Beta  occ. eigenvalues --   -0.70806  -0.60024  -0.58679  -0.53145  -0.49037
  Beta  occ. eigenvalues --   -0.48427  -0.47917  -0.41814  -0.39307  -0.38887
  Beta  occ. eigenvalues --   -0.34844  -0.33080  -0.30371  -0.30083  -0.27551
  Beta  occ. eigenvalues --   -0.26834  -0.23562  -0.22834  -0.22204  -0.21015
  Beta  occ. eigenvalues --   -0.19784  -0.18802  -0.17955  -0.17002  -0.16765
  Beta  occ. eigenvalues --   -0.16165  -0.14714  -0.14349  -0.13686  -0.12902
  Beta  occ. eigenvalues --   -0.12868  -0.12639  -0.11010  -0.10898  -0.10501
  Beta  occ. eigenvalues --   -0.08408  -0.08218  -0.06408  -0.05142  -0.00408
  Beta  occ. eigenvalues --   -0.00204   0.01264   0.03384   0.03923   0.04458
  Beta  occ. eigenvalues --    0.12097
  Beta virt. eigenvalues --    0.15737   0.17168   0.17785   0.18408   0.20221
  Beta virt. eigenvalues --    0.21150   0.21403   0.21600   0.22649   0.24418
  Beta virt. eigenvalues --    0.25075   0.25424   0.26318   0.26340   0.26676

 Mulliken charges and spin densities:
               1          2
     1  O   -0.340437   0.000000
     2  C   -0.366701   0.000000
     3  C   -0.003974  -0.000000
     4  C    0.000189  -0.000000
     5  C    0.329996   0.000000
     6  C   -0.588876  -0.000000
     7  O   -0.460465   0.000000
     8  C    0.155863  -0.000000
     9  C   -0.265388  -0.000000
    10  O   -0.199831  -0.000000
    11  C   -0.271211   0.000000
    12  C   -0.133766  -0.000000
    13  C   -0.326938  -0.000000
    14  O   -0.454733   0.000000
    15  C    0.629054   0.000000
    16  C   -0.423992   0.000000
    17  O   -0.734651   0.000000
    18  C    0.466523   0.000000
    19  C   -0.178744  -0.000000
    20  O   -0.587070   0.000000
    21  H    0.259928  -0.000000
    22  H    0.110903  -0.000000
    23  H    0.127850   0.000000
    24  H    0.203973   0.000000
    25  H    0.029182   0.000000
    26  H    0.089046  -0.000000
    27  H    0.415113  -0.000000
    28  H    0.519159  -0.000000
 Sum of Mulliken charges =  -2.00000  -0.00000

 Dipole moment (field-independent basis, Debye):
    X=             -1.6680    Y=             -0.5132    Z=             -0.9463  Tot=              1.9852
 Quadrupole moment (field-independent basis, Debye-Ang):
   XX=           -186.2144   YY=           -178.3872   ZZ=           -127.0481
   XY=             -3.3581   XZ=              0.0599   YZ=             -2.4290

  Exact polarizability: 405.301  -0.390 246.356  -2.774   6.371 118.444
 Approx polarizability: 684.669  -0.098 461.584  -4.335  13.584 181.065

                      1                      2                      3
                      A                      A                      A
 Frequencies --     36.6018                56.7118                66.5934
 Red. masses --      2.8513                 5.6386                 1.7113
 Frc consts  --      0.0023                 0.0107                 0.0045
 IR Inten    --     23.5329                 4.4802                20.0403

                      4                      5                      6
                      A                      A                      A
 Frequencies --    101.6527               117.9828               130.6419
 Red. masses --      6.5198                 7.9112                 9.5231
 Frc consts  --      0.0397                 0.0649                 0.0958
 IR Inten    --      0.3427                 1.7514                 0.3616

                      7                      8                      9
                      A                      A                      A
 Frequencies --    190.3479               202.7747               266.3942
 Red. masses --      6.8712                 7.2443                 5.3668
 Frc consts  --      0.1467                 0.1755                 0.2244
 IR Inten    --      8.9499                 1.1088                 1.2689

                     10                     11                     12
                      A                      A                      A
 Frequencies --    269.1207               312.7420               325.7932
 Red. masses --      7.1650                 5.5833                 8.5371
 Frc consts  --      0.3057                 0.3217                 0.5339
 IR Inten    --     17.3041                 3.8252                 2.9429

                     13                     14                     15
                      A                      A                      A
 Frequencies --    340.6944               352.0810               360.4697
 Red. masses --      5.5047                10.3409                 6.7712
 Frc consts  --      0.3765                 0.7553                 0.5184
 IR Inten    --      8.5058                 1.8089                 3.2976

                     16                     17                     18
                      A                      A                      A
 Frequencies --    377.3169               406.9905               431.8170
 Red. masses --      6.8844                 6.6352                 8.5611
 Frc consts  --      0.5775                 0.6475                 0.9405
 IR Inten    --      5.6303                38.8492                73.7907

                     19                     20                     21
                      A                      A                      A
 Frequencies --    453.9100               456.4645               475.5924
 Red. masses --      1.5342                10.1015                 9.2498
 Frc consts  --      0.1862                 1.2401                 1.2327
 IR Inten    --     62.7667                 7.9950                 2.2289

                     22                     23                     24
                      A                      A                      A
 Frequencies --    491.1254               502.4973               532.0792
 Red. masses --      8.1583                 2.6945                 7.7604
 Frc consts  --      1.1594                 0.4009                 1.2945
 IR Inten    --      9.8522                12.6683                 5.4765

                     25                     26                     27
                      A                      A                      A
 Frequencies --    543.4752               576.6890               584.0715
 Red. masses --      3.6646                 5.3320                 2.6132
 Frc consts  --      0.6377                 1.0448                 0.5252
 IR Inten    --      2.3267                27.7583                57.3393

                     28                     29                     30
                      A                      A                      A
 Frequencies --    619.1917               627.6652               653.9261
 Red. masses --      3.5284                 6.4600                 2.1739
 Frc consts  --      0.7970                 1.4995                 0.5477
 IR Inten    --     13.2546                37.9453                 9.6446

                     31                     32                     33
                      A                      A                      A
 Frequencies --    702.2979               704.3064               725.6614
 Red. masses --      6.1405                 3.7195                 2.6980
 Frc consts  --      1.7844                 1.0871                 0.8371
 IR Inten    --     22.1175                 4.2865                15.8582

                     34                     35                     36
                      A                      A                      A
 Frequencies --    736.2652               736.9293               766.2667
 Red. masses --      7.0386                 2.3696                 2.0102
 Frc consts  --      2.2481                 0.7582                 0.6954
 IR Inten    --     43.1019                22.4955                26.5956

                     37                     38                     39
                      A                      A                      A
 Frequencies --    794.1294               795.6507               845.5415
 Red. masses --      9.1748                 6.6677                 9.0698
 Frc consts  --      3.4090                 2.4870                 3.8205
 IR Inten    --    184.7701                 0.1126                17.9158

                     40                     41                     42
                      A                      A                      A
 Frequencies --    905.3542               922.1262               954.5116
 Red. masses --      7.2656                 1.2516                 1.0532
 Frc consts  --      3.5088                 0.6271                 0.5654
 IR Inten    --    103.9690                 2.0130                80.6853

                     43                     44                     45
                      A                      A                      A
 Frequencies --    977.3297              1019.3079              1060.5129
 Red. masses --      6.5573                 3.3507                 2.1769
 Frc consts  --      3.6903                 2.0512                 1.4425
 IR Inten    --     81.7585                54.2783               182.3943

                     46                     47                     48
                      A                      A                      A
 Frequencies --   1072.7891              1117.6999              1148.2105
 Red. masses --      1.0442                 2.2862                 1.7265
 Frc consts  --      0.7080                 1.6827                 1.3411
 IR Inten    --     40.3397                28.9182                 0.4083

                     49                     50                     51
                      A                      A                      A
 Frequencies --   1158.4611              1202.9168              1214.7596
 Red. masses --      3.5580                 3.5801                 2.1744
 Frc consts  --      2.8133                 3.0522                 1.8905
 IR Inten    --     77.4768                47.2033               512.6118

                     52                     53                     54
                      A                      A                      A
 Frequencies --   1216.5728              1230.1015              1260.6047
 Red. masses --      1.8545                 2.8059                 2.9272
 Frc consts  --      1.6171                 2.5015                 2.7407
 IR Inten    --      6.8492                22.4240               233.7924

                     55                     56                     57
                      A                      A                      A
 Frequencies --   1280.7271              1305.5666              1354.2793
 Red. masses --      5.0551                 3.2548                 3.1885
 Frc consts  --      4.8853                 3.2686                 3.4455
 IR Inten    --     69.7936                37.6552               133.1457

                     58                     59                     60
                      A                      A                      A
 Frequencies --   1360.4819              1388.6472              1408.0463
 Red. masses --      3.6621                 4.8594                 3.6235
 Frc consts  --      3.9937                 5.5210                 4.2327
 IR Inten    --     52.8165                13.6492               207.6556

                     61                     62                     63
                      A                      A                      A
 Frequencies --   1441.1923              1475.0775              1495.3905
 Red. masses --      2.9940                 2.7796                 3.4126
 Frc consts  --      3.6640                 3.5634                 4.4962
 IR Inten    --    320.1856               195.8854                21.8000

                     64                     65                     66
                      A                      A                      A
 Frequencies --   1520.9776              1554.1546              1564.5805
 Red. masses --      7.4362                 3.2600                 3.6768
 Frc consts  --     10.1356                 4.6394                 5.3029
 IR Inten    --    763.4780               466.4208               320.8803

                     67                     68                     69
                      A                      A                      A
 Frequencies --   1570.8423              1601.2906              1631.2751
 Red. masses --      3.5316                 4.1445                 3.5609
 Frc consts  --      5.1344                 6.2612                 5.5829
 IR Inten    --    177.9349                34.0550                73.4759

                     70                     71                     72
                      A                      A                      A
 Frequencies --   1698.0856              2253.8089              2795.9520
 Red. masses --      1.8176                 1.0826                 1.0775
 Frc consts  --      3.0879                 3.2400                 4.9627
 IR Inten    --     12.3872               820.7591               327.2123

                     73                     74                     75
                      A                      A                      A
 Frequencies --   3078.1041              3134.1633              3142.7560
 Red. masses --      1.0861                 1.0870                 1.0902
 Frc consts  --      6.0628                 6.2909                 6.3444
 IR Inten    --     89.3279                45.4592                75.5462

                     76                     77                     78
                      A                      A                      A
 Frequencies --   3173.9549              3723.0048              3786.8596
 Red. masses --      1.0909                 1.0647                 1.0649
 Frc consts  --      6.4750                 8.6947                 8.9970
 IR Inten    --     31.0666                39.3006                 1.3329

 - Thermochemistry -
 -------------------
 Temperature   298.150 Kelvin.  Pressure   1.00000 Atm.
 Atom     1 has atomic number  8 and mass  15.99491

 Molecular mass:   272.03209 amu.
 Principal axes and moments of inertia in atomic units:
                           1         2         3
     Eigenvalues --  2949.988766620.606459570.59288
           X            0.98656   0.16325   0.00767
           Y           -0.16270   0.98552  -0.04783
           Z           -0.01537   0.04594   0.99883
 This molecule is an asymmetric top.
 Rotational symmetry number  1.
 Warning -- assumption of classical behavior for rotation
           may cause significant error
 Rotational temperatures (Kelvin)      0.02936     0.01308     0.00905
 Rotational constants (GHZ):           0.61178     0.27259     0.18857
 Zero-point vibrational energy     495678.3 (Joules/Mol)
                                  118.46996 (Kcal/Mol)
 Warning -- explicit consideration of  28 degrees of freedom as
           vibrations may cause significant error
 Vibrational temperatures:     52.66    81.60    95.81   146.26   169.75
          (Kelvin)            187.96   273.87   291.75   383.28   387.20
                              449.97   468.74   490.18   506.57   518.64
                              542.87   585.57   621.29   653.08   656.75
                              684.27   706.62   722.98   765.54   781.94
                              829.73   840.35   890.88   903.07   940.85
                             1010.45  1013.34  1044.06  1059.32  1060.28
                             1102.49  1142.58  1144.76  1216.55  1302.60
                             1326.73  1373.33  1406.16  1466.56  1525.84
                             1543.50  1608.12  1652.02  1666.77  1730.73
                             1747.77  1750.38  1769.84  1813.73  1842.68
                             1878.42  1948.51  1957.43  1997.95  2025.86
                             2073.55  2122.31  2151.53  2188.35  2236.08
                             2251.08  2260.09  2303.90  2347.04  2443.17
                             3242.73  4022.75  4428.71  4509.36  4521.72
                             4566.61  5356.57  5448.45

 Zero-point correction=                           0.188794 (Hartree/Particle)
 Thermal correction to Energy=                    0.204797
 Thermal correction to Enthalpy=                  0.205742
 Thermal correction to Gibbs Free Energy=         0.145403
 Sum of electronic and zero-point Energies=           -989.770256
 Sum of electronic and thermal Energies=              -989.754252
 Sum of electronic and thermal Enthalpies=            -989.753308
 Sum of electronic and thermal Free Energies=         -989.813646

                     E (Thermal)             CV                S
                      KCal/Mol        Cal/Mol-Kelvin    Cal/Mol-Kelvin
 Total                  128.512             63.511            126.993
 Electronic               0.000              0.000              0.000
 Translational            0.889              2.981             42.701
 Rotational               0.889              2.981             33.591
 Vibrational            126.735             57.549             50.701
 Vibration     1          0.594              1.982              5.435
 Vibration     2          0.596              1.975              4.568
 Vibration     3          0.598              1.970              4.252
 Vibration     4          0.604              1.948              3.422
 Vibration     5          0.608              1.934              3.133
 Vibration     6          0.612              1.923              2.937
 Vibration     7          0.634              1.853              2.224
 Vibration     8          0.639              1.836              2.108
 Vibration     9          0.672              1.735              1.619
 Vibration    10          0.674              1.730              1.602
 Vibration    11          0.701              1.649              1.348
 Vibration    12          0.710              1.624              1.281
 Vibration    13          0.720              1.594              1.209
 Vibration    14          0.729              1.571              1.157
 Vibration    15          0.735              1.554              1.120
 Vibration    16          0.748              1.518              1.050
 Vibration    17          0.772              1.455              0.937
 Vibration    18          0.793              1.401              0.853
 Vibration    19          0.812              1.352              0.784
 Vibration    20          0.815              1.347              0.776
 Vibration    21          0.832              1.304              0.722
 Vibration    22          0.847              1.270              0.681
 Vibration    23          0.858              1.244              0.652
 Vibration    24          0.887              1.179              0.583
 Vibration    25          0.899              1.154              0.558
 Vibration    26          0.933              1.082              0.492
 Vibration    27          0.941              1.066              0.478
 Vibration    28          0.979              0.991              0.418

                           ! Non-Optimized Parameters !
 Normal termination of Gaussian 16 at Sun Jan 14 02:18:08 2024.
