 Q-Chem 5.4, Q-Chem, Inc., Pleasanton, CA (2021)
 Q-Chem 5.4.0 for Intel X86 EM64T Linux

User input:
--------------------------------------------------------------
$molecule
-2 1
O                  4.8703400000     -0.9340240000      0.0176660000
C                  3.6396690000     -0.2742880000      0.0583080000
C                  3.5807760000      1.1344440000      0.1260840000
C                  2.3463370000      1.7584720000      0.1651200000
C                  1.1348080000      1.0270230000      0.1393960000
C                 -0.1427410000      1.7436110000      0.1832750000
O                 -0.1608760000      3.0107770000      0.2437140000
C                 -1.3351180000      0.9028910000      0.1524960000
C                 -2.6590420000      1.4472720000      0.1892650000
O                 -2.8410350000      2.8262160000      0.2573370000
C                 -3.7804770000      0.6438140000      0.1591730000
C                 -3.6689800000     -0.7748050000      0.0908550000
C                 -2.4310890000     -1.3629200000      0.0524720000
O                 -2.3333680000     -2.7255710000     -0.0141960000
C                 -1.2264400000     -0.5581810000      0.0814720000
C                  0.0298410000     -1.2000580000      0.0413490000
O                  0.1529670000     -2.5577910000     -0.0241070000
C                  1.1990880000     -0.4032330000      0.0705740000
C                  2.4860580000     -1.0276680000      0.0310770000
O                  2.6014650000     -2.3903770000     -0.0343510000
H                  4.6256260000     -1.8708390000     -0.0243790000
H                  4.5077450000      1.7012820000      0.1458720000
H                  2.2632640000      2.8383290000      0.2172220000
H                 -3.7961330000      2.9519370000      0.2854860000
H                 -4.7680680000      1.1063560000      0.1879160000
H                 -4.5542140000     -1.4037950000      0.0673780000
H                 -1.3339770000     -2.9107060000     -0.0301790000
H                  1.5935760000     -2.6989680000     -0.0412380000
$end
$rem
MAX_SCF_CYCLES=200
BASIS  =  6-311++G(d,p)
GUI  =  2
JOB_TYPE  =  SP
METHOD  =  B3LYP
SOLVENT_METHOD = COSMO
$end
$solvent
dielectric 37.219
opticaldielectric 1.43
$end

--------------------------------------------------------------

             Standard Nuclear Orientation (Angstroms)
    I     Atom           X                Y                Z
 ----------------------------------------------------------------
    1      O       4.8688078978    -0.1399515153     0.0005953930
    2      C       3.5491417201     0.3182356079     0.0001353800
    3      C       3.2681667708     1.7015796935    -0.0000598281
    4      C       1.9504263695     2.1238763739    -0.0004435532
    5      C       0.8697005052     1.2098121048    -0.0004459545
    6      C      -0.5052536094     1.7168192674    -0.0007551569
    7      O      -0.7235837485     2.9666285271    -0.0011880611
    8      C      -1.5497879116     0.6977665897    -0.0004282372
    9      C      -2.9433125582     1.0272604789     0.0000478296
   10      O      -3.3411524298     2.3617884499     0.0006268587
   11      C      -3.9236749873     0.0562011590    -0.0001768595
   12      C      -3.5891933742    -1.3286095012     0.0003551481
   13      C      -2.2737086052    -1.7149073490    -0.0003015395
   14      O      -1.9616663981    -3.0466134196    -0.0009067735
   15      C      -1.2113648398    -0.7294882944    -0.0005884503
   16      C       0.1307692953    -1.1659900126    -0.0002678844
   17      O       0.4671040195    -2.4887757219     0.0002975479
   18      C       1.1593993143    -0.1939596581    -0.0002236682
   19      C       2.5290805031    -0.6083799566     0.0001233767
   20      O       2.8585764131    -1.9372920179     0.0008955774
   21      H       4.7753073832    -1.1045922697     0.0015632741
   22      H       4.0939217234     2.4080477484    -0.0002963122
   23      H       1.6975926874     3.1782870744    -0.0007366547
   24      H      -4.3044479055     2.3362016056     0.0153735747
   25      H      -4.9720938327     0.3577373926    -0.0012110733
   26      H      -4.3638973457    -2.0899586706     0.0002034906
   27      H      -0.9454654955    -3.0720726563    -0.0003166643
   28      H       1.9120651969    -2.4012236629     0.0010324106
 ----------------------------------------------------------------

   11    -989.9592423923      9.24e-06  Convergence criterion met
 Total energy in the final basis set =     -989.9592423923
    6    -990.2261788933      2.55e-06  Convergence criterion met
 Total energy in the final basis set =     -990.2261788933

                    Orbital Energies (a.u.)
 --------------------------------------------------------------

 Alpha MOs
 -- Occupied --
-19.1404 -19.1319 -19.1144 -19.1096 -19.0658 -19.0344 -10.2129 -10.2097
-10.2082 -10.2076 -10.1985 -10.1900 -10.1589 -10.1574 -10.1567 -10.1542
-10.1506 -10.1477 -10.1468 -10.1455  -1.0519  -1.0393  -1.0282  -1.0180
 -0.9606  -0.9548  -0.8369  -0.8199  -0.7656  -0.7255  -0.7182  -0.7123
 -0.6537  -0.6257  -0.6203  -0.5776  -0.5627  -0.5354  -0.5292  -0.5093
 -0.4981  -0.4708  -0.4636  -0.4546  -0.4419  -0.4266  -0.4220  -0.4081
 -0.4042  -0.4004  -0.3964  -0.3818  -0.3794  -0.3784  -0.3640  -0.3636
 -0.3575  -0.3501  -0.3421  -0.3380  -0.3274  -0.3237  -0.3006  -0.2876
 -0.2458  -0.2443  -0.2233  -0.2070  -0.2037  -0.1964  -0.1206

          Ground-State Mulliken Net Atomic Charges

     Atom                 Charge (a.u.)
  ----------------------------------------
      1 O                    -0.370012
      2 C                    -0.348353
      3 C                    -0.100302
      4 C                    -0.097887
      5 C                     0.181549
      6 C                    -0.346052
      7 O                    -0.633588
      8 C                     0.029633
      9 C                    -0.242382
     10 O                    -0.300157
     11 C                    -0.270730
     12 C                    -0.266162
     13 C                    -0.232862
     14 O                    -0.509140
     15 C                     0.594830
     16 C                    -0.337530
     17 O                    -0.818676
     18 C                     0.433775
     19 C                    -0.085874
     20 O                    -0.616086
     21 H                     0.320165
     22 H                     0.211840
     23 H                     0.161215
     24 H                     0.302782
     25 H                     0.170255
     26 H                     0.187762
     27 H                     0.442261
     28 H                     0.539727
  ----------------------------------------
  Sum of atomic charges =    -2.000000

                    Cartesian Multipole Moments
 -----------------------------------------------------------------
    Charge (ESU x 10^10)
                -9.6064
    Dipole Moment (Debye)
         X      -1.6254      Y      -1.4839      Z       0.0323
       Tot       2.2011
    Quadrupole Moments (Debye-Ang)
        XX    -156.6035     XY      -1.4172     YY    -181.3265
        XZ      -0.1295     YZ       0.0709     ZZ    -126.2337

 Total job time:  83.36s(wall), 607.32s(cpu)
        *  Thank you very much for using Q-Chem.  Have a nice day.  *
