 Q-Chem 5.4, Q-Chem, Inc., Pleasanton, CA (2021)
 Q-Chem 5.4.0 for Intel X86 EM64T Linux

User input:
--------------------------------------------------------------
$molecule
0 1
C                 -0.2813380000      3.8277270000     -0.2049140000
C                 -1.5009200000      3.2198460000     -0.4864350000
C                 -1.5400720000      1.8765220000     -0.8646210000
C                  0.8997580000      3.0882560000     -0.3029590000
C                  0.8636270000      1.7366020000     -0.6829820000
C                 -0.3629890000      1.1367190000     -0.9624350000
C                  2.1997990000      3.7173910000     -0.0075430000
C                  3.4307270000      2.8850750000     -0.1329490000
C                  3.4206310000      1.5766590000     -0.4882910000
C                  2.1269150000      0.9294730000     -0.7915690000
O                  2.3341060000      4.8866400000      0.3359000000
O                  2.0753700000     -0.2466970000     -1.1235150000
H                 -0.2253940000      4.8681840000      0.0908860000
H                 -2.4196620000      3.7899910000     -0.4119590000
H                 -2.4912770000      1.4047620000     -1.0836670000
H                 -0.3754750000      0.0939320000     -1.2542270000
O                  4.5657480000      3.5464040000      0.1466590000
C                  4.6791100000      0.7656340000     -0.6178520000
C                  5.2488300000      0.7709920000     -2.0528590000
C                  6.5256330000     -0.0661040000     -2.1807230000
C                  7.1095400000     -0.0701350000     -3.5980000000
C                  8.3873180000     -0.9064920000     -3.7316810000
H                  4.2974540000      4.4540190000      0.3856990000
H                  4.4582660000     -0.2649000000     -0.3289120000
H                  5.4313590000      1.1592710000      0.0705050000
H                  5.4555290000      1.8044800000     -2.3532190000
H                  4.4877560000      0.3860090000     -2.7397860000
H                  6.3129610000     -1.0977860000     -1.8730840000
H                  7.2797360000      0.3134420000     -1.4791800000
H                  7.3193890000      0.9624430000     -3.9057270000
H                  6.3543780000     -0.4487840000     -4.2987050000
H                  8.1772250000     -1.9389630000     -3.4236830000
H                  9.1421400000     -0.5282620000     -3.0300210000
C                  8.9725800000     -0.9115720000     -5.1482150000
H                  9.1829830000      0.1208190000     -5.4571240000
H                  8.2182040000     -1.2898720000     -5.8505250000
C                 10.2503030000     -1.7475690000     -5.2840620000
C                 10.8273250000     -1.7464010000     -6.7027160000
H                 10.0403380000     -2.7792540000     -4.9763550000
H                 11.0045320000     -1.3696180000     -4.5830070000
H                 10.1088680000     -2.1519100000     -7.4222460000
H                 11.7366290000     -2.3507670000     -6.7656210000
H                 11.0802730000     -0.7315760000     -7.0260000000
$end
$rem
MAX_SCF_CYCLES=200
SCF_Guess=core
BASIS  =  6-311++G(d,p)
GUI  =  2
JOB_TYPE  =  SP
METHOD  =  B3LYP
THRESH = 14
SCF_CONVERGENCE = 8
SOLVENT_METHOD = COSMO
$end
$solvent
dielectric 37.219
opticaldielectric 1.43
$end

--------------------------------------------------------------

             Standard Nuclear Orientation (Angstroms)
    I     Atom           X                Y                Z
 ----------------------------------------------------------------
    1      C       5.2702037211    -0.1459900475    -0.9086624321
    2      C       5.9266460796     1.0793235562    -0.9706595340
    3      C       5.2970635307     2.2327533031    -0.4991698397
    4      C       3.9815406343    -0.2147403082    -0.3738364853
    5      C       3.3455873582     0.9438443697     0.1014912335
    6      C       4.0116781241     2.1663404165     0.0354086216
    7      C       3.2727753654    -1.5052705193    -0.3005450747
    8      C       1.8968470626    -1.5225084977     0.2740717434
    9      C       1.2661557470    -0.4198439633     0.7480777394
   10      C       1.9596283468     0.8836072296     0.6799668475
   11      O       3.7444471429    -2.5700127851    -0.6839304292
   12      O       1.4222389548     1.9032940529     1.0894449623
   13      H       5.7380009576    -1.0545808771    -1.2675587820
   14      H       6.9264079141     1.1372267859    -1.3851741280
   15      H       5.8101512429     3.1865038029    -0.5484707878
   16      H       3.5089845681     3.0511796235     0.4056274289
   17      O       1.3290122252    -2.7395163512     0.2903454082
   18      C      -0.1263166488    -0.4658250663     1.3113035927
   19      C      -1.2103565382    -0.1787796243     0.2500227114
   20      C      -2.6268615058    -0.2166011880     0.8325928980
   21      C      -3.7184351837     0.0620485980    -0.2068583663
   22      C      -5.1379700535     0.0256004259     0.3707855921
   23      H       1.9898000493    -3.3507811027    -0.0872809089
   24      H      -0.2032188153     0.2802642699     2.1060963206
   25      H      -0.3028575075    -1.4512138531     1.7500589566
   26      H      -1.1256316762    -0.9144827076    -0.5578143535
   27      H      -1.0227244536     0.8045632230    -0.1939877532
   28      H      -2.7028698992     0.5180031465     1.6442689903
   29      H      -2.8044909887    -1.1983293372     1.2903555979
   30      H      -3.6398091364    -0.6716247143    -1.0195644946
   31      H      -3.5392406547     1.0433540034    -0.6646369489
   32      H      -5.2162390198     0.7592158434     1.1836081993
   33      H      -5.3166297160    -0.9556164178     0.8295177262
   34      C      -6.2307286848     0.3039576065    -0.6672519033
   35      H      -6.1531363780    -0.4293869038    -1.4807078841
   36      H      -6.0527415847     1.2852542037    -1.1263934458
   37      C      -7.6510162959     0.2681879014    -0.0915565967
   38      C      -8.7355860572     0.5474127458    -1.1361985657
   39      H      -7.7292237157     1.0012860209     0.7205970740
   40      H      -7.8295519875    -0.7122486593     0.3667616478
   41      H      -8.6046680404     1.5360155382    -1.5877142604
   42      H      -9.7353201068     0.5146058397    -0.6940395419
   43      H      -8.7057076464    -0.1904286902    -1.9443212741
 ----------------------------------------------------------------

   45    -925.1199451103      6.97e-09  Convergence criterion met
 Total energy in the final basis set =     -925.1199451103
   10    -925.1342208076      9.30e-09  Convergence criterion met
 Total energy in the final basis set =     -925.1342208076

                    Orbital Energies (a.u.)
 --------------------------------------------------------------

 Alpha MOs
 -- Occupied --
-19.1781 -19.1501 -19.1303 -10.2941 -10.2817 -10.2672 -10.2103 -10.2091
-10.2035 -10.2002 -10.1981 -10.1965 -10.1963 -10.1750 -10.1660 -10.1598
-10.1587 -10.1579 -10.1570 -10.1566 -10.1521  -1.1084  -1.0677  -1.0641
 -0.8922  -0.8437  -0.8095  -0.7944  -0.7798  -0.7748  -0.7462  -0.7121
 -0.6886  -0.6607  -0.6493  -0.6227  -0.6047  -0.5928  -0.5752  -0.5735
 -0.5713  -0.5425  -0.5185  -0.4976  -0.4818  -0.4771  -0.4717  -0.4688
 -0.4621  -0.4518  -0.4484  -0.4377  -0.4290  -0.4255  -0.4212  -0.4192
 -0.4067  -0.4060  -0.3918  -0.3868  -0.3804  -0.3772  -0.3705  -0.3615
 -0.3563  -0.3556  -0.3335  -0.3334  -0.3223  -0.3214  -0.3175  -0.3092
 -0.3028  -0.2896  -0.2800  -0.2798  -0.2563

          Ground-State Mulliken Net Atomic Charges

     Atom                 Charge (a.u.)
  ----------------------------------------
      1 C                     0.156018
      2 C                    -0.396455
      3 C                    -0.426758
      4 C                     0.530929
      5 C                    -0.144509
      6 C                     0.159298
      7 C                    -0.791336
      8 C                    -0.435214
      9 C                     1.891024
     10 C                    -0.753135
     11 O                    -0.332096
     12 O                    -0.297815
     13 H                     0.205791
     14 H                     0.230220
     15 H                     0.225868
     16 H                     0.205450
     17 O                    -0.238269
     18 C                    -0.393118
     19 C                    -0.726844
     20 C                    -0.126125
     21 C                     0.004435
     22 C                    -0.135052
     23 H                     0.324514
     24 H                     0.223994
     25 H                     0.238005
     26 H                     0.182546
     27 H                     0.184166
     28 H                     0.125824
     29 H                     0.123298
     30 H                     0.131931
     31 H                     0.132162
     32 H                     0.134572
     33 H                     0.134125
     34 C                    -0.351692
     35 H                     0.129352
     36 H                     0.129062
     37 C                    -0.263090
     38 C                    -0.706606
     39 H                     0.136219
     40 H                     0.136133
     41 H                     0.145472
     42 H                     0.152228
     43 H                     0.145478
  ----------------------------------------
  Sum of atomic charges =     0.000000

                    Cartesian Multipole Moments
 -----------------------------------------------------------------
    Charge (ESU x 10^10)
                -0.0000
    Dipole Moment (Debye)
         X       2.8002      Y       0.3612      Z      -1.2741
       Tot       3.0976
    Quadrupole Moments (Debye-Ang)
        XX    -103.5335     XY      12.0458     YY    -130.1349
        XZ      -5.8217     YZ      -4.3880     ZZ    -130.6770

 Total job time:  807.12s(wall), 6299.40s(cpu)
        *  Thank you very much for using Q-Chem.  Have a nice day.  *
