 Gaussian 16, Revision A.03,
 Gaussian 16:  ES64L-G16RevA.03 25-Dec-2016

 ----------------------------------------------------------------------
 #P UB3LYP/6-311++G(d,p) nosym opt freq SCRF=(PCM,Solvent=n,n-DiMethylF
 ormamide)
 ----------------------------------------------------------------------

 -------
 Reduced
 -------
 Symbolic Z-matrix:
 Charge = -2 Multiplicity = 1

 SCF Done:  E(UB3LYP) =  -954.245497655     A.U. after   19 cycles
 SCF Done:  E(UB3LYP) =  -954.247726722     A.U. after   14 cycles
 SCF Done:  E(UB3LYP) =  -954.248126449     A.U. after   14 cycles
 SCF Done:  E(UB3LYP) =  -954.248006846     A.U. after   14 cycles
 SCF Done:  E(UB3LYP) =  -954.248311864     A.U. after   14 cycles
 SCF Done:  E(UB3LYP) =  -954.248318477     A.U. after   11 cycles
 SCF Done:  E(UB3LYP) =  -954.248320420     A.U. after   11 cycles
 SCF Done:  E(UB3LYP) =  -954.248320907     A.U. after   10 cycles
 SCF Done:  E(UB3LYP) =  -954.248321030     A.U. after    9 cycles
 SCF Done:  E(UB3LYP) =  -954.248321070     A.U. after    8 cycles
 SCF Done:  E(UB3LYP) =  -954.248321088     A.U. after    8 cycles
 Optimization completed.
    -- Stationary point found.
 Normal termination of Gaussian 16 at Sat Feb 10 23:27:09 2024.

 ----------------------------------------------------------------------
 #P Geom=AllCheck Guess=TCheck SCRF=Check GenChk UB3LYP/6-311++G(d,p) F
 req
 ----------------------------------------------------------------------

 Structure from the checkpoint file:  "203-an.chk"
 -------
 Reduced
 -------
 Charge = -2 Multiplicity = 1

                          Input orientation:
 ---------------------------------------------------------------------
 Center     Atomic      Atomic             Coordinates (Angstroms)
 Number     Number       Type             X           Y           Z
 ---------------------------------------------------------------------
      1          6           0        4.619073    1.314497   -0.481296
      2          6           0        3.305756    0.617422   -0.219820
      3          6           0        3.301130   -0.657096    0.410978
      4          6           0        2.118629   -1.331003    0.660697
      5          8           0        2.198895   -2.544223    1.316973
      6          6           0        0.836766   -0.800171    0.297003
      7          6           0       -0.407986   -1.525575    0.501265
      8          8           0       -0.435137   -2.759172    0.849318
      9          6           0       -1.625926   -0.765025    0.246430
     10          6           0       -2.932805   -1.261350    0.563537
     11          8           0       -3.070898   -2.461956    1.225353
     12          6           0       -4.091385   -0.563876    0.262225
     13          6           0       -4.009120    0.695163   -0.372497
     14          8           0       -5.216828    1.317164   -0.644307
     15          6           0       -2.794876    1.243054   -0.675629
     16          6           0       -1.578793    0.551687   -0.370075
     17          6           0       -0.348273    1.202545   -0.690991
     18          8           0       -0.327221    2.380976   -1.277780
     19          6           0        0.850245    0.520762   -0.316527
     20          6           0        2.099888    1.174021   -0.561449
     21          1           0        5.178372    1.479466    0.447191
     22          1           0        4.462637    2.285650   -0.956487
     23          1           0        5.266367    0.719143   -1.136057
     24          1           0        4.241034   -1.110973    0.719077
     25          1           0        3.129766   -2.691744    1.525704
     26          1           0       -4.011423   -2.587122    1.402618
     27          1           0       -5.063141   -0.970594    0.524795
     28          1           0       -5.038890    2.165278   -1.067772
     29          1           0       -2.711572    2.214741   -1.148704
     30          1           0        2.055715    2.148316   -1.033770
 ---------------------------------------------------------------------

 SCF Done:  E(UB3LYP) =  -954.248321088     A.U. after    1 cycles

 Alpha  occ. eigenvalues --  -19.14197 -19.13640 -19.13274 -19.01654 -19.00649
 Alpha  occ. eigenvalues --  -10.22204 -10.21526 -10.21270 -10.18671 -10.15925
 Alpha  occ. eigenvalues --  -10.15670 -10.15334 -10.14396 -10.14122 -10.13910
 Alpha  occ. eigenvalues --  -10.13908 -10.13795 -10.13487 -10.13297 -10.13022
 Alpha  occ. eigenvalues --   -1.04775  -1.04572  -1.04178  -0.93718  -0.91429
 Alpha  occ. eigenvalues --   -0.82466  -0.81853  -0.76184  -0.72946  -0.71690
 Alpha  occ. eigenvalues --   -0.70975  -0.67560  -0.63722  -0.61965  -0.59423
 Alpha  occ. eigenvalues --   -0.58025  -0.55491  -0.53426  -0.51725  -0.48098
 Alpha  occ. eigenvalues --   -0.47545  -0.47230  -0.44318  -0.43379  -0.42449
 Alpha  occ. eigenvalues --   -0.41086  -0.40670  -0.40637  -0.39178  -0.38850
 Alpha  occ. eigenvalues --   -0.38653  -0.38187  -0.37759  -0.36040  -0.35312
 Alpha  occ. eigenvalues --   -0.35077  -0.34860  -0.34703  -0.33162  -0.31701
 Alpha  occ. eigenvalues --   -0.31521  -0.30655  -0.29733  -0.27121  -0.21573
 Alpha  occ. eigenvalues --   -0.21282  -0.20315  -0.20117  -0.19063  -0.18568
 Alpha  occ. eigenvalues --   -0.10206
 Alpha virt. eigenvalues --   -0.01323  -0.00257   0.00220   0.00393   0.00932
 Alpha virt. eigenvalues --    0.01531   0.02321   0.03175   0.03743   0.04064
 Alpha virt. eigenvalues --    0.04129   0.04384   0.05378   0.05614   0.06384

  Beta  occ. eigenvalues --  -19.14197 -19.13640 -19.13274 -19.01654 -19.00649
  Beta  occ. eigenvalues --  -10.22204 -10.21526 -10.21270 -10.18671 -10.15925
  Beta  occ. eigenvalues --  -10.15670 -10.15334 -10.14396 -10.14122 -10.13910
  Beta  occ. eigenvalues --  -10.13908 -10.13795 -10.13487 -10.13297 -10.13022
  Beta  occ. eigenvalues --   -1.04775  -1.04572  -1.04178  -0.93718  -0.91429
  Beta  occ. eigenvalues --   -0.82466  -0.81853  -0.76184  -0.72946  -0.71690
  Beta  occ. eigenvalues --   -0.70975  -0.67560  -0.63722  -0.61965  -0.59423
  Beta  occ. eigenvalues --   -0.58025  -0.55491  -0.53426  -0.51725  -0.48098
  Beta  occ. eigenvalues --   -0.47545  -0.47230  -0.44318  -0.43379  -0.42449
  Beta  occ. eigenvalues --   -0.41086  -0.40670  -0.40637  -0.39178  -0.38850
  Beta  occ. eigenvalues --   -0.38653  -0.38187  -0.37759  -0.36040  -0.35312
  Beta  occ. eigenvalues --   -0.35077  -0.34860  -0.34703  -0.33162  -0.31701
  Beta  occ. eigenvalues --   -0.31521  -0.30655  -0.29733  -0.27121  -0.21573
  Beta  occ. eigenvalues --   -0.21282  -0.20315  -0.20117  -0.19063  -0.18568
  Beta  occ. eigenvalues --   -0.10206
  Beta virt. eigenvalues --   -0.01323  -0.00257   0.00220   0.00393   0.00932
  Beta virt. eigenvalues --    0.01531   0.02321   0.03175   0.03743   0.04064
  Beta virt. eigenvalues --    0.04129   0.04384   0.05378   0.05614   0.06384

 Mulliken charges and spin densities:
               1          2
     1  C   -0.340841  -0.000000
     2  C    0.374327  -0.000000
     3  C   -0.272766  -0.000000
     4  C   -0.133392  -0.000000
     5  O   -0.249935   0.000000
     6  C    0.035746   0.000000
     7  C   -0.267779   0.000000
     8  O   -0.620658  -0.000000
     9  C   -0.113783  -0.000000
    10  C   -0.139891  -0.000000
    11  O   -0.242615   0.000000
    12  C    0.011987  -0.000000
    13  C   -0.628842  -0.000000
    14  O   -0.322609  -0.000000
    15  C   -0.012576  -0.000000
    16  C    0.616715   0.000000
    17  C   -0.504440   0.000000
    18  O   -0.705345   0.000000
    19  C    0.160903  -0.000000
    20  C   -0.493855   0.000000
    21  H    0.149693   0.000000
    22  H    0.153775  -0.000000
    23  H    0.153578  -0.000000
    24  H    0.118046   0.000000
    25  H    0.282927   0.000000
    26  H    0.286859  -0.000000
    27  H    0.159700  -0.000000
    28  H    0.296759  -0.000000
    29  H    0.135834  -0.000000
    30  H    0.112479   0.000000
 Sum of Mulliken charges =  -2.00000  -0.00000

 Dipole moment (field-independent basis, Debye):
    X=              4.9217    Y=              1.7130    Z=              1.6248  Tot=              5.4587
 Quadrupole moment (field-independent basis, Debye-Ang):
   XX=           -134.3899   YY=           -171.5144   ZZ=           -134.6936
   XY=             -4.3132   XZ=              1.2877   YZ=             16.2129

  Exact polarizability: 625.659  -7.435 356.104  11.061 -83.373 211.217
 Approx polarizability: 673.949 -12.521 418.491  13.621-102.368 238.539

                      1                      2                      3
                      A                      A                      A
 Frequencies --     39.7151                63.5465               109.1441
 Red. masses --      6.7846                 5.7155                 7.1047
 Frc consts  --      0.0063                 0.0136                 0.0499
 IR Inten    --     20.4784                 0.5536                14.0926

                      4                      5                      6
                      A                      A                      A
 Frequencies --    118.1336               146.2703               167.9361
 Red. masses --      1.1981                 5.7226                 3.6933
 Frc consts  --      0.0099                 0.0721                 0.0614
 IR Inten    --      0.0320                 3.3953                 1.6809

                      7                      8                      9
                      A                      A                      A
 Frequencies --    170.8395               191.2224               203.3448
 Red. masses --      5.6125                 4.3701                 4.4591
 Frc consts  --      0.0965                 0.0941                 0.1086
 IR Inten    --     17.4568                 7.7922                11.8703

                     10                     11                     12
                      A                      A                      A
 Frequencies --    250.4638               276.7179               287.6364
 Red. masses --      4.6179                 6.0324                 4.5595
 Frc consts  --      0.1707                 0.2722                 0.2223
 IR Inten    --      1.1457                10.2596                 9.5123

                     13                     14                     15
                      A                      A                      A
 Frequencies --    319.6507               324.2716               348.4803
 Red. masses --      3.8751                 1.3010                 2.6220
 Frc consts  --      0.2333                 0.0806                 0.1876
 IR Inten    --     18.9467               124.0275                 6.9951

                     16                     17                     18
                      A                      A                      A
 Frequencies --    356.3435               374.2554               376.5360
 Red. masses --      6.1881                 7.5340                 7.7253
 Frc consts  --      0.4630                 0.6217                 0.6453
 IR Inten    --      1.8018                17.5313                26.1169

                     19                     20                     21
                      A                      A                      A
 Frequencies --    396.1697               406.5323               411.6383
 Red. masses --      1.4697                 3.2667                 1.5512
 Frc consts  --      0.1359                 0.3181                 0.1549
 IR Inten    --    187.4673                71.4840                 8.0050

                     22                     23                     24
                      A                      A                      A
 Frequencies --    425.5880               486.2970               509.3965
 Red. masses --      6.8257                11.2678                 4.8597
 Frc consts  --      0.7284                 1.5700                 0.7430
 IR Inten    --      3.2374                 1.2434                37.4412

                     25                     26                     27
                      A                      A                      A
 Frequencies --    542.1656               549.3882               554.1606
 Red. masses --      8.2412                 4.1641                 6.2670
 Frc consts  --      1.4273                 0.7405                 1.1339
 IR Inten    --     29.1056                11.6946                28.7379

                     28                     29                     30
                      A                      A                      A
 Frequencies --    595.2481               608.1251               610.9385
 Red. masses --      4.8743                 5.3366                 4.1938
 Frc consts  --      1.0176                 1.1628                 0.9223
 IR Inten    --      4.5615                17.7435                 7.3606

                     31                     32                     33
                      A                      A                      A
 Frequencies --    618.5685               628.1338               711.7874
 Red. masses --      3.8618                 2.7446                 2.2552
 Frc consts  --      0.8706                 0.6380                 0.6732
 IR Inten    --     60.4990                71.5547                 0.4640

                     34                     35                     36
                      A                      A                      A
 Frequencies --    721.4608               723.7066               749.7190
 Red. masses --      5.0790                 3.6945                 2.4209
 Frc consts  --      1.5576                 1.1401                 0.8017
 IR Inten    --     14.2930                 1.7673               106.3745

                     37                     38                     39
                      A                      A                      A
 Frequencies --    755.7814               763.6749               803.7187
 Red. masses --      5.6903                 2.2797                 8.6265
 Frc consts  --      1.9150                 0.7833                 3.2832
 IR Inten    --    100.3090                26.6454                 5.9102

                     40                     41                     42
                      A                      A                      A
 Frequencies --    833.1525               871.7124               888.8362
 Red. masses --      1.5194                 1.4483                 6.0489
 Frc consts  --      0.6214                 0.6484                 2.8156
 IR Inten    --     43.2148                27.1363                 0.2142

                     43                     44                     45
                      A                      A                      A
 Frequencies --    953.6279               990.8361              1001.7416
 Red. masses --      7.1601                 3.7941                 4.8746
 Frc consts  --      3.8365                 2.1946                 2.8820
 IR Inten    --    318.2613               190.0713               561.6176

                     46                     47                     48
                      A                      A                      A
 Frequencies --   1014.4461              1052.6814              1065.4513
 Red. masses --      1.9680                 1.4852                 2.4158
 Frc consts  --      1.1932                 0.9697                 1.6157
 IR Inten    --    187.1726                 3.9819                31.3145

                     49                     50                     51
                      A                      A                      A
 Frequencies --   1122.4512              1140.2877              1155.6150
 Red. masses --      3.5244                 2.6349                 2.3735
 Frc consts  --      2.6162                 2.0186                 1.8675
 IR Inten    --    190.2717               430.4600               134.7641

                     52                     53                     54
                      A                      A                      A
 Frequencies --   1177.0529              1190.3874              1210.7388
 Red. masses --      2.2135                 1.5479                 1.6525
 Frc consts  --      1.8068                 1.2924                 1.4273
 IR Inten    --    360.3402               488.1802               119.3993

                     55                     56                     57
                      A                      A                      A
 Frequencies --   1214.8860              1234.2304              1256.5154
 Red. masses --      1.5912                 2.7538                 2.2352
 Frc consts  --      1.3837                 2.4716                 2.0792
 IR Inten    --    160.5942               186.5905                12.3809

                     58                     59                     60
                      A                      A                      A
 Frequencies --   1276.6698              1323.0822              1337.0110
 Red. masses --      4.6353                 3.8170                 6.5467
 Frc consts  --      4.4513                 3.9368                 6.8951
 IR Inten    --    281.5953                12.8807               371.7804

                     61                     62                     63
                      A                      A                      A
 Frequencies --   1357.8623              1374.2623              1403.0335
 Red. masses --      3.4976                 2.6279                 1.3406
 Frc consts  --      3.7996                 2.9242                 1.5548
 IR Inten    --   1526.0013              1161.3824                61.5556

                     64                     65                     66
                      A                      A                      A
 Frequencies --   1419.8000              1450.9471              1466.8866
 Red. masses --      4.7289                 3.6126                 2.3570
 Frc consts  --      5.6164                 4.4810                 2.9882
 IR Inten    --    482.5724               270.7524                98.7838

                     67                     68                     69
                      A                      A                      A
 Frequencies --   1469.5930              1488.3092              1498.0013
 Red. masses --      1.0453                 1.9593                 3.0420
 Frc consts  --      1.3301                 2.5571                 4.0219
 IR Inten    --     10.0328               188.5261               110.4842

                     70                     71                     72
                      A                      A                      A
 Frequencies --   1502.7725              1545.4202              1573.7904
 Red. masses --      3.1695                 4.8704                 5.9191
 Frc consts  --      4.2172                 6.8534                 8.6377
 IR Inten    --    179.6933               136.9736               617.5517

                     73                     74                     75
                      A                      A                      A
 Frequencies --   1619.6184              1636.9261              2999.5427
 Red. masses --      5.9922                 6.6938                 1.0385
 Frc consts  --      9.2612                10.5677                 5.5051
 IR Inten    --   1158.2205               184.0757               220.4026

                     76                     77                     78
                      A                      A                      A
 Frequencies --   3037.5585              3087.7734              3120.5505
 Red. masses --      1.0998                 1.0982                 1.0890
 Frc consts  --      5.9788                 6.1691                 6.2482
 IR Inten    --     48.5736                52.1823                62.8984

                     79                     80                     81
                      A                      A                      A
 Frequencies --   3155.8194              3165.3976              3174.5667
 Red. masses --      1.0902                 1.0894                 1.0887
 Frc consts  --      6.3972                 6.4314                 6.4647
 IR Inten    --     27.1905                32.9583                42.1368

                     82                     83                     84
                      A                      A                      A
 Frequencies --   3785.7286              3789.0045              3811.9210
 Red. masses --      1.0656                 1.0656                 1.0660
 Frc consts  --      8.9979                 9.0138                 9.1265
 IR Inten    --     49.8852                57.3639                93.4359

 - Thermochemistry -
 -------------------
 Temperature   298.150 Kelvin.  Pressure   1.00000 Atm.
 Atom     1 has atomic number  6 and mass  12.00000

 Molecular mass:   270.05282 amu.
 Principal axes and moments of inertia in atomic units:
                           1         2         3
     Eigenvalues --  2838.483347534.95381**********
           X            0.99965   0.02261  -0.01341
           Y           -0.01484   0.90637   0.42223
           Z            0.02170  -0.42188   0.90639
 This molecule is an asymmetric top.
 Rotational symmetry number  1.
 Warning -- assumption of classical behavior for rotation
           may cause significant error
 Rotational temperatures (Kelvin)      0.03051     0.01149     0.00838
 Rotational constants (GHZ):           0.63581     0.23952     0.17464
 Zero-point vibrational energy     561905.2 (Joules/Mol)
                                  134.29856 (Kcal/Mol)
 Warning -- explicit consideration of  31 degrees of freedom as
           vibrations may cause significant error
 Vibrational temperatures:     57.14    91.43   157.03   169.97   210.45
          (Kelvin)            241.62   245.80   275.13   292.57   360.36
                              398.14   413.84   459.91   466.55   501.39
                              512.70   538.47   541.75   570.00   584.91
                              592.26   612.33   699.67   732.91   780.06
                              790.45   797.31   856.43   874.96   879.00
                              889.98   903.74  1024.10  1038.02  1041.25
                             1078.68  1087.40  1098.76  1156.37  1198.72
                             1254.20  1278.84  1372.06  1425.59  1441.28
                             1459.56  1514.57  1532.95  1614.96  1640.62
                             1662.67  1693.52  1712.70  1741.98  1747.95
                             1775.78  1807.85  1836.84  1903.62  1923.66
                             1953.66  1977.26  2018.65  2042.78  2087.59
                             2110.52  2114.42  2141.35  2155.29  2162.15
                             2223.51  2264.33  2330.27  2355.17  4315.67
                             4370.37  4442.62  4489.78  4540.52  4554.30
                             4567.49  5446.82  5451.53  5484.50

 Zero-point correction=                           0.214018 (Hartree/Particle)
 Thermal correction to Energy=                    0.230803
 Thermal correction to Enthalpy=                  0.231747
 Thermal correction to Gibbs Free Energy=         0.170697
 Sum of electronic and zero-point Energies=           -954.034303
 Sum of electronic and thermal Energies=              -954.017518
 Sum of electronic and thermal Enthalpies=            -954.016574
 Sum of electronic and thermal Free Energies=         -954.077624

                     E (Thermal)             CV                S
                      KCal/Mol        Cal/Mol-Kelvin    Cal/Mol-Kelvin
 Total                  144.831             67.067            128.491
 Electronic               0.000              0.000              0.000
 Translational            0.889              2.981             42.679
 Rotational               0.889              2.981             33.757
 Vibrational            143.054             61.106             52.055
 Vibration     1          0.594              1.981              5.273
 Vibration     2          0.597              1.972              4.344
 Vibration     3          0.606              1.942              3.284
 Vibration     4          0.608              1.934              3.131
 Vibration     5          0.617              1.907              2.720
 Vibration     6          0.625              1.882              2.458
 Vibration     7          0.626              1.878              2.426
 Vibration     8          0.634              1.852              2.216
 Vibration     9          0.639              1.835              2.103
 Vibration    10          0.663              1.762              1.727
 Vibration    11          0.678              1.716              1.554
 Vibration    12          0.685              1.697              1.488
 Vibration    13          0.706              1.636              1.312
 Vibration    14          0.709              1.627              1.288
 Vibration    15          0.726              1.578              1.173
 Vibration    16          0.732              1.562              1.138
 Vibration    17          0.745              1.525              1.062
 Vibration    18          0.747              1.520              1.053
 Vibration    19          0.763              1.478              0.977
 Vibration    20          0.771              1.456              0.939
 Vibration    21          0.776              1.445              0.921
 Vibration    22          0.787              1.415              0.873
 Vibration    23          0.842              1.280              0.693
 Vibration    24          0.865              1.229              0.635
 Vibration    25          0.897              1.157              0.561
 Vibration    26          0.905              1.141              0.545
 Vibration    27          0.910              1.131              0.536
 Vibration    28          0.953              1.042              0.458
 Vibration    29          0.967              1.015              0.436
 Vibration    30          0.970              1.009              0.431
 Vibration    31          0.978              0.993              0.419

                           ! Non-Optimized Parameters !
 Normal termination of Gaussian 16 at Sun Feb 11 01:12:53 2024.
