 Gaussian 16, Revision A.03,
 Gaussian 16:  ES64L-G16RevA.03 25-Dec-2016

 ----------------------------------------------------------------
 #P UB3LYP/6-311++G(d,p) SCRF=(PCM,Solvent=n,n-DiMethylFormamide)
 ----------------------------------------------------------------

 -------
 Reduced
 -------
 Symbolic Z-matrix:
 Charge = -2 Multiplicity = 1

                         Standard orientation:
 ---------------------------------------------------------------------
 Center     Atomic      Atomic             Coordinates (Angstroms)
 Number     Number       Type             X           Y           Z
 ---------------------------------------------------------------------
      1          6           0        0.812702   -1.335282    0.320715
      2          6           0        2.015347   -2.122529    0.235605
      3          6           0        3.249815   -1.557013    0.025851
      4          6           0        3.480674   -0.140404   -0.148642
      5          6           0        2.307033    0.665544   -0.121821
      6          8           0       -0.305731   -1.871922    0.636480
      7          8           0        4.684822    0.307913   -0.341532
      8          1           0        1.903584   -3.196252    0.381859
      9          6           0        0.993399    0.095103    0.083724
     10          6           0       -0.195205    0.911692    0.120244
     11          6           0       -1.560449    0.297808   -0.188719
     12          6           0       -2.587389    0.247963    0.778119
     13          6           0       -1.872367   -0.003903   -1.517032
     14          6           0       -3.876393   -0.108705    0.385263
     15          6           0       -4.181801   -0.407759   -0.947366
     16          6           0       -3.167592   -0.356114   -1.900124
     17          8           0       -0.247927    2.147999    0.320443
     18          6           0       -2.260499    0.499114    2.227622
     19          1           0       -1.074898    0.025661   -2.252810
     20          1           0       -4.660717   -0.166363    1.138905
     21          1           0       -5.196682   -0.679561   -1.228549
     22          1           0       -3.380005   -0.593106   -2.939949
     23          6           0        2.510047    2.134489   -0.410748
     24          1           0        4.139448   -2.187057   -0.016587
     25          1           0        2.432692    2.758123    0.491227
     26          1           0        1.761147    2.528761   -1.105841
     27          1           0        3.516620    2.254747   -0.822026
     28          1           0       -1.534598   -0.251037    2.559544
     29          1           0       -3.156705    0.430910    2.854600
     30          1           0       -1.803135    1.483212    2.360338
 ---------------------------------------------------------------------

 SCF Done:  E(UB3LYP) =  -804.953674995     A.U. after   19 cycles

 The electronic state is 1-A.
 Alpha  occ. eigenvalues --  -19.07168 -19.02783 -19.01142 -10.22275 -10.18725
 Alpha  occ. eigenvalues --  -10.16928 -10.16691 -10.16650 -10.16339 -10.16280
 Alpha  occ. eigenvalues --  -10.16138 -10.15972 -10.15055 -10.13726 -10.13188
 Alpha  occ. eigenvalues --  -10.13065 -10.12909 -10.12817  -0.99526  -0.94773
 Alpha  occ. eigenvalues --   -0.92449  -0.84738  -0.78486  -0.76173  -0.74454
 Alpha  occ. eigenvalues --   -0.72867  -0.68785  -0.67157  -0.62969  -0.61150
 Alpha  occ. eigenvalues --   -0.58545  -0.56926  -0.52315  -0.51745  -0.47761
 Alpha  occ. eigenvalues --   -0.45828  -0.44711  -0.43862  -0.42604  -0.42050
 Alpha  occ. eigenvalues --   -0.40667  -0.40423  -0.39637  -0.38893  -0.37710
 Alpha  occ. eigenvalues --   -0.37295  -0.36219  -0.35691  -0.35333  -0.35214
 Alpha  occ. eigenvalues --   -0.34233  -0.33709  -0.32368  -0.32146  -0.31495
 Alpha  occ. eigenvalues --   -0.30999  -0.24934  -0.23943  -0.22902  -0.21862
 Alpha  occ. eigenvalues --   -0.21459  -0.19499  -0.19030  -0.12318
 Alpha virt. eigenvalues --   -0.02933  -0.00236  -0.00122   0.00098   0.00861
 Alpha virt. eigenvalues --    0.01327   0.01582   0.02489   0.03487   0.03603
 Alpha virt. eigenvalues --    0.04042   0.04429   0.04838   0.05402   0.05653

  Beta  occ. eigenvalues --  -19.07168 -19.02783 -19.01142 -10.22275 -10.18725
  Beta  occ. eigenvalues --  -10.16928 -10.16691 -10.16650 -10.16339 -10.16280
  Beta  occ. eigenvalues --  -10.16138 -10.15972 -10.15055 -10.13726 -10.13188
  Beta  occ. eigenvalues --  -10.13065 -10.12909 -10.12817  -0.99526  -0.94773
  Beta  occ. eigenvalues --   -0.92449  -0.84738  -0.78486  -0.76173  -0.74454
  Beta  occ. eigenvalues --   -0.72867  -0.68785  -0.67157  -0.62969  -0.61150
  Beta  occ. eigenvalues --   -0.58545  -0.56926  -0.52315  -0.51745  -0.47761
  Beta  occ. eigenvalues --   -0.45828  -0.44711  -0.43862  -0.42604  -0.42050
  Beta  occ. eigenvalues --   -0.40667  -0.40423  -0.39637  -0.38893  -0.37710
  Beta  occ. eigenvalues --   -0.37295  -0.36219  -0.35691  -0.35333  -0.35214
  Beta  occ. eigenvalues --   -0.34233  -0.33709  -0.32368  -0.32146  -0.31495
  Beta  occ. eigenvalues --   -0.30999  -0.24934  -0.23943  -0.22902  -0.21862
  Beta  occ. eigenvalues --   -0.21459  -0.19499  -0.19030  -0.12318
  Beta virt. eigenvalues --   -0.02933  -0.00236  -0.00122   0.00098   0.00861
  Beta virt. eigenvalues --    0.01327   0.01582   0.02489   0.03487   0.03603
  Beta virt. eigenvalues --    0.04042   0.04429   0.04838   0.05402   0.05653

 Mulliken charges and spin densities:
               1          2
     1  C   -0.888800   0.000000
     2  C   -0.514101   0.000000
     3  C    0.015880   0.000000
     4  C   -0.619728  -0.000000
     5  C    0.544288  -0.000000
     6  O   -0.489778  -0.000000
     7  O   -0.718981   0.000000
     8  H    0.145988   0.000000
     9  C    1.131766  -0.000000
    10  C   -1.323700  -0.000000
    11  C    0.792423   0.000000
    12  C    0.783781   0.000000
    13  C   -0.573090  -0.000000
    14  C    0.061502  -0.000000
    15  C   -0.312669  -0.000000
    16  C   -0.455024   0.000000
    17  O   -0.387303   0.000000
    18  C   -0.405784   0.000000
    19  H    0.167573   0.000000
    20  H    0.154037  -0.000000
    21  H    0.171076   0.000000
    22  H    0.180619   0.000000
    23  C   -0.557542  -0.000000
    24  H    0.149186   0.000000
    25  H    0.144681   0.000000
    26  H    0.149171   0.000000
    27  H    0.146332   0.000000
    28  H    0.192474  -0.000000
    29  H    0.154534   0.000000
    30  H    0.161189  -0.000000
 Sum of Mulliken charges =  -2.00000  -0.00000

 Dipole moment (field-independent basis, Debye):
    X=            -16.5462    Y=             -0.0418    Z=             -0.6598  Tot=             16.5594
 Quadrupole moment (field-independent basis, Debye-Ang):
   XX=           -205.5416   YY=           -142.1161   ZZ=           -112.9353
   XY=             -5.0877   XZ=              4.8475   YZ=              3.5971

 Normal termination of Gaussian 16 at Wed Jan 24 22:55:13 2024.
