 Gaussian 16, Revision A.03,
 Gaussian 16:  ES64L-G16RevA.03 25-Dec-2016

 --------------------------------------
 #P UB3LYP/6-311++G(d,p) nosym opt freq
 --------------------------------------

 -------
 Reduced
 -------
 Symbolic Z-matrix:
 Charge = -2 Multiplicity = 1

 SCF Done:  E(UB3LYP) =  -804.688842237     A.U. after   41 cycles
 Optimization completed.
    -- Stationary point found.
 Normal termination of Gaussian 16 at Wed Jan 10 16:44:55 2024.

 ----------------------------------------------------------------------
 #P Geom=AllCheck Guess=TCheck SCRF=Check GenChk UB3LYP/6-311++G(d,p) F
 req
 ----------------------------------------------------------------------

 Structure from the checkpoint file:  "081-an.chk"
 -------
 Reduced
 -------
 Charge = -2 Multiplicity = 1

                          Input orientation:
 ---------------------------------------------------------------------
 Center     Atomic      Atomic             Coordinates (Angstroms)
 Number     Number       Type             X           Y           Z
 ---------------------------------------------------------------------
      1          6           0        1.516681    0.990220   -3.084759
      2          6           0        0.238400    1.552532   -3.435700
      3          6           0       -0.946723    1.009531   -3.001708
      4          6           0       -1.049939   -0.173094   -2.176318
      5          6           0        0.193074   -0.787096   -1.851317
      6          8           0        2.606679    1.582639   -3.400238
      7          8           0       -2.215129   -0.616871   -1.810857
      8          1           0        0.256586    2.459180   -4.039373
      9          6           0        1.454868   -0.244537   -2.306060
     10          6           0        2.715169   -0.860536   -1.969732
     11          6           0        3.946001   -0.621851   -2.843965
     12          6           0        5.095124    0.028527   -2.345576
     13          6           0        4.021658   -1.266021   -4.081728
     14          6           0        6.265652    0.019019   -3.102447
     15          6           0        6.334543   -0.629864   -4.340515
     16          6           0        5.200235   -1.272643   -4.829612
     17          8           0        2.927794   -1.667130   -1.034045
     18          6           0        5.017561    0.790367   -1.047663
     19          1           0        3.130591   -1.754343   -4.463490
     20          1           0        7.143501    0.540516   -2.723123
     21          1           0        7.261312   -0.625818   -4.909731
     22          1           0        5.228152   -1.775727   -5.793276
     23          6           0        0.105619   -2.084557   -1.082265
     24          1           0       -1.894277    1.475006   -3.276803
     25          1           0        0.382802   -1.969495   -0.024724
     26          1           0        0.779364   -2.850362   -1.481096
     27          1           0       -0.932782   -2.425985   -1.126440
     28          1           0        4.274352    1.588224   -1.152041
     29          1           0        5.985298    1.235156   -0.789619
     30          1           0        4.691961    0.139914   -0.231489
 ---------------------------------------------------------------------

 SCF Done:  E(UB3LYP) =  -804.688842237     A.U. after    2 cycles

 Alpha  occ. eigenvalues --  -18.83417 -18.78972 -18.76184  -9.98636  -9.96564
 Alpha  occ. eigenvalues --   -9.96446  -9.96387  -9.96224  -9.95519  -9.95187
 Alpha  occ. eigenvalues --   -9.95003  -9.94831  -9.92387  -9.90033  -9.89343
 Alpha  occ. eigenvalues --   -9.89342  -9.89255  -9.88841  -0.75819  -0.70734
 Alpha  occ. eigenvalues --   -0.67388  -0.64179  -0.55863  -0.54501  -0.53445
 Alpha  occ. eigenvalues --   -0.49189  -0.47405  -0.44822  -0.39843  -0.38970
 Alpha  occ. eigenvalues --   -0.37560  -0.34723  -0.30615  -0.28419  -0.26556
 Alpha  occ. eigenvalues --   -0.25342  -0.22798  -0.20734  -0.20591  -0.20096
 Alpha  occ. eigenvalues --   -0.19392  -0.18542  -0.18001  -0.16706  -0.15134
 Alpha  occ. eigenvalues --   -0.14413  -0.13892  -0.13228  -0.13066  -0.12182
 Alpha  occ. eigenvalues --   -0.11145  -0.10980  -0.09649  -0.08110  -0.07415
 Alpha  occ. eigenvalues --   -0.06398  -0.03651  -0.02863   0.01159   0.01577
 Alpha  occ. eigenvalues --    0.02709   0.04474   0.05973   0.12362
 Alpha virt. eigenvalues --    0.13683   0.15447   0.16689   0.18335   0.18674
 Alpha virt. eigenvalues --    0.19360   0.19769   0.19955   0.20640   0.21222
 Alpha virt. eigenvalues --    0.21588   0.21609   0.22562   0.23147   0.23423

  Beta  occ. eigenvalues --  -18.83417 -18.78972 -18.76184  -9.98636  -9.96564
  Beta  occ. eigenvalues --   -9.96446  -9.96387  -9.96224  -9.95519  -9.95187
  Beta  occ. eigenvalues --   -9.95003  -9.94831  -9.92387  -9.90033  -9.89343
  Beta  occ. eigenvalues --   -9.89342  -9.89255  -9.88841  -0.75819  -0.70734
  Beta  occ. eigenvalues --   -0.67388  -0.64179  -0.55863  -0.54501  -0.53445
  Beta  occ. eigenvalues --   -0.49189  -0.47405  -0.44822  -0.39843  -0.38970
  Beta  occ. eigenvalues --   -0.37560  -0.34723  -0.30615  -0.28419  -0.26556
  Beta  occ. eigenvalues --   -0.25342  -0.22798  -0.20734  -0.20591  -0.20096
  Beta  occ. eigenvalues --   -0.19392  -0.18542  -0.18001  -0.16706  -0.15134
  Beta  occ. eigenvalues --   -0.14413  -0.13892  -0.13228  -0.13066  -0.12182
  Beta  occ. eigenvalues --   -0.11145  -0.10980  -0.09649  -0.08110  -0.07415
  Beta  occ. eigenvalues --   -0.06398  -0.03651  -0.02863   0.01159   0.01577
  Beta  occ. eigenvalues --    0.02709   0.04474   0.05973   0.12362
  Beta virt. eigenvalues --    0.13683   0.15447   0.16689   0.18335   0.18674
  Beta virt. eigenvalues --    0.19360   0.19769   0.19955   0.20640   0.21222
  Beta virt. eigenvalues --    0.21588   0.21609   0.22562   0.23147   0.23423

 Mulliken charges and spin densities:
               1          2
     1  C   -1.042766  -0.000000
     2  C   -0.329650   0.000000
     3  C    0.258401   0.000000
     4  C   -1.026747  -0.000000
     5  C    0.776593   0.000000
     6  O   -0.365387   0.000000
     7  O   -0.561574   0.000000
     8  H    0.083287  -0.000000
     9  C    1.271373   0.000000
    10  C   -1.475329  -0.000000
    11  C    0.982776  -0.000000
    12  C    0.709074  -0.000000
    13  C   -0.592489  -0.000000
    14  C    0.109259   0.000000
    15  C   -0.046866   0.000000
    16  C   -0.413887   0.000000
    17  O   -0.324090   0.000000
    18  C   -0.355816   0.000000
    19  H    0.143903   0.000000
    20  H   -0.029297  -0.000000
    21  H   -0.102248  -0.000000
    22  H    0.104010  -0.000000
    23  C   -0.658077   0.000000
    24  H    0.080732  -0.000000
    25  H    0.110425   0.000000
    26  H    0.125006  -0.000000
    27  H    0.147312  -0.000000
    28  H    0.213142   0.000000
    29  H    0.052157  -0.000000
    30  H    0.156772   0.000000
 Sum of Mulliken charges =  -2.00000  -0.00000

 Dipole moment (field-independent basis, Debye):
    X=            -13.0326    Y=              2.0519    Z=             22.9826  Tot=             26.5001
 Quadrupole moment (field-independent basis, Debye-Ang):
   XX=           -229.9343   YY=           -137.4264   ZZ=           -185.9886
   XY=              0.2749   XZ=             47.7410   YZ=              8.2233

  Exact polarizability:3447.673 -71.478 270.088********  96.890 712.877
 Approx polarizability:2809.303 -25.363 397.427-536.927 -28.191 545.304

                      1                      2                      3
                      A                      A                      A
 Frequencies --     20.7152                31.7402                59.8091
 Red. masses --      4.9133                 4.9499                 4.8092
 Frc consts  --      0.0012                 0.0029                 0.0101
 IR Inten    --     11.2012                 8.7792                 5.2765

                      4                      5                      6
                      A                      A                      A
 Frequencies --     83.2196               108.7585               131.2533
 Red. masses --      4.1918                 2.8436                 1.4931
 Frc consts  --      0.0171                 0.0198                 0.0152
 IR Inten    --     10.6146                 6.5397                 8.3839

                      7                      8                      9
                      A                      A                      A
 Frequencies --    148.8795               171.8461               174.8161
 Red. masses --      2.2097                 1.6861                 2.8216
 Frc consts  --      0.0289                 0.0293                 0.0508
 IR Inten    --     91.2648                83.6912                40.0492

                     10                     11                     12
                      A                      A                      A
 Frequencies --    198.5141               230.6162               246.4503
 Red. masses --      5.3127                 3.8062                 4.6457
 Frc consts  --      0.1234                 0.1193                 0.1662
 IR Inten    --      3.7828               298.9617                 1.1100

                     13                     14                     15
                      A                      A                      A
 Frequencies --    328.5381               331.5299               344.8849
 Red. masses --      8.0534                 6.1635                 3.3465
 Frc consts  --      0.5122                 0.3991                 0.2345
 IR Inten    --      3.2187                 5.3489               122.0482

                     16                     17                     18
                      A                      A                      A
 Frequencies --    373.0833               390.1534               410.4590
 Red. masses --      4.9774                 3.2838                 5.4344
 Frc consts  --      0.4082                 0.2945                 0.5394
 IR Inten    --    371.4106                24.4897               385.1592

                     19                     20                     21
                      A                      A                      A
 Frequencies --    440.7926               458.0464               473.2713
 Red. masses --     10.1949                 3.4456                 4.7043
 Frc consts  --      1.1671                 0.4259                 0.6208
 IR Inten    --   3776.4277                 4.2539                41.2758

                     22                     23                     24
                      A                      A                      A
 Frequencies --    536.8819               568.0367               588.9613
 Red. masses --      5.0600                 4.5969                 4.7978
 Frc consts  --      0.8593                 0.8739                 0.9805
 IR Inten    --    168.4500                18.8143               170.9900

                     25                     26                     27
                      A                      A                      A
 Frequencies --    599.6395               628.0806               657.3171
 Red. masses --      2.4894                 4.2921                 5.2144
 Frc consts  --      0.5274                 0.9976                 1.3274
 IR Inten    --     29.8776               244.6329               206.9656

                     28                     29                     30
                      A                      A                      A
 Frequencies --    720.6813               729.0237               742.1945
 Red. masses --      1.4447                 6.3202                 5.4766
 Frc consts  --      0.4421                 1.9791                 1.7774
 IR Inten    --    168.8098               198.9177               483.8716

                     31                     32                     33
                      A                      A                      A
 Frequencies --    755.0205               780.5729               802.8896
 Red. masses --      3.0527                 5.3278                 4.1246
 Frc consts  --      1.0253                 1.9126                 1.5665
 IR Inten    --     84.3146               332.7618                 1.7074

                     34                     35                     36
                      A                      A                      A
 Frequencies --    823.7488               835.7093               851.3627
 Red. masses --      2.5681                 3.4961                 1.5489
 Frc consts  --      1.0267                 1.4386                 0.6614
 IR Inten    --     27.7717                 5.5967                19.3661

                     37                     38                     39
                      A                      A                      A
 Frequencies --    911.5928               922.7586               942.0362
 Red. masses --      1.3900                 1.3239                 1.8069
 Frc consts  --      0.6806                 0.6642                 0.9447
 IR Inten    --     12.9996                 4.0232               362.8530

                     40                     41                     42
                      A                      A                      A
 Frequencies --    948.4718              1007.5441              1016.9265
 Red. masses --      1.4464                 1.5891                 3.9957
 Frc consts  --      0.7666                 0.9505                 2.4346
 IR Inten    --     21.5345                21.7788               135.9344

                     43                     44                     45
                      A                      A                      A
 Frequencies --   1040.3133              1054.0953              1055.0307
 Red. masses --      1.4451                 2.2360                 1.5812
 Frc consts  --      0.9215                 1.4638                 1.0370
 IR Inten    --     44.7147               553.4532                 7.3952

                     46                     47                     48
                      A                      A                      A
 Frequencies --   1074.7098              1119.8220              1139.3815
 Red. masses --      2.5803                 1.6836                 1.5232
 Frc consts  --      1.7559                 1.2439                 1.1651
 IR Inten    --   1937.0165               233.7420               899.5677

                     49                     50                     51
                      A                      A                      A
 Frequencies --   1161.8965              1164.7152              1198.8972
 Red. masses --      2.4359                 1.0999                 3.7713
 Frc consts  --      1.9375                 0.8791                 3.1938
 IR Inten    --    426.5875                34.6588               727.5398

                     52                     53                     54
                      A                      A                      A
 Frequencies --   1214.8087              1255.6871              1290.2267
 Red. masses --      2.9254                 4.7205                 1.6534
 Frc consts  --      2.5436                 4.3854                 1.6217
 IR Inten    --     22.3797                29.3650               101.1017

                     55                     56                     57
                      A                      A                      A
 Frequencies --   1326.3406              1331.3192              1358.4714
 Red. masses --      2.6450                 4.7342                 7.4867
 Frc consts  --      2.7415                 4.9438                 8.1404
 IR Inten    --    763.8232               278.1757               154.8729

                     58                     59                     60
                      A                      A                      A
 Frequencies --   1371.0507              1383.3433              1395.0901
 Red. masses --      1.7889                 1.4752                 2.2566
 Frc consts  --      1.9813                 1.6632                 2.5877
 IR Inten    --   6261.4377              4312.3971              7749.3002

                     61                     62                     63
                      A                      A                      A
 Frequencies --   1435.0846              1457.3077              1458.0387
 Red. masses --      3.8731                 1.4428                 1.6947
 Frc consts  --      4.6997                 1.8053                 2.1227
 IR Inten    --    216.9576               184.0484               662.6822

                     64                     65                     66
                      A                      A                      A
 Frequencies --   1469.9879              1482.9855              1490.9163
 Red. masses --      1.1256                 3.4982                 1.1814
 Frc consts  --      1.4331                 4.5328                 1.5473
 IR Inten    --     32.0555              3168.4112                75.0629

                     67                     68                     69
                      A                      A                      A
 Frequencies --   1497.0101              1506.3111              1533.6652
 Red. masses --      2.4845                 1.1809                 4.8305
 Frc consts  --      3.2805                 1.5787                 6.6943
 IR Inten    --    125.1805               373.0494              6091.6660

                     70                     71                     72
                      A                      A                      A
 Frequencies --   1570.4077              1598.6927              1619.7848
 Red. masses --      5.8987                 5.8551                 5.5930
 Frc consts  --      8.5709                 8.8169                 8.6459
 IR Inten    --   6947.6350                29.0278                 5.9641

                     73                     74                     75
                      A                      A                      A
 Frequencies --   2965.0473              3000.4296              3014.4402
 Red. masses --      1.0539                 1.0369                 1.0763
 Frc consts  --      5.4589                 5.5001                 5.7622
 IR Inten    --   1467.0117               160.2527               206.3553

                     76                     77                     78
                      A                      A                      A
 Frequencies --   3063.3071              3066.6393              3078.7423
 Red. masses --      1.1001                 1.1013                 1.0839
 Frc consts  --      6.0824                 6.1024                 6.0533
 IR Inten    --     26.1055                11.4061               237.7311

                     79                     80                     81
                      A                      A                      A
 Frequencies --   3079.1766              3097.2573              3109.9398
 Red. masses --      1.0985                 1.0841                 1.0928
 Frc consts  --      6.1363                 6.1275                 6.2275
 IR Inten    --     15.2672               360.4570              1620.9390

                     82                     83                     84
                      A                      A                      A
 Frequencies --   3115.3974              3135.5835              3159.4627
 Red. masses --      1.0875                 1.0937                 1.0925
 Frc consts  --      6.2190                 6.3357                 6.4252
 IR Inten    --    583.1329               759.2432               159.9496

 - Thermochemistry -
 -------------------
 Temperature   298.150 Kelvin.  Pressure   1.00000 Atm.
 Atom     1 has atomic number  6 and mass  12.00000

 Molecular mass:   240.07864 amu.
 Principal axes and moments of inertia in atomic units:
                           1         2         3
     Eigenvalues --  1989.034126721.061357248.24610
           X            0.98284  -0.09899   0.15565
           Y           -0.02469   0.76561   0.64283
           Z           -0.18280  -0.63564   0.75003
 This molecule is an asymmetric top.
 Rotational symmetry number  1.
 Warning -- assumption of classical behavior for rotation
           may cause significant error
 Rotational temperatures (Kelvin)      0.04355     0.01289     0.01195
 Rotational constants (GHZ):           0.90735     0.26852     0.24899
 Zero-point vibrational energy     588967.3 (Joules/Mol)
                                  140.76656 (Kcal/Mol)
 Warning -- explicit consideration of  25 degrees of freedom as
           vibrations may cause significant error
 Vibrational temperatures:     29.80    45.67    86.05   119.73   156.48
          (Kelvin)            188.84   214.20   247.25   251.52   285.62
                              331.81   354.59   472.69   477.00   496.21
                              536.78   561.34   590.56   634.20   659.03
                              680.93   772.45   817.28   847.38   862.75
                              903.67   945.73  1036.90  1048.90  1067.85
                             1086.31  1123.07  1155.18  1185.19  1202.40
                             1224.92  1311.58  1327.64  1355.38  1364.64
                             1449.63  1463.13  1496.78  1516.61  1517.95
                             1546.27  1611.17  1639.32  1671.71  1675.77
                             1724.95  1747.84  1806.65  1856.35  1908.31
                             1915.47  1954.54  1972.64  1990.32  2007.22
                             2064.77  2096.74  2097.79  2114.98  2133.69
                             2145.10  2153.86  2167.25  2206.60  2259.47
                             2300.16  2330.51  4266.04  4316.95  4337.11
                             4407.42  4412.21  4429.62  4430.25  4456.26
                             4474.51  4482.36  4511.41  4545.76

 Zero-point correction=                           0.224326 (Hartree/Particle)
 Thermal correction to Energy=                    0.240565
 Thermal correction to Enthalpy=                  0.241509
 Thermal correction to Gibbs Free Energy=         0.179404
 Sum of electronic and zero-point Energies=           -804.464516
 Sum of electronic and thermal Energies=              -804.448277
 Sum of electronic and thermal Enthalpies=            -804.447333
 Sum of electronic and thermal Free Energies=         -804.509438

                     E (Thermal)             CV                S
                      KCal/Mol        Cal/Mol-Kelvin    Cal/Mol-Kelvin
 Total                  150.957             61.649            130.711
 Electronic               0.000              0.000              0.000
 Translational            0.889              2.981             42.329
 Rotational               0.889              2.981             32.938
 Vibrational            149.179             55.687             55.444
 Vibration     1          0.593              1.986              6.564
 Vibration     2          0.594              1.983              5.718
 Vibration     3          0.597              1.973              4.463
 Vibration     4          0.600              1.961              3.813
 Vibration     5          0.606              1.942              3.291
 Vibration     6          0.612              1.922              2.928
 Vibration     7          0.618              1.904              2.686
 Vibration     8          0.626              1.877              2.415
 Vibration     9          0.627              1.873              2.383
 Vibration    10          0.637              1.842              2.147
 Vibration    11          0.652              1.794              1.874
 Vibration    12          0.661              1.769              1.756
 Vibration    13          0.712              1.618              1.267
 Vibration    14          0.714              1.613              1.253
 Vibration    15          0.723              1.586              1.189
 Vibration    16          0.744              1.527              1.067
 Vibration    17          0.758              1.491              1.000
 Vibration    18          0.775              1.448              0.925
 Vibration    19          0.801              1.381              0.824
 Vibration    20          0.816              1.343              0.772
 Vibration    21          0.830              1.309              0.728
 Vibration    22          0.892              1.168              0.572
 Vibration    23          0.924              1.100              0.508
 Vibration    24          0.946              1.055              0.469
 Vibration    25          0.958              1.033              0.450

                           ! Non-Optimized Parameters !
 Normal termination of Gaussian 16 at Wed Jan 10 18:03:07 2024.
