 Q-Chem 5.4, Q-Chem, Inc., Pleasanton, CA (2021)
 Q-Chem 5.4.0 for Intel X86 EM64T Linux

User input:
--------------------------------------------------------------
$molecule
0 1
C                 -4.1274410000      3.6410230000      1.5168370000
C                 -4.6133980000      3.8629350000      0.2313490000
C                 -4.0292610000      3.2247490000     -0.8517450000
C                 -2.9470140000      2.3505320000     -0.6776060000
C                 -2.4390320000      2.1119650000      0.6198140000
C                 -3.0543710000      2.7765050000      1.7054720000
C                 -2.5660700000      2.5685420000      3.1037810000
C                 -1.4291260000      1.6523620000      3.3075450000
C                 -0.8468320000      1.0231740000      2.2790200000
C                 -1.2899260000      1.1892680000      0.8453820000
O                 -3.0800910000      3.1304600000      4.0573370000
O                 -0.7204290000      0.5913430000     -0.0413530000
H                 -4.5633160000      4.1250490000      2.3808270000
H                 -4.4075090000      3.3970050000     -1.8553420000
O                 -2.3870880000      1.7349500000     -1.7425360000
Br                 0.6160380000     -0.1534180000      2.5583170000
H                 -5.4490730000      4.5342950000      0.0714360000
H                 -1.1005600000      1.5238120000      4.3313710000
H                 -2.8473720000      2.0035110000     -2.5461040000
$end
$rem
MAX_SCF_CYCLES=200
BASIS  =  6-311++G(d,p)
GUI  =  2
JOB_TYPE  =  SP
METHOD  =  B3LYP
SOLVENT_METHOD = PCM
$end
$pcm
theory = CPCM
$end
$solvent
dielectric 37.219
opticaldielectric 1.43
$end

--------------------------------------------------------------

             Standard Nuclear Orientation (Angstroms)
    I     Atom           X                Y                Z
 ----------------------------------------------------------------
    1      C      -4.1274410000     3.6410230000     1.5168370000
    2      C      -4.6133980000     3.8629350000     0.2313490000
    3      C      -4.0292610000     3.2247490000    -0.8517450000
    4      C      -2.9470140000     2.3505320000    -0.6776060000
    5      C      -2.4390320000     2.1119650000     0.6198140000
    6      C      -3.0543710000     2.7765050000     1.7054720000
    7      C      -2.5660700000     2.5685420000     3.1037810000
    8      C      -1.4291260000     1.6523620000     3.3075450000
    9      C      -0.8468320000     1.0231740000     2.2790200000
   10      C      -1.2899260000     1.1892680000     0.8453820000
   11      O      -3.0800910000     3.1304600000     4.0573370000
   12      O      -0.7204290000     0.5913430000    -0.0413530000
   13      H      -4.5633160000     4.1250490000     2.3808270000
   14      H      -4.4075090000     3.3970050000    -1.8553420000
   15      O      -2.3870880000     1.7349500000    -1.7425360000
   16      Br      0.6160380000    -0.1534180000     2.5583170000
   17      H      -5.4490730000     4.5342950000     0.0714360000
   18      H      -1.1005600000     1.5238120000     4.3313710000
   19      H      -2.8473720000     2.0035110000    -2.5461040000
 ----------------------------------------------------------------

    9   -3184.0571799270      4.63e-06  Convergence criterion met
 Total energy in the final basis set =    -3184.0571799270

                    Orbital Energies (a.u.)
 --------------------------------------------------------------

 Alpha MOs
 -- Occupied --
******** -62.5026 -56.3232 -56.3194 -56.3190 -19.1755 -19.1403 -19.1398
-10.2982 -10.2906 -10.2730 -10.2669 -10.2170 -10.2157 -10.2143 -10.2028
-10.1996 -10.1952  -8.7114  -6.5430  -6.5303  -6.5290  -2.6539  -2.6505
 -2.6496  -2.6394  -2.6393  -1.0944  -1.0772  -1.0732  -0.8948  -0.8681
 -0.8093  -0.7775  -0.7689  -0.7007  -0.6660  -0.6409  -0.6104  -0.5642
 -0.5500  -0.5143  -0.5118  -0.4875  -0.4751  -0.4674  -0.4669  -0.4418
 -0.4326  -0.4281  -0.4235  -0.4109  -0.3895  -0.3842  -0.3642  -0.3534
 -0.3103  -0.2955  -0.2941  -0.2815  -0.2793  -0.2563

          Ground-State Mulliken Net Atomic Charges

     Atom                 Charge (a.u.)
  ----------------------------------------
      1 C                     0.293337
      2 C                    -0.389193
      3 C                    -0.125535
      4 C                     0.163289
      5 C                     0.055396
      6 C                     0.323446
      7 C                    -0.664656
      8 C                     0.132797
      9 C                     0.684125
     10 C                    -0.863174
     11 O                    -0.293380
     12 O                    -0.230630
     13 H                     0.190418
     14 H                     0.215894
     15 O                    -0.223445
     16 Br                   -0.123674
     17 H                     0.241785
     18 H                     0.281704
     19 H                     0.331495
  ----------------------------------------
  Sum of atomic charges =     0.000000

                    Cartesian Multipole Moments
 -----------------------------------------------------------------
    Charge (ESU x 10^10)
                 0.0000
    Dipole Moment (Debye)
         X      -4.0537      Y       2.8575      Z      -3.5769
       Tot       6.1149
    Quadrupole Moments (Debye-Ang)
        XX     -70.9251     XY     -15.5584     YY     -82.5794
        XZ      20.1015     YZ     -16.9303     ZZ     -94.7513

 Total job time:  71.47s(wall), 210.89s(cpu)
        *  Thank you very much for using Q-Chem.  Have a nice day.  *
