 Gaussian 16, Revision A.03,
 Gaussian 16:  ES64L-G16RevA.03 25-Dec-2016

 ----------------------------------------------------------------
 #P UB3LYP/6-311++G(d,p) SCRF=(PCM,Solvent=n,n-DiMethylFormamide)
 ----------------------------------------------------------------

 -------
 Reduced
 -------
 Symbolic Z-matrix:
 Charge = -2 Multiplicity = 1

                         Standard orientation:
 ---------------------------------------------------------------------
 Center     Atomic      Atomic             Coordinates (Angstroms)
 Number     Number       Type             X           Y           Z
 ---------------------------------------------------------------------
      1          6           0       -6.701278    0.952453    1.261975
      2          6           0       -7.178989    2.172713    0.825292
      3          6           0       -6.524939    2.852538   -0.231003
      4          6           0       -5.559217    0.352205    0.674888
      5          6           0       -4.891854    1.044147   -0.398654
      6          6           0       -5.404985    2.284827   -0.819024
      7          6           0       -5.074355   -0.917539    1.134927
      8          6           0       -3.914652   -1.424498    0.466692
      9          6           0       -3.246134   -0.791531   -0.575112
     10          6           0       -3.703063    0.487002   -1.058197
     11          8           0       -5.590775   -1.632571    2.083657
     12          8           0       -3.116972    1.098628   -2.008844
     13          8           0       -3.505965   -2.644086    0.952271
     14          6           0       -2.050150   -1.423657   -1.236506
     15          1           0       -7.186261    0.414135    2.069915
     16          1           0       -8.057087    2.612822    1.293161
     17          1           0       -6.898375    3.813564   -0.576052
     18          1           0       -4.880355    2.781817   -1.628761
     19          1           0       -4.188064   -2.788660    1.652269
     20          6           0       -0.694049   -0.943002   -0.679437
     21          6           0        0.492203   -1.572660   -1.439828
     22          6           0        1.859092   -1.167664   -0.939017
     23          6           0        2.470939    0.019742   -1.364467
     24          6           0        2.567078   -1.956609   -0.026219
     25          6           0        3.828535   -1.580230    0.435474
     26          6           0        4.441874   -0.399215    0.005397
     27          6           0        3.731319    0.394828   -0.905480
     28          6           0        5.827381   -0.018267    0.500220
     29          6           0        6.879525    0.000486   -0.632646
     30          6           0        5.846768    1.322695    1.267217
     31          6           0        7.249838    1.665182    1.789534
     32          6           0        8.282052    0.346733   -0.113310
     33          6           0        8.294251    1.665530    0.667481
     34          1           0       -2.082637   -1.171829   -2.303195
     35          1           0       -2.105238   -2.513833   -1.135268
     36          1           0       -0.622987   -1.195562    0.384220
     37          1           0       -0.647411    0.147125   -0.759433
     38          1           0        0.402485   -1.303942   -2.499346
     39          1           0        0.402497   -2.664722   -1.387743
     40          1           0        1.946670    0.659490   -2.068208
     41          1           0        2.122677   -2.882246    0.328386
     42          1           0        4.350202   -2.220641    1.142043
     43          1           0        4.167088    1.321036   -1.267734
     44          1           0        6.137720   -0.796744    1.210571
     45          1           0        6.578923    0.734556   -1.390692
     46          1           0        6.891121   -0.974082   -1.135080
     47          1           0        5.130953    1.278839    2.095947
     48          1           0        5.500145    2.123760    0.602665
     49          1           0        7.541005    0.930325    2.552417
     50          1           0        7.237416    2.639269    2.294508
     51          1           0        8.996044    0.392576   -0.946078
     52          1           0        8.634309   -0.461896    0.541584
     53          1           0        8.080363    2.493367   -0.022297
     54          1           0        9.295351    1.858449    1.074338
 ---------------------------------------------------------------------

 SCF Done:  E(UB3LYP) =  -1194.58915804     A.U. after   19 cycles

 The electronic state is 1-A.
 Alpha  occ. eigenvalues --  -19.10872 -19.02165 -19.01427 -10.17554 -10.17543
 Alpha  occ. eigenvalues --  -10.17242 -10.17179 -10.16904 -10.16882 -10.16875
 Alpha  occ. eigenvalues --  -10.16807 -10.16771 -10.16080 -10.16055 -10.16018
 Alpha  occ. eigenvalues --  -10.15947 -10.15933 -10.15854 -10.15695 -10.15026
 Alpha  occ. eigenvalues --  -10.14543 -10.14169 -10.14122 -10.14059 -10.14041
 Alpha  occ. eigenvalues --  -10.13145 -10.12758 -10.11961  -1.02311  -0.93816
 Alpha  occ. eigenvalues --   -0.92903  -0.86141  -0.82912  -0.82082  -0.79246
 Alpha  occ. eigenvalues --   -0.77085  -0.74989  -0.74243  -0.73735  -0.72476
 Alpha  occ. eigenvalues --   -0.71812  -0.69808  -0.65986  -0.62742  -0.61226
 Alpha  occ. eigenvalues --   -0.60642  -0.60520  -0.58857  -0.57719  -0.56586
 Alpha  occ. eigenvalues --   -0.55200  -0.54673  -0.53142  -0.50035  -0.49729
 Alpha  occ. eigenvalues --   -0.47480  -0.46987  -0.46142  -0.45065  -0.44594
 Alpha  occ. eigenvalues --   -0.43578  -0.43459  -0.43148  -0.42178  -0.41862
 Alpha  occ. eigenvalues --   -0.41594  -0.41092  -0.40374  -0.39779  -0.39012
 Alpha  occ. eigenvalues --   -0.38792  -0.37993  -0.37461  -0.36956  -0.36721
 Alpha  occ. eigenvalues --   -0.35822  -0.35265  -0.35096  -0.34705  -0.34437
 Alpha  occ. eigenvalues --   -0.34047  -0.33734  -0.33241  -0.32994  -0.32725
 Alpha  occ. eigenvalues --   -0.31680  -0.31224  -0.30925  -0.30448  -0.29990
 Alpha  occ. eigenvalues --   -0.29846  -0.29472  -0.29445  -0.25324  -0.23567
 Alpha  occ. eigenvalues --   -0.22626  -0.22075  -0.21024  -0.19223  -0.18826
 Alpha  occ. eigenvalues --   -0.10207
 Alpha virt. eigenvalues --   -0.01243  -0.01014  -0.00383  -0.00150   0.00084
 Alpha virt. eigenvalues --    0.00607   0.00765   0.01263   0.01468   0.01711
 Alpha virt. eigenvalues --    0.02205   0.02415   0.02436   0.03077   0.03331

  Beta  occ. eigenvalues --  -19.10872 -19.02165 -19.01427 -10.17554 -10.17543
  Beta  occ. eigenvalues --  -10.17242 -10.17179 -10.16904 -10.16882 -10.16875
  Beta  occ. eigenvalues --  -10.16807 -10.16771 -10.16080 -10.16055 -10.16018
  Beta  occ. eigenvalues --  -10.15947 -10.15933 -10.15854 -10.15695 -10.15026
  Beta  occ. eigenvalues --  -10.14543 -10.14169 -10.14122 -10.14059 -10.14041
  Beta  occ. eigenvalues --  -10.13145 -10.12758 -10.11961  -1.02311  -0.93816
  Beta  occ. eigenvalues --   -0.92903  -0.86141  -0.82912  -0.82082  -0.79246
  Beta  occ. eigenvalues --   -0.77085  -0.74989  -0.74243  -0.73735  -0.72476
  Beta  occ. eigenvalues --   -0.71812  -0.69808  -0.65986  -0.62742  -0.61226
  Beta  occ. eigenvalues --   -0.60642  -0.60520  -0.58857  -0.57719  -0.56586
  Beta  occ. eigenvalues --   -0.55200  -0.54673  -0.53142  -0.50035  -0.49729
  Beta  occ. eigenvalues --   -0.47480  -0.46987  -0.46142  -0.45065  -0.44594
  Beta  occ. eigenvalues --   -0.43578  -0.43459  -0.43148  -0.42178  -0.41862
  Beta  occ. eigenvalues --   -0.41594  -0.41092  -0.40374  -0.39779  -0.39012
  Beta  occ. eigenvalues --   -0.38792  -0.37993  -0.37461  -0.36956  -0.36721
  Beta  occ. eigenvalues --   -0.35822  -0.35265  -0.35096  -0.34705  -0.34437
  Beta  occ. eigenvalues --   -0.34047  -0.33734  -0.33241  -0.32994  -0.32725
  Beta  occ. eigenvalues --   -0.31680  -0.31224  -0.30925  -0.30448  -0.29990
  Beta  occ. eigenvalues --   -0.29846  -0.29472  -0.29445  -0.25324  -0.23567
  Beta  occ. eigenvalues --   -0.22626  -0.22075  -0.21024  -0.19223  -0.18826
  Beta  occ. eigenvalues --   -0.10207
  Beta virt. eigenvalues --   -0.01243  -0.01014  -0.00383  -0.00150   0.00084
  Beta virt. eigenvalues --    0.00607   0.00765   0.01263   0.01468   0.01711
  Beta virt. eigenvalues --    0.02205   0.02415   0.02436   0.03077   0.03331

 Mulliken charges and spin densities:
               1          2
     1  C   -0.021504  -0.000000
     2  C   -0.428511  -0.000000
     3  C   -0.500907   0.000000
     4  C    0.217494   0.000000
     5  C    0.245872   0.000000
     6  C    0.039520   0.000000
     7  C   -0.903947  -0.000000
     8  C   -0.588088   0.000000
     9  C    1.818782   0.000000
    10  C   -0.946316  -0.000000
    11  O   -0.726222  -0.000000
    12  O   -0.631363   0.000000
    13  O   -0.336918  -0.000000
    14  C   -0.370688  -0.000000
    15  H    0.145678   0.000000
    16  H    0.149236   0.000000
    17  H    0.148194  -0.000000
    18  H    0.140052   0.000000
    19  H    0.275644   0.000000
    20  C   -0.471923   0.000000
    21  C   -0.628103  -0.000000
    22  C    1.070310   0.000000
    23  C   -0.327675  -0.000000
    24  C   -0.569430   0.000000
    25  C   -0.415759   0.000000
    26  C    0.514493   0.000000
    27  C   -0.539803  -0.000000
    28  C    0.267950  -0.000000
    29  C   -0.449226   0.000000
    30  C   -0.437212   0.000000
    31  C   -0.402923   0.000000
    32  C   -0.386334   0.000000
    33  C   -0.392297  -0.000000
    34  H    0.159309  -0.000000
    35  H    0.196976   0.000000
    36  H    0.161611   0.000000
    37  H    0.187482   0.000000
    38  H    0.155806  -0.000000
    39  H    0.139036   0.000000
    40  H    0.187612   0.000000
    41  H    0.183952   0.000000
    42  H    0.175669  -0.000000
    43  H    0.183118  -0.000000
    44  H    0.179840   0.000000
    45  H    0.142456  -0.000000
    46  H    0.173164  -0.000000
    47  H    0.174565  -0.000000
    48  H    0.139472  -0.000000
    49  H    0.131281   0.000000
    50  H    0.174154   0.000000
    51  H    0.173036   0.000000
    52  H    0.131227  -0.000000
    53  H    0.117373   0.000000
    54  H    0.174785   0.000000
 Sum of Mulliken charges =  -2.00000   0.00000

 Dipole moment (field-independent basis, Debye):
    X=             42.4370    Y=              1.5010    Z=             -0.3730  Tot=             42.4652
 Quadrupole moment (field-independent basis, Debye-Ang):
   XX=           -383.2614   YY=           -199.8103   ZZ=           -207.1873
   XY=             -5.0429   XZ=             22.0460   YZ=             14.4952

 Normal termination of Gaussian 16 at Thu Jan 25 06:10:06 2024.
