 Gaussian 16, Revision A.03,
 Gaussian 16:  ES64L-G16RevA.03 25-Dec-2016

 ----------------------------------------------------------------
 #P UB3LYP/6-311++G(d,p) SCRF=(PCM,Solvent=n,n-DiMethylFormamide)
 ----------------------------------------------------------------

 ------------------
 Radical PCM in DMF
 ------------------
 Symbolic Z-matrix:
 Charge = -1 Multiplicity = 2

                         Standard orientation:
 ---------------------------------------------------------------------
 Center     Atomic      Atomic             Coordinates (Angstroms)
 Number     Number       Type             X           Y           Z
 ---------------------------------------------------------------------
      1          6           0       -5.006932    0.738791   -0.691834
      2          6           0       -5.683393   -0.456594   -0.568052
      3          6           0       -5.059350   -1.557978    0.056350
      4          6           0       -3.696327    0.880178   -0.202931
      5          6           0       -3.070716   -0.224947    0.423190
      6          6           0       -3.774068   -1.436454    0.541021
      7          6           0       -3.003919    2.167475   -0.350422
      8          6           0       -1.653159    2.239276    0.175190
      9          6           0       -1.043864    1.155958    0.797751
     10          6           0       -1.703718   -0.125303    0.948456
     11          8           0       -3.572820    3.144696   -0.908180
     12          8           0       -1.145022   -1.112031    1.500877
     13          6           0       -0.947802    3.566610    0.018704
     14          6           0        0.363642    1.233370    1.344440
     15          6           0        1.426042    0.700087    0.363017
     16          6           0        2.846109    0.729359    0.938524
     17          6           0        3.911613    0.192431   -0.024125
     18          6           0        5.332361    0.211970    0.551750
     19          6           0        6.397034   -0.326476   -0.410949
     20          6           0        7.817150   -0.310230    0.166333
     21          6           0        8.881290   -0.849445   -0.796127
     22          6           0       10.301474   -0.834498   -0.219184
     23          6           0       11.357059   -1.375688   -1.188327
     24         17           0       -5.898982   -3.101626    0.230523
     25         17           0       -7.327677   -0.580351   -1.199903
     26          1           0       -5.469439    1.594390   -1.167289
     27          1           0       -3.278335   -2.270048    1.022181
     28          1           0       -1.555614    4.221711   -0.605464
     29          1           0        0.040808    3.455385   -0.438728
     30          1           0       -0.800596    4.063174    0.986316
     31          1           0        0.408002    0.623126    2.251689
     32          1           0        0.612772    2.262566    1.621786
     33          1           0        1.394775    1.286044   -0.564349
     34          1           0        1.159121   -0.327465    0.096728
     35          1           0        2.867917    0.141227    1.865297
     36          1           0        3.104268    1.758658    1.224419
     37          1           0        3.889987    0.779592   -0.951883
     38          1           0        3.651543   -0.834867   -0.310069
     39          1           0        5.353566   -0.376059    1.478757
     40          1           0        5.592287    1.239565    0.839272
     41          1           0        6.377033    0.262079   -1.337654
     42          1           0        6.136177   -1.353124   -0.699374
     43          1           0        7.836884   -0.899014    1.092868
     44          1           0        8.078333    0.716558    0.454875
     45          1           0        8.862965   -0.260922   -1.723007
     46          1           0        8.620894   -1.876237   -1.085186
     47          1           0       10.320473   -1.422991    0.706404
     48          1           0       10.562667    0.191325    0.068872
     49          1           0       11.142116   -2.412168   -1.467908
     50          1           0       12.357929   -1.351600   -0.746996
     51          1           0       11.386229   -0.785958   -2.110331
 ---------------------------------------------------------------------

 SCF Done:  E(UB3LYP) =  -1887.22471327     A.U. after   19 cycles

 The electronic state is 2-A.
 Alpha  occ. eigenvalues -- -101.56186-101.56184 -19.07672 -19.07597 -10.24752
 Alpha  occ. eigenvalues --  -10.24705 -10.22227 -10.22128 -10.18745 -10.18743
 Alpha  occ. eigenvalues --  -10.18179 -10.18125 -10.17154 -10.16797 -10.16076
 Alpha  occ. eigenvalues --  -10.15829 -10.15809 -10.15791 -10.15771 -10.15741
 Alpha  occ. eigenvalues --  -10.15725 -10.15700 -10.15688 -10.15450 -10.15323
 Alpha  occ. eigenvalues --   -9.47635  -9.47632  -7.24092  -7.24090  -7.23129
 Alpha  occ. eigenvalues --   -7.23127  -7.23079  -7.23077  -1.00278  -0.99983
 Alpha  occ. eigenvalues --   -0.91438  -0.86065  -0.84830  -0.81862  -0.80855
 Alpha  occ. eigenvalues --   -0.79206  -0.76878  -0.75724  -0.74825  -0.73576
 Alpha  occ. eigenvalues --   -0.70764  -0.68131  -0.66097  -0.64670  -0.62101
 Alpha  occ. eigenvalues --   -0.60525  -0.58410  -0.57597  -0.57178  -0.56965
 Alpha  occ. eigenvalues --   -0.55533  -0.51971  -0.49240  -0.48804  -0.48285
 Alpha  occ. eigenvalues --   -0.47046  -0.46081  -0.44392  -0.44252  -0.43744
 Alpha  occ. eigenvalues --   -0.43234  -0.43021  -0.42336  -0.41909  -0.41525
 Alpha  occ. eigenvalues --   -0.41234  -0.40764  -0.39984  -0.39474  -0.38694
 Alpha  occ. eigenvalues --   -0.38616  -0.38347  -0.37676  -0.37450  -0.36369
 Alpha  occ. eigenvalues --   -0.35986  -0.35473  -0.35212  -0.34932  -0.33839
 Alpha  occ. eigenvalues --   -0.33575  -0.33392  -0.33276  -0.32559  -0.32502
 Alpha  occ. eigenvalues --   -0.32082  -0.32057  -0.31810  -0.31682  -0.31526
 Alpha  occ. eigenvalues --   -0.29892  -0.26573  -0.26304  -0.24811  -0.24073
 Alpha  occ. eigenvalues --   -0.23609  -0.15292
 Alpha virt. eigenvalues --   -0.04460  -0.02353  -0.01362  -0.00468  -0.00143
 Alpha virt. eigenvalues --    0.00530   0.00779   0.00829   0.01413   0.01588
 Alpha virt. eigenvalues --    0.02032   0.02473   0.02674   0.03118   0.03641

  Beta  occ. eigenvalues -- -101.56184-101.56182 -19.07046 -19.06984 -10.24706
  Beta  occ. eigenvalues --  -10.24658 -10.22062 -10.21965 -10.18749 -10.18746
  Beta  occ. eigenvalues --  -10.18106 -10.18052 -10.17034 -10.16677 -10.16076
  Beta  occ. eigenvalues --  -10.15829 -10.15809 -10.15791 -10.15771 -10.15740
  Beta  occ. eigenvalues --  -10.15718 -10.15702 -10.15689 -10.15450 -10.15333
  Beta  occ. eigenvalues --   -9.47632  -9.47630  -7.24093  -7.24091  -7.23120
  Beta  occ. eigenvalues --   -7.23117  -7.23078  -7.23076  -0.99202  -0.98886
  Beta  occ. eigenvalues --   -0.91353  -0.86022  -0.84553  -0.81666  -0.80802
  Beta  occ. eigenvalues --   -0.79147  -0.76803  -0.75558  -0.74666  -0.73452
  Beta  occ. eigenvalues --   -0.70576  -0.68012  -0.65620  -0.64429  -0.62048
  Beta  occ. eigenvalues --   -0.60430  -0.58215  -0.57558  -0.57092  -0.56959
  Beta  occ. eigenvalues --   -0.55260  -0.51832  -0.49040  -0.48625  -0.48258
  Beta  occ. eigenvalues --   -0.46996  -0.46015  -0.44332  -0.44198  -0.43396
  Beta  occ. eigenvalues --   -0.42933  -0.42697  -0.42124  -0.41763  -0.41346
  Beta  occ. eigenvalues --   -0.41098  -0.40509  -0.39614  -0.39154  -0.38626
  Beta  occ. eigenvalues --   -0.38356  -0.37741  -0.37570  -0.36308  -0.36100
  Beta  occ. eigenvalues --   -0.35645  -0.35342  -0.34808  -0.34538  -0.33727
  Beta  occ. eigenvalues --   -0.33540  -0.33329  -0.33213  -0.32483  -0.32211
  Beta  occ. eigenvalues --   -0.32062  -0.31842  -0.31794  -0.31524  -0.31349
  Beta  occ. eigenvalues --   -0.29788  -0.25687  -0.24551  -0.24237  -0.23202
  Beta  occ. eigenvalues --   -0.23007
  Beta virt. eigenvalues --   -0.08764  -0.03841  -0.01317  -0.01223  -0.00451
  Beta virt. eigenvalues --   -0.00132   0.00537   0.00785   0.00835   0.01418
  Beta virt. eigenvalues --    0.01599   0.02042   0.02487   0.02690   0.03141

 Mulliken charges and spin densities:
               1          2
     1  C   -0.493275   0.017393
     2  C    0.432385   0.030857
     3  C    0.345537   0.031515
     4  C   -0.549307   0.023972
     5  C   -0.390638   0.066524
     6  C   -0.362999   0.027871
     7  C   -0.641349   0.098889
     8  C    0.496574   0.051126
     9  C    0.608096   0.082145
    10  C   -0.860207   0.076447
    11  O   -0.476427   0.229289
    12  O   -0.441125   0.229585
    13  C   -0.392771   0.002369
    14  C   -0.330073   0.019064
    15  C   -0.986179   0.001339
    16  C   -0.263944   0.004597
    17  C    0.040926  -0.003801
    18  C    0.074299  -0.000468
    19  C   -0.007444  -0.000085
    20  C   -0.236425   0.000158
    21  C   -0.451175   0.000023
    22  C   -0.279306   0.000011
    23  C   -0.691925  -0.000005
    24  Cl   0.506378   0.002359
    25  Cl   0.502723   0.002339
    26  H    0.210542  -0.001581
    27  H    0.207119  -0.001839
    28  H    0.181213  -0.001547
    29  H    0.163367   0.003975
    30  H    0.180118   0.005524
    31  H    0.211228   0.002846
    32  H    0.174910   0.000590
    33  H    0.126178  -0.000811
    34  H    0.197179  -0.000418
    35  H    0.119864   0.000230
    36  H    0.114261  -0.000448
    37  H    0.129648   0.000127
    38  H    0.123368  -0.000157
    39  H    0.130462  -0.000002
    40  H    0.130144   0.000001
    41  H    0.129345  -0.000005
    42  H    0.129955   0.000003
    43  H    0.126294   0.000002
    44  H    0.126301  -0.000001
    45  H    0.123497   0.000001
    46  H    0.123445  -0.000001
    47  H    0.130947  -0.000001
    48  H    0.130854   0.000000
    49  H    0.140087  -0.000000
    50  H    0.147374  -0.000001
    51  H    0.139949   0.000000
 Sum of Mulliken charges =  -1.00000   1.00000

 Dipole moment (field-independent basis, Debye):
    X=             15.9962    Y=             -1.8186    Z=             -0.5159  Tot=             16.1075
 Quadrupole moment (field-independent basis, Debye-Ang):
   XX=           -246.4164   YY=           -198.9232   ZZ=           -180.7708
   XY=             11.3980   XZ=             -6.5048   YZ=              9.6283

 Normal termination of Gaussian 16 at Sun Jan 21 08:32:19 2024.
