 Q-Chem 5.4, Q-Chem, Inc., Pleasanton, CA (2021)
 Q-Chem 5.4.0 for Intel X86 EM64T Linux

User input:
--------------------------------------------------------------
$molecule
-1 2
C                 -3.0100270000     -1.5508880000     -0.1485220000
O                 -2.2713110000     -0.5576750000      0.5573870000
C                 -0.9205940000     -0.5208050000      0.2820480000
C                 -0.3821670000      0.6291430000     -0.2545340000
O                 -1.2354800000      1.6413010000     -0.6427230000
C                 -1.0743430000      2.8740830000      0.0526930000
C                  1.0481720000      0.7805150000     -0.4953050000
O                  1.5344450000      1.8344310000     -1.0000480000
C                  1.8820350000     -0.3555660000     -0.1372140000
C                  1.3276130000     -1.4978480000      0.3822090000
C                 -0.0839230000     -1.6623190000      0.6365210000
O                 -0.5639690000     -2.7170670000      1.1444460000
C                  3.3620970000     -0.2230530000     -0.3796860000
H                 -2.6202210000     -2.5488600000      0.0630860000
H                 -4.0423500000     -1.4707550000      0.2009940000
H                 -2.9828470000     -1.3541140000     -1.2289420000
H                 -1.3023080000      2.7461750000      1.1196530000
H                 -1.7965230000      3.5685770000     -0.3836660000
H                 -0.0611460000      3.2621440000     -0.0728370000
H                  1.9533780000     -2.3470240000      0.6456990000
H                  3.7785710000      0.6242050000      0.1761840000
H                  3.8897990000     -1.1339980000     -0.0827680000
H                  3.5710990000     -0.0206020000     -1.4357520000
$end
$rem
MAX_SCF_CYCLES=200
BASIS  =  6-311++G(d,p)
GUI  =  2
JOB_TYPE  =  SP
METHOD  =  B3LYP
SOLVENT_METHOD = PCM
$end
$pcm
theory = CPCM
$end
$solvent
dielectric 37.219
opticaldielectric 1.43
$end

--------------------------------------------------------------

             Standard Nuclear Orientation (Angstroms)
    I     Atom           X                Y                Z
 ----------------------------------------------------------------
    1      C      -3.0100270000    -1.5508880000    -0.1485220000
    2      O      -2.2713110000    -0.5576750000     0.5573870000
    3      C      -0.9205940000    -0.5208050000     0.2820480000
    4      C      -0.3821670000     0.6291430000    -0.2545340000
    5      O      -1.2354800000     1.6413010000    -0.6427230000
    6      C      -1.0743430000     2.8740830000     0.0526930000
    7      C       1.0481720000     0.7805150000    -0.4953050000
    8      O       1.5344450000     1.8344310000    -1.0000480000
    9      C       1.8820350000    -0.3555660000    -0.1372140000
   10      C       1.3276130000    -1.4978480000     0.3822090000
   11      C      -0.0839230000    -1.6623190000     0.6365210000
   12      O      -0.5639690000    -2.7170670000     1.1444460000
   13      C       3.3620970000    -0.2230530000    -0.3796860000
   14      H      -2.6202210000    -2.5488600000     0.0630860000
   15      H      -4.0423500000    -1.4707550000     0.2009940000
   16      H      -2.9828470000    -1.3541140000    -1.2289420000
   17      H      -1.3023080000     2.7461750000     1.1196530000
   18      H      -1.7965230000     3.5685770000    -0.3836660000
   19      H      -0.0611460000     3.2621440000    -0.0728370000
   20      H       1.9533780000    -2.3470240000     0.6456990000
   21      H       3.7785710000     0.6242050000     0.1761840000
   22      H       3.8897990000    -1.1339980000    -0.0827680000
   23      H       3.5710990000    -0.0206020000    -1.4357520000
 ----------------------------------------------------------------

    8    -650.1607735045      7.97e-06  Convergence criterion met
 Total energy in the final basis set =     -650.1607735045

                    Orbital Energies (a.u.)
 --------------------------------------------------------------

 Alpha MOs
 -- Occupied --
-19.1370 -19.1366 -19.0796 -19.0782 -10.2227 -10.2217 -10.2166 -10.2157
-10.2037 -10.2036 -10.1724 -10.1572 -10.1560  -1.0616  -1.0427  -0.9983
 -0.9957  -0.8251  -0.7662  -0.7104  -0.7006  -0.6681  -0.6452  -0.5820
 -0.5616  -0.5127  -0.4926  -0.4907  -0.4674  -0.4446  -0.4420  -0.4360
 -0.4261  -0.4182  -0.4119  -0.3898  -0.3838  -0.3732  -0.3702  -0.3657
 -0.3478  -0.3462  -0.2920  -0.2889  -0.2733  -0.2408  -0.2393  -0.2290
 -0.1617

 Beta MOs
 -- Occupied --
-19.1368 -19.1365 -19.0732 -19.0719 -10.2210 -10.2198 -10.2158 -10.2147
-10.2036 -10.2036 -10.1710 -10.1563 -10.1561  -1.0606  -1.0416  -0.9872
 -0.9847  -0.8194  -0.7643  -0.7063  -0.6994  -0.6639  -0.6403  -0.5787
 -0.5581  -0.5115  -0.4900  -0.4886  -0.4639  -0.4430  -0.4404  -0.4331
 -0.4249  -0.4119  -0.4054  -0.3862  -0.3726  -0.3696  -0.3665  -0.3470
 -0.3447  -0.3400  -0.2891  -0.2856  -0.2461  -0.2350  -0.2342  -0.2223

          Ground-State Mulliken Net Atomic Charges

     Atom                 Charge (a.u.)    Spin (a.u.)
  --------------------------------------------------------
      1 C                    -0.279785       0.001498
      2 O                    -0.219177       0.001144
      3 C                     0.236889       0.116288
      4 C                    -0.197567       0.045006
      5 O                    -0.209680       0.000460
      6 C                    -0.281433       0.001182
      7 C                    -0.365977       0.100346
      8 O                    -0.510874       0.240146
      9 C                     1.130247       0.093128
     10 C                    -0.829771       0.047779
     11 C                    -0.185886       0.111431
     12 O                    -0.525289       0.231454
     13 C                    -0.397938       0.005799
     14 H                     0.169712      -0.000573
     15 H                     0.161732       0.000388
     16 H                     0.148243       0.000928
     17 H                     0.149410       0.000762
     18 H                     0.162877       0.000436
     19 H                     0.167172      -0.000189
     20 H                     0.174273      -0.007305
     21 H                     0.171407       0.004727
     22 H                     0.160564      -0.000129
     23 H                     0.170850       0.005295
  --------------------------------------------------------
  Sum of atomic charges =    -1.000000

                    Cartesian Multipole Moments
 -----------------------------------------------------------------
    Charge (ESU x 10^10)
                -4.8032
    Dipole Moment (Debye)
         X      -0.4083      Y       1.7504      Z      -0.4265
       Tot       1.8473
    Quadrupole Moments (Debye-Ang)
        XX     -84.1493     XY      -8.9586     YY    -101.7872
        XZ       7.0664     YZ      16.4131     ZZ     -88.7703

 Total job time:  25.13s(wall), 193.55s(cpu)
        *  Thank you very much for using Q-Chem.  Have a nice day.  *
