 Q-Chem 5.4, Q-Chem, Inc., Pleasanton, CA (2021)
 Q-Chem 5.4.0 for Intel X86 EM64T Linux

User input:
--------------------------------------------------------------
$molecule
-2 1
C                  4.4054090000     -0.1064040000     -0.1277940000
C                  2.9382740000      0.2574820000     -0.1880200000
C                  2.6000450000      1.6047200000     -0.4802180000
C                  1.2837110000      2.0301740000     -0.4461990000
C                  0.2190450000      1.1578980000     -0.1854270000
C                 -1.1304490000      1.7018190000     -0.2164620000
O                 -1.3751000000      2.9418400000     -0.4010010000
C                 -2.1830460000      0.7144210000     -0.0623390000
C                 -3.5361690000      1.1309520000     -0.0767460000
C                 -4.5787820000      0.2340250000      0.0447060000
C                 -4.2938600000     -1.1503340000      0.1858150000
C                 -2.9836000000     -1.5840510000      0.1978230000
C                 -1.8911980000     -0.6887030000      0.0778400000
C                 -0.5364220000     -1.2374310000      0.1033570000
O                 -0.3304400000     -2.4945810000      0.1616370000
C                  0.5079040000     -0.2539920000      0.0426200000
C                  1.9005490000     -0.6175450000      0.1102780000
N                  2.3068550000     -1.9001770000      0.6711380000
O                  3.1320680000     -2.5929930000      0.0261410000
O                  1.9126710000     -2.2091320000      1.8024210000
H                  4.7289640000     -0.6137110000     -1.0427400000
H                  4.6370130000     -0.7869360000      0.6949590000
H                  5.0046850000      0.8044780000     -0.0090240000
H                  3.4013680000      2.3121690000     -0.6814790000
H                  1.0250930000      3.0687920000     -0.6281780000
H                 -3.7150720000      2.1956290000     -0.1911160000
H                 -5.6098680000      0.5824920000      0.0324750000
H                 -5.1081310000     -1.8662720000      0.2842910000
H                 -2.7315190000     -2.6346290000      0.3012430000
$end

$rem
BASIS  =  6-311++G(d,p)
GUI  =  2
JOB_TYPE  =  SP
METHOD  =  B3LYP
SCF_CONVERGENCE  = 8
SOLVENT_METHOD = sm12
$end

$smx
solvent dimethylformamide
charges CM5
$end

--------------------------------------------------------------

             Standard Nuclear Orientation (Angstroms)
    I     Atom           X                Y                Z
 ----------------------------------------------------------------
    1      C       4.4054090000    -0.1064040000    -0.1277940000
    2      C       2.9382740000     0.2574820000    -0.1880200000
    3      C       2.6000450000     1.6047200000    -0.4802180000
    4      C       1.2837110000     2.0301740000    -0.4461990000
    5      C       0.2190450000     1.1578980000    -0.1854270000
    6      C      -1.1304490000     1.7018190000    -0.2164620000
    7      O      -1.3751000000     2.9418400000    -0.4010010000
    8      C      -2.1830460000     0.7144210000    -0.0623390000
    9      C      -3.5361690000     1.1309520000    -0.0767460000
   10      C      -4.5787820000     0.2340250000     0.0447060000
   11      C      -4.2938600000    -1.1503340000     0.1858150000
   12      C      -2.9836000000    -1.5840510000     0.1978230000
   13      C      -1.8911980000    -0.6887030000     0.0778400000
   14      C      -0.5364220000    -1.2374310000     0.1033570000
   15      O      -0.3304400000    -2.4945810000     0.1616370000
   16      C       0.5079040000    -0.2539920000     0.0426200000
   17      C       1.9005490000    -0.6175450000     0.1102780000
   18      N       2.3068550000    -1.9001770000     0.6711380000
   19      O       3.1320680000    -2.5929930000     0.0261410000
   20      O       1.9126710000    -2.2091320000     1.8024210000
   21      H       4.7289640000    -0.6137110000    -1.0427400000
   22      H       4.6370130000    -0.7869360000     0.6949590000
   23      H       5.0046850000     0.8044780000    -0.0090240000
   24      H       3.4013680000     2.3121690000    -0.6814790000
   25      H       1.0250930000     3.0687920000    -0.6281780000
   26      H      -3.7150720000     2.1956290000    -0.1911160000
   27      H      -5.6098680000     0.5824920000     0.0324750000
   28      H      -5.1081310000    -1.8662720000     0.2842910000
   29      H      -2.7315190000    -2.6346290000     0.3012430000
 ----------------------------------------------------------------

   19    -932.8224167616      8.27e-09  Convergence criterion met
 Total energy in the final basis set =     -933.0900428639

                    Orbital Energies (a.u.)
 --------------------------------------------------------------

 Alpha MOs
 -- Occupied --
-19.1305 -19.1271 -19.0438 -19.0263 -14.5118 -10.2137 -10.2022 -10.1954
-10.1903 -10.1774 -10.1763 -10.1760 -10.1745 -10.1729 -10.1716 -10.1699
-10.1619 -10.1611 -10.1610 -10.1606  -1.1889  -1.0162  -0.9631  -0.9500
 -0.8647  -0.8488  -0.7924  -0.7790  -0.7509  -0.7465  -0.7051  -0.6781
 -0.6449  -0.6243  -0.6080  -0.5729  -0.5487  -0.5370  -0.5164  -0.5012
 -0.4914  -0.4900  -0.4598  -0.4560  -0.4457  -0.4386  -0.4247  -0.4228
 -0.4119  -0.3992  -0.3906  -0.3844  -0.3809  -0.3694  -0.3596  -0.3545
 -0.3423  -0.3407  -0.3258  -0.3186  -0.2895  -0.2877  -0.2811  -0.2531
 -0.2424  -0.2402  -0.2360  -0.2176  -0.2035  -0.1221

          Ground-State Mulliken Net Atomic Charges

     Atom                 Charge (a.u.)
  ----------------------------------------
      1 C                     1.854900
      2 C                     1.032886
      3 C                     0.692726
      4 C                    -0.041700
      5 C                    -1.985021
      6 C                    -2.871757
      7 O                    -0.270283
      8 C                    -0.928525
      9 C                     0.228266
     10 C                     1.752738
     11 C                     1.740141
     12 C                    -0.387339
     13 C                    -1.437363
     14 C                    -2.483646
     15 O                    -0.345537
     16 C                    -1.159836
     17 C                     0.376781
     18 N                    -0.193097
     19 O                     0.097492
     20 O                    -0.030641
     21 H                     0.238029
     22 H                     0.213094
     23 H                     0.330798
     24 H                     0.314140
     25 H                     0.200180
     26 H                     0.149696
     27 H                     0.422721
     28 H                     0.391227
     29 H                     0.098932
  ----------------------------------------
  Sum of atomic charges =    -2.000000

                    Cartesian Multipole Moments
 -----------------------------------------------------------------
    Charge (ESU x 10^10)
                -9.6064
    Dipole Moment (Debye)
         X       2.9846      Y       3.9901      Z      -1.3810
       Tot       5.1706
    Quadrupole Moments (Debye-Ang)
        XX    -165.0136     XY      22.2580     YY    -183.5719
        XZ      -4.7581     YZ       9.6625     ZZ    -133.5715

 Total job time:  934.71s(wall), 7148.89s(cpu)
        *  Thank you very much for using Q-Chem.  Have a nice day.  *
