 Gaussian 16, Revision A.03,
 Gaussian 16:  ES64L-G16RevA.03 25-Dec-2016

 ----------------------------------------------------------------------
 #P UB3LYP/6-311++G(d,p) nosym opt freq SCRF=(PCM,Solvent=n,n-DiMethylF
 ormamide)
 ----------------------------------------------------------------------

 --------
 Oxidized
 --------
 Symbolic Z-matrix:
 Charge =  0 Multiplicity = 1

 SCF Done:  E(UB3LYP) =  -610.479490817     A.U. after   14 cycles
 SCF Done:  E(UB3LYP) =  -610.479585562     A.U. after   11 cycles
 SCF Done:  E(UB3LYP) =  -610.479554881     A.U. after   12 cycles
 SCF Done:  E(UB3LYP) =  -610.479591832     A.U. after   11 cycles
 SCF Done:  E(UB3LYP) =  -610.479604998     A.U. after   11 cycles
 Optimization completed.
    -- Stationary point found.
 Normal termination of Gaussian 16 at Sun Feb 11 15:03:19 2024.

 ----------------------------------------------------------------------
 #P Geom=AllCheck Guess=TCheck SCRF=Check GenChk UB3LYP/6-311++G(d,p) F
 req
 ----------------------------------------------------------------------

 Structure from the checkpoint file:  "316.chk"
 --------
 Oxidized
 --------
 Charge =  0 Multiplicity = 1

                          Input orientation:
 ---------------------------------------------------------------------
 Center     Atomic      Atomic             Coordinates (Angstroms)
 Number     Number       Type             X           Y           Z
 ---------------------------------------------------------------------
      1          8           0       -1.338050   -2.381546    1.196048
      2          6           0       -1.200495   -1.326786    0.602314
      3          6           0       -2.398652   -0.626694    0.023483
      4          8           0       -2.240713   -0.191194   -1.333349
      5          6           0       -2.301023    0.812182   -0.311037
      6          6           0       -1.006316    1.535442   -0.063408
      7          8           0       -0.989893    2.751728    0.002356
      8          6           0        0.215388    0.697818    0.083704
      9          6           0        1.472845    1.292198   -0.051773
     10          6           0        2.627062    0.532387    0.107897
     11          6           0        2.534936   -0.825695    0.423003
     12          6           0        1.288602   -1.423594    0.578570
     13          6           0        0.122337   -0.674231    0.402233
     14          1           0       -3.363617   -1.056262    0.271444
     15          1           0       -3.195000    1.426896   -0.305820
     16          1           0        1.532621    2.348004   -0.284616
     17          1           0        3.599040    0.996439   -0.009362
     18          1           0        3.435434   -1.414579    0.550008
     19          1           0        1.205496   -2.472512    0.834298
 ---------------------------------------------------------------------

 SCF Done:  E(UB3LYP) =  -610.479604998     A.U. after    1 cycles

 Alpha  occ. eigenvalues --  -19.18328 -19.14676 -19.14674 -10.29460 -10.29458
 Alpha  occ. eigenvalues --  -10.26465 -10.26434 -10.21859 -10.21811 -10.20514
 Alpha  occ. eigenvalues --  -10.20511 -10.20431 -10.20381  -1.12557  -1.07799
 Alpha  occ. eigenvalues --   -1.07658  -0.89528  -0.80966  -0.78726  -0.74065
 Alpha  occ. eigenvalues --   -0.72805  -0.66016  -0.65493  -0.60299  -0.55907
 Alpha  occ. eigenvalues --   -0.55396  -0.53809  -0.50449  -0.48746  -0.47544
 Alpha  occ. eigenvalues --   -0.46118  -0.45786  -0.45766  -0.44787  -0.44585
 Alpha  occ. eigenvalues --   -0.41135  -0.38999  -0.38701  -0.37943  -0.35622
 Alpha  occ. eigenvalues --   -0.33371  -0.29330  -0.29031  -0.28422  -0.28342
 Alpha virt. eigenvalues --   -0.11040  -0.07503  -0.01087  -0.01050  -0.00428
 Alpha virt. eigenvalues --    0.00650   0.01158   0.02340   0.02768   0.03580
 Alpha virt. eigenvalues --    0.04669   0.05275   0.05651   0.06197   0.06510

  Beta  occ. eigenvalues --  -19.18328 -19.14676 -19.14674 -10.29460 -10.29458
  Beta  occ. eigenvalues --  -10.26465 -10.26434 -10.21859 -10.21811 -10.20514
  Beta  occ. eigenvalues --  -10.20511 -10.20431 -10.20381  -1.12557  -1.07799
  Beta  occ. eigenvalues --   -1.07658  -0.89528  -0.80966  -0.78726  -0.74065
  Beta  occ. eigenvalues --   -0.72805  -0.66016  -0.65493  -0.60299  -0.55907
  Beta  occ. eigenvalues --   -0.55396  -0.53809  -0.50449  -0.48746  -0.47544
  Beta  occ. eigenvalues --   -0.46118  -0.45786  -0.45766  -0.44787  -0.44585
  Beta  occ. eigenvalues --   -0.41135  -0.38999  -0.38701  -0.37943  -0.35622
  Beta  occ. eigenvalues --   -0.33371  -0.29330  -0.29031  -0.28422  -0.28342
  Beta virt. eigenvalues --   -0.11040  -0.07503  -0.01087  -0.01050  -0.00428
  Beta virt. eigenvalues --    0.00650   0.01158   0.02340   0.02768   0.03580
  Beta virt. eigenvalues --    0.04669   0.05275   0.05651   0.06197   0.06510

 Mulliken charges and spin densities:
               1          2
     1  O   -0.286038  -0.000000
     2  C   -0.071720  -0.000000
     3  C   -0.165036   0.000000
     4  O   -0.098845   0.000000
     5  C   -0.163642  -0.000000
     6  C   -0.070674   0.000000
     7  O   -0.285847  -0.000000
     8  C   -0.071723   0.000000
     9  C    0.220883  -0.000000
    10  C   -0.263353  -0.000000
    11  C   -0.261979  -0.000000
    12  C    0.219946  -0.000000
    13  C   -0.073241   0.000000
    14  H    0.273949   0.000000
    15  H    0.273925   0.000000
    16  H    0.199938   0.000000
    17  H    0.211802  -0.000000
    18  H    0.211781   0.000000
    19  H    0.199873   0.000000
 Sum of Mulliken charges =  -0.00000   0.00000

 Dipole moment (field-independent basis, Debye):
    X=              2.5401    Y=             -0.0968    Z=              0.3204  Tot=              2.5621
 Quadrupole moment (field-independent basis, Debye-Ang):
   XX=            -56.7595   YY=            -87.3778   ZZ=            -80.0456
   XY=             -2.4352   XZ=             -0.9917   YZ=              1.9090

  Exact polarizability: 198.845   0.755 196.550   2.276 -24.482  97.615
 Approx polarizability: 221.007   2.245 248.173  -0.407 -31.305 120.719

                      1                      2                      3
                      A                      A                      A
 Frequencies --     65.9521               114.7900               160.4791
 Red. masses --      9.3043                 4.7615                 7.0539
 Frc consts  --      0.0238                 0.0370                 0.1070
 IR Inten    --     16.8603                 0.7335                 0.9409

                      4                      5                      6
                      A                      A                      A
 Frequencies --    193.8358               264.2370               291.8358
 Red. masses --      5.8959                 6.2450                 7.3533
 Frc consts  --      0.1305                 0.2569                 0.3690
 IR Inten    --      4.7388                 1.8634                16.0014

                      7                      8                      9
                      A                      A                      A
 Frequencies --    372.2804               427.2577               440.4775
 Red. masses --      9.3802                 7.8497                 3.6426
 Frc consts  --      0.7660                 0.8443                 0.4164
 IR Inten    --     22.7363                 2.7381                 2.4383

                     10                     11                     12
                      A                      A                      A
 Frequencies --    461.0710               490.6058               533.6709
 Red. masses --      4.4003                12.2503                 6.0162
 Frc consts  --      0.5511                 1.7372                 1.0095
 IR Inten    --      0.6924                16.4793                 0.9550

                     13                     14                     15
                      A                      A                      A
 Frequencies --    549.7862               649.9061               691.7209
 Red. masses --      5.6125                 5.2771                 5.3549
 Frc consts  --      0.9995                 1.3132                 1.5096
 IR Inten    --     63.6808                 3.0101                 3.6010

                     16                     17                     18
                      A                      A                      A
 Frequencies --    728.4233               733.4361               782.8008
 Red. masses --      5.4960                 2.3134                 5.6957
 Frc consts  --      1.7182                 0.7332                 2.0564
 IR Inten    --      1.0429               172.1309                 1.9306

                     19                     20                     21
                      A                      A                      A
 Frequencies --    805.2655               810.4580               867.5398
 Red. masses --      2.0760                 4.7506                 7.0829
 Frc consts  --      0.7931                 1.8385                 3.1408
 IR Inten    --      8.8200                 0.0215                 1.5051

                     22                     23                     24
                      A                      A                      A
 Frequencies --    875.2817               914.3617               997.2825
 Red. masses --      3.1819                 1.4480                 1.6633
 Frc consts  --      1.4363                 0.7133                 0.9747
 IR Inten    --     88.8311                 0.5719                43.9488

                     25                     26                     27
                      A                      A                      A
 Frequencies --   1003.0984              1024.6262              1053.6256
 Red. masses --      1.9375                 1.3415                 2.1378
 Frc consts  --      1.1486                 0.8298                 1.3983
 IR Inten    --     39.3179                 0.0501                 1.7796

                     28                     29                     30
                      A                      A                      A
 Frequencies --   1055.5022              1115.7240              1122.5177
 Red. masses --      3.4243                 1.6949                 2.0537
 Frc consts  --      2.2477                 1.2431                 1.5247
 IR Inten    --      5.0790                 0.1479                14.0615

                     31                     32                     33
                      A                      A                      A
 Frequencies --   1147.5865              1184.5580              1241.8880
 Red. masses --      1.4515                 1.1163                 1.4761
 Frc consts  --      1.1263                 0.9229                 1.3414
 IR Inten    --      7.4181                 0.9352                21.7499

                     34                     35                     36
                      A                      A                      A
 Frequencies --   1251.1338              1302.9779              1306.8556
 Red. masses --      1.9647                 3.8840                 1.6950
 Frc consts  --      1.8120                 3.8851                 1.7056
 IR Inten    --      0.4243               439.5131                12.2062

                     37                     38                     39
                      A                      A                      A
 Frequencies --   1346.8325              1353.9960              1406.6602
 Red. masses --      1.8027                 6.9257                 3.9450
 Frc consts  --      1.9267                 7.4808                 4.5991
 IR Inten    --     17.4632                17.8306                23.7972

                     40                     41                     42
                      A                      A                      A
 Frequencies --   1481.1266              1502.7850              1606.5468
 Red. masses --      2.3453                 2.6019                 6.2924
 Frc consts  --      3.0313                 3.4621                 9.5687
 IR Inten    --      6.1132                 3.4587                 0.5782

                     43                     44                     45
                      A                      A                      A
 Frequencies --   1622.6457              1728.4526              1731.5516
 Red. masses --      5.7004                11.4632                12.0886
 Frc consts  --      8.8430                20.1777                21.3549
 IR Inten    --    187.9034               902.4044               167.7658

                     46                     47                     48
                      A                      A                      A
 Frequencies --   3163.1317              3170.5173              3181.7012
 Red. masses --      1.0893                 1.0938                 1.0874
 Frc consts  --      6.4212                 6.4779                 6.4860
 IR Inten    --      4.9075                16.7250                 1.7044

                     49                     50                     51
                      A                      A                      A
 Frequencies --   3192.4060              3201.4249              3205.4951
 Red. masses --      1.0904                 1.0931                 1.0969
 Frc consts  --      6.5472                 6.6006                 6.6406
 IR Inten    --      4.7930                 3.4730                14.6817

 - Thermochemistry -
 -------------------
 Temperature   298.150 Kelvin.  Pressure   1.00000 Atm.
 Atom     1 has atomic number  8 and mass  15.99491

 Molecular mass:   174.03169 amu.
 Principal axes and moments of inertia in atomic units:
                           1         2         3
     Eigenvalues --  1488.222102047.390443255.93725
           X            0.99148   0.06598  -0.11235
           Y           -0.03837   0.97191   0.23219
           Z            0.12451  -0.22590   0.96616
 This molecule is an asymmetric top.
 Rotational symmetry number  1.
 Warning -- assumption of classical behavior for rotation
           may cause significant error
 Rotational temperatures (Kelvin)      0.05820     0.04230     0.02660
 Rotational constants (GHZ):           1.21268     0.88148     0.55429
 Zero-point vibrational energy     358449.8 (Joules/Mol)
                                   85.67155 (Kcal/Mol)
 Warning -- explicit consideration of  13 degrees of freedom as
           vibrations may cause significant error
 Vibrational temperatures:     94.89   165.16   230.89   278.89   380.18
          (Kelvin)            419.89   535.63   614.73   633.75   663.38
                              705.87   767.83   791.02   935.07   995.23
                             1048.04  1055.25  1126.28  1158.60  1166.07
                             1248.20  1259.34  1315.56  1434.87  1443.23
                             1474.21  1515.93  1518.63  1605.28  1615.05
                             1651.12  1704.31  1786.80  1800.10  1874.69
                             1880.27  1937.79  1948.10  2023.87  2131.01
                             2162.17  2311.46  2334.63  2486.86  2491.32
                             4551.04  4561.67  4577.76  4593.16  4606.14
                             4611.99

 Zero-point correction=                           0.136526 (Hartree/Particle)
 Thermal correction to Energy=                    0.145936
 Thermal correction to Enthalpy=                  0.146880
 Thermal correction to Gibbs Free Energy=         0.101350
 Sum of electronic and zero-point Energies=           -610.343079
 Sum of electronic and thermal Energies=              -610.333669
 Sum of electronic and thermal Enthalpies=            -610.332725
 Sum of electronic and thermal Free Energies=         -610.378255

                     E (Thermal)             CV                S
                      KCal/Mol        Cal/Mol-Kelvin    Cal/Mol-Kelvin
 Total                   91.576             37.163             95.826
 Electronic               0.000              0.000              0.000
 Translational            0.889              2.981             41.370
 Rotational               0.889              2.981             30.674
 Vibrational             89.798             31.202             23.783
 Vibration     1          0.597              1.971              4.271
 Vibration     2          0.608              1.937              3.186
 Vibration     3          0.622              1.891              2.544
 Vibration     4          0.635              1.848              2.191
 Vibration     5          0.671              1.739              1.634
 Vibration     6          0.687              1.689              1.463
 Vibration     7          0.744              1.529              1.070
 Vibration     8          0.789              1.411              0.868
 Vibration     9          0.800              1.382              0.825
 Vibration    10          0.819              1.336              0.763
 Vibration    11          0.846              1.271              0.682
 Vibration    12          0.889              1.176              0.579
 Vibration    13          0.905              1.140              0.545

                           ! Non-Optimized Parameters !
 Normal termination of Gaussian 16 at Sun Feb 11 15:13:02 2024.
