 Q-Chem 5.4, Q-Chem, Inc., Pleasanton, CA (2021)
 Q-Chem 5.4.0 for Intel X86 EM64T Linux

User input:
--------------------------------------------------------------
$molecule
-2 1
O                 -4.3546210000      1.0094620000     -1.6106680000
C                 -3.1844130000      0.5749030000     -0.9720220000
C                 -1.9358330000      0.9871800000     -1.3955470000
C                 -0.7575160000      0.5424440000     -0.7432330000
C                  0.5370030000      1.0057730000     -1.2274300000
O                  0.6396830000      1.8007530000     -2.2223460000
C                  1.6876840000      0.5034640000     -0.5045290000
C                  2.9873700000      0.8946080000     -0.8969940000
C                  4.1272130000      0.4534790000     -0.2519600000
C                  3.9966990000     -0.4348970000      0.8585640000
C                  2.7548420000     -0.8446750000      1.2789950000
C                  1.5538160000     -0.4044160000      0.6303330000
C                  0.2902760000     -0.8149300000      1.0501120000
O                  0.1699820000     -1.6775930000      2.1291160000
C                 -0.8692660000     -0.3518530000      0.3762140000
C                 -2.1848330000     -0.7736570000      0.8065670000
O                 -2.3959450000     -1.5901370000      1.8202740000
C                 -3.3110360000     -0.2964250000      0.1173470000
O                 -4.5350540000     -0.7446910000      0.5883110000
H                 -4.0566120000      1.5896570000     -2.3182560000
H                 -1.8150110000      1.6628190000     -2.2386270000
H                  3.0475280000      1.5706230000     -1.7450670000
H                  5.1122760000      0.7760960000     -0.5823830000
H                  4.8873190000     -0.7898220000      1.3755190000
H                  2.6527190000     -1.5196220000      2.1224940000
H                 -0.8142200000     -1.8152130000      2.2259510000
H                 -4.2300490000     -1.3133300000      1.3292630000
$end
$rem
MAX_SCF_CYCLES=200
BASIS  =  6-311++G(d,p)
GUI  =  2
JOB_TYPE  =  SP
METHOD  =  B3LYP
SOLVENT_METHOD = COSMO
$end
$solvent
dielectric 37.219
opticaldielectric 1.43
$end

--------------------------------------------------------------

             Standard Nuclear Orientation (Angstroms)
    I     Atom           X                Y                Z
 ----------------------------------------------------------------
    1      O       4.0722698643    -1.7919462898     0.0001224207
    2      C       2.8791474420    -1.0553623703    -0.0000045498
    3      C       1.6464652243    -1.6788944889    -0.0001232226
    4      C       0.4447343219    -0.9255171233    -0.0001250087
    5      C      -0.8316582995    -1.6295922714    -0.0001387568
    6      O      -0.8979728848    -2.9055219738    -0.0001571960
    7      C      -2.0083418177    -0.7843805552    -0.0000774122
    8      C      -3.2932535751    -1.3719244730     0.0000779727
    9      C      -4.4562618433    -0.6253874915     0.0002319926
   10      C      -4.3663434801     0.7998928542     0.0002184818
   11      C      -3.1402616810     1.4192573973     0.0000501803
   12      C      -1.9159592254     0.6721715212    -0.0000945256
   13      C      -0.6681796491     1.2921034546    -0.0002010453
   14      O      -0.5873287671     2.6764339285    -0.0001374404
   15      C       0.5155693163     0.5098919389    -0.0001385176
   16      C       1.8149661543     1.1466074905    -0.0000197348
   17      O       1.9889881535     2.4537134880     0.0000426336
   18      C       2.9659478515     0.3426492085     0.0000123641
   19      O       4.1723421153     1.0249851956     0.0002160112
   20      H       3.8001819445    -2.7150302356     0.0008792107
   21      H       1.5564723564    -2.7623016959    -0.0002127243
   22      H      -3.3224238594    -2.4577385328     0.0001011452
   23      H      -5.4289239421    -1.1127668344     0.0003715610
   24      H      -5.2755372682     1.3997135346     0.0003566919
   25      H      -3.0689742059     2.5020275570     0.0000423440
   26      H       0.3930066756     2.8659390140    -0.0004550168
   27      H       3.8403860156     1.9497518562     0.0002160479
 ----------------------------------------------------------------

   11    -914.7149236233      9.85e-06  Convergence criterion met
 Total energy in the final basis set =     -914.7149236233
    6    -914.9798828449      2.83e-06  Convergence criterion met
 Total energy in the final basis set =     -914.9798828449

                    Orbital Energies (a.u.)
 --------------------------------------------------------------

 Alpha MOs
 -- Occupied --
-19.1424 -19.1300 -19.1087 -19.0635 -19.0391 -10.2157 -10.2020 -10.1954
-10.1943 -10.1921 -10.1569 -10.1551 -10.1550 -10.1541 -10.1535 -10.1516
-10.1486 -10.1453 -10.1394  -1.0505  -1.0352  -1.0191  -0.9607  -0.9595
 -0.8390  -0.8190  -0.7663  -0.7353  -0.7138  -0.7077  -0.6544  -0.6252
 -0.6017  -0.5782  -0.5554  -0.5305  -0.5114  -0.5054  -0.4898  -0.4781
 -0.4609  -0.4311  -0.4231  -0.4213  -0.4105  -0.4065  -0.3994  -0.3918
 -0.3908  -0.3730  -0.3676  -0.3636  -0.3616  -0.3524  -0.3398  -0.3366
 -0.3251  -0.3184  -0.3128  -0.2815  -0.2514  -0.2474  -0.2393  -0.2146
 -0.2083  -0.1852  -0.1260

          Ground-State Mulliken Net Atomic Charges

     Atom                 Charge (a.u.)
  ----------------------------------------
      1 O                    -0.366577
      2 C                    -0.370187
      3 C                    -0.018990
      4 C                     0.819356
      5 C                    -0.478523
      6 O                    -0.647718
      7 C                    -0.102403
      8 C                    -0.032969
      9 C                    -0.542646
     10 C                    -0.465041
     11 C                    -0.163424
     12 C                     0.127235
     13 C                     0.038365
     14 O                    -0.513807
     15 C                     0.741017
     16 C                    -0.517506
     17 O                    -0.700535
     18 C                    -0.289061
     19 O                    -0.394846
     20 H                     0.322086
     21 H                     0.145083
     22 H                     0.156159
     23 H                     0.183155
     24 H                     0.184474
     25 H                     0.166418
     26 H                     0.400724
     27 H                     0.320160
  ----------------------------------------
  Sum of atomic charges =    -2.000000

                    Cartesian Multipole Moments
 -----------------------------------------------------------------
    Charge (ESU x 10^10)
                -9.6064
    Dipole Moment (Debye)
         X      -3.2022      Y       0.1384      Z       0.0010
       Tot       3.2052
    Quadrupole Moments (Debye-Ang)
        XX    -173.0060     XY     -17.1582     YY    -158.2071
        XZ      -0.0019     YZ      -0.0102     ZZ    -121.0712

 Total job time:  77.94s(wall), 568.28s(cpu)
        *  Thank you very much for using Q-Chem.  Have a nice day.  *
