 Gaussian 16, Revision A.03,
 Gaussian 16:  ES64L-G16RevA.03 25-Dec-2016

 --------------------------------------
 #P UB3LYP/6-311++G(d,p) nosym opt freq
 --------------------------------------

 -------
 Reduced
 -------
 Symbolic Z-matrix:
 Charge = -2 Multiplicity = 1

 SCF Done:  E(UB3LYP) =  -914.714913983     A.U. after   21 cycles
 SCF Done:  E(UB3LYP) =  -914.714913913     A.U. after   11 cycles
 SCF Done:  E(UB3LYP) =  -914.714914118     A.U. after   11 cycles
 SCF Done:  E(UB3LYP) =  -914.714914144     A.U. after   10 cycles
 Optimization completed.
    -- Stationary point found.
 Normal termination of Gaussian 16 at Sun Jan  7 05:18:34 2024.

 ----------------------------------------------------------------------
 #P Geom=AllCheck Guess=TCheck SCRF=Check GenChk UB3LYP/6-311++G(d,p) F
 req
 ----------------------------------------------------------------------

 Structure from the checkpoint file:  "199-an.chk"
 -------
 Reduced
 -------
 Charge = -2 Multiplicity = 1

                          Input orientation:
 ---------------------------------------------------------------------
 Center     Atomic      Atomic             Coordinates (Angstroms)
 Number     Number       Type             X           Y           Z
 ---------------------------------------------------------------------
      1          8           0       -4.354621    1.009462   -1.610668
      2          6           0       -3.184413    0.574903   -0.972022
      3          6           0       -1.935833    0.987180   -1.395547
      4          6           0       -0.757516    0.542444   -0.743233
      5          6           0        0.537003    1.005773   -1.227430
      6          8           0        0.639683    1.800753   -2.222346
      7          6           0        1.687684    0.503464   -0.504529
      8          6           0        2.987370    0.894608   -0.896994
      9          6           0        4.127213    0.453479   -0.251960
     10          6           0        3.996699   -0.434897    0.858564
     11          6           0        2.754842   -0.844675    1.278995
     12          6           0        1.553816   -0.404416    0.630333
     13          6           0        0.290276   -0.814930    1.050112
     14          8           0        0.169982   -1.677593    2.129116
     15          6           0       -0.869266   -0.351853    0.376214
     16          6           0       -2.184833   -0.773657    0.806567
     17          8           0       -2.395945   -1.590137    1.820274
     18          6           0       -3.311036   -0.296425    0.117347
     19          8           0       -4.535054   -0.744691    0.588311
     20          1           0       -4.056612    1.589657   -2.318256
     21          1           0       -1.815011    1.662819   -2.238627
     22          1           0        3.047528    1.570623   -1.745067
     23          1           0        5.112276    0.776096   -0.582383
     24          1           0        4.887319   -0.789822    1.375519
     25          1           0        2.652719   -1.519622    2.122494
     26          1           0       -0.814220   -1.815213    2.225951
     27          1           0       -4.230049   -1.313330    1.329263
 ---------------------------------------------------------------------

 SCF Done:  E(UB3LYP) =  -914.714914144     A.U. after    1 cycles

 Alpha  occ. eigenvalues --  -18.92391 -18.89395 -18.86396 -18.82038 -18.79058
 Alpha  occ. eigenvalues --   -9.98148  -9.96143  -9.95756  -9.95195  -9.95051
 Alpha  occ. eigenvalues --   -9.93729  -9.92997  -9.92899  -9.92668  -9.91656
 Alpha  occ. eigenvalues --   -9.91415  -9.90831  -9.90752  -9.90501  -0.82707
 Alpha  occ. eigenvalues --   -0.80220  -0.77418  -0.71667  -0.70964  -0.60556
 Alpha  occ. eigenvalues --   -0.58234  -0.53223  -0.50484  -0.48012  -0.46884
 Alpha  occ. eigenvalues --   -0.41875  -0.39425  -0.36747  -0.34879  -0.32040
 Alpha  occ. eigenvalues --   -0.29973  -0.27907  -0.27260  -0.25373  -0.24936
 Alpha  occ. eigenvalues --   -0.22507  -0.19987  -0.18993  -0.18433  -0.18099
 Alpha  occ. eigenvalues --   -0.17841  -0.16024  -0.15281  -0.15088  -0.13733
 Alpha  occ. eigenvalues --   -0.13357  -0.12870  -0.12355  -0.11035  -0.10557
 Alpha  occ. eigenvalues --   -0.09908  -0.09222  -0.07652  -0.07635  -0.03904
 Alpha  occ. eigenvalues --   -0.01597  -0.00482  -0.00329   0.02804   0.03539
 Alpha  occ. eigenvalues --    0.05829   0.11550
 Alpha virt. eigenvalues --    0.15760   0.16934   0.17449   0.19479   0.19916
 Alpha virt. eigenvalues --    0.20311   0.20887   0.22217   0.23479   0.23945
 Alpha virt. eigenvalues --    0.24899   0.25486   0.25681   0.26480   0.26995

  Beta  occ. eigenvalues --  -18.92391 -18.89395 -18.86396 -18.82038 -18.79058
  Beta  occ. eigenvalues --   -9.98148  -9.96143  -9.95756  -9.95195  -9.95051
  Beta  occ. eigenvalues --   -9.93729  -9.92997  -9.92899  -9.92668  -9.91656
  Beta  occ. eigenvalues --   -9.91415  -9.90831  -9.90752  -9.90501  -0.82707
  Beta  occ. eigenvalues --   -0.80220  -0.77418  -0.71667  -0.70964  -0.60556
  Beta  occ. eigenvalues --   -0.58234  -0.53223  -0.50484  -0.48012  -0.46884
  Beta  occ. eigenvalues --   -0.41875  -0.39425  -0.36747  -0.34879  -0.32040
  Beta  occ. eigenvalues --   -0.29973  -0.27907  -0.27260  -0.25373  -0.24936
  Beta  occ. eigenvalues --   -0.22507  -0.19987  -0.18993  -0.18433  -0.18099
  Beta  occ. eigenvalues --   -0.17841  -0.16024  -0.15281  -0.15088  -0.13733
  Beta  occ. eigenvalues --   -0.13357  -0.12870  -0.12355  -0.11035  -0.10557
  Beta  occ. eigenvalues --   -0.09908  -0.09222  -0.07652  -0.07635  -0.03904
  Beta  occ. eigenvalues --   -0.01597  -0.00482  -0.00329   0.02804   0.03539
  Beta  occ. eigenvalues --    0.05829   0.11550
  Beta virt. eigenvalues --    0.15760   0.16934   0.17449   0.19479   0.19916
  Beta virt. eigenvalues --    0.20311   0.20887   0.22217   0.23479   0.23945
  Beta virt. eigenvalues --    0.24899   0.25486   0.25681   0.26480   0.26995

 Mulliken charges and spin densities:
               1          2
     1  O   -0.310144   0.000000
     2  C   -0.249722  -0.000000
     3  C   -0.130226  -0.000000
     4  C    0.977214  -0.000000
     5  C   -0.861727   0.000000
     6  O   -0.482921  -0.000000
     7  C    0.033193  -0.000000
     8  C   -0.032238   0.000000
     9  C   -0.485962   0.000000
    10  C   -0.435675   0.000000
    11  C   -0.150542   0.000000
    12  C    0.284743   0.000000
    13  C   -0.000632   0.000000
    14  O   -0.459377   0.000000
    15  C    0.809220   0.000000
    16  C   -0.777132  -0.000000
    17  O   -0.601496   0.000000
    18  C   -0.128655   0.000000
    19  O   -0.350728   0.000000
    20  H    0.236796   0.000000
    21  H    0.088667  -0.000000
    22  H    0.124648  -0.000000
    23  H    0.074728   0.000000
    24  H    0.074019  -0.000000
    25  H    0.114704   0.000000
    26  H    0.378061  -0.000000
    27  H    0.261183  -0.000000
 Sum of Mulliken charges =  -2.00000   0.00000

 Dipole moment (field-independent basis, Debye):
    X=              3.7591    Y=              0.2127    Z=              0.0248  Tot=              3.7652
 Quadrupole moment (field-independent basis, Debye-Ang):
   XX=           -199.9223   YY=           -136.6826   ZZ=           -144.0993
   XY=             -9.7465   XZ=              6.2329   YZ=             18.1030

  Exact polarizability: 383.210   4.148 167.565  15.364 -62.605 197.818
 Approx polarizability: 622.530   7.546 290.963  24.878-140.873 358.451

                      1                      2                      3
                      A                      A                      A
 Frequencies --     53.0168                80.6359               128.5816
 Red. masses --      7.4053                 7.0856                 5.6041
 Frc consts  --      0.0123                 0.0271                 0.0546
 IR Inten    --      2.3836                 1.4608                 1.5974

                      4                      5                      6
                      A                      A                      A
 Frequencies --    140.4480               159.7787               171.1792
 Red. masses --      4.1662                 2.8927                 2.4205
 Frc consts  --      0.0484                 0.0435                 0.0418
 IR Inten    --      2.5690                12.0921                38.8498

                      7                      8                      9
                      A                      A                      A
 Frequencies --    189.0987               205.3100               280.2659
 Red. masses --      6.2086                 3.8689                 6.4519
 Frc consts  --      0.1308                 0.0961                 0.2986
 IR Inten    --      5.7991                15.1686                13.2147

                     10                     11                     12
                      A                      A                      A
 Frequencies --    288.4012               290.0419               331.1009
 Red. masses --      6.0971                 6.4619                 9.0799
 Frc consts  --      0.2988                 0.3203                 0.5865
 IR Inten    --      3.8348                 1.0550                14.8647

                     13                     14                     15
                      A                      A                      A
 Frequencies --    344.1593               356.3208               371.8043
 Red. masses --      6.0639                 8.4423                 7.9472
 Frc consts  --      0.4232                 0.6315                 0.6473
 IR Inten    --      0.8719                 7.7654                 3.0945

                     16                     17                     18
                      A                      A                      A
 Frequencies --    395.7905               399.0276               449.1163
 Red. masses --      7.4520                 8.1600                 3.2173
 Frc consts  --      0.6878                 0.7655                 0.3824
 IR Inten    --      0.0433                29.1564                 6.9751

                     19                     20                     21
                      A                      A                      A
 Frequencies --    486.8998               520.9669               526.8415
 Red. masses --     12.0813                 7.3525                 5.5236
 Frc consts  --      1.6875                 1.1757                 0.9033
 IR Inten    --      2.2757                 4.9015                 3.2014

                     22                     23                     24
                      A                      A                      A
 Frequencies --    539.1733               552.0889               607.7701
 Red. masses --     11.7321                 3.9496                 7.6121
 Frc consts  --      2.0095                 0.7093                 1.6567
 IR Inten    --      8.9876                 0.1403                 3.8064

                     25                     26                     27
                      A                      A                      A
 Frequencies --    614.3040               651.8179               658.7664
 Red. masses --      5.0170                 6.8156                 1.4949
 Frc consts  --      1.1155                 1.7061                 0.3822
 IR Inten    --      2.8708                20.1365                28.5956

                     28                     29                     30
                      A                      A                      A
 Frequencies --    685.2601               689.0799               697.8648
 Red. masses --      1.4468                 4.7283                 3.9900
 Frc consts  --      0.4003                 1.3228                 1.1449
 IR Inten    --    156.2569                 9.5891                 0.7458

                     31                     32                     33
                      A                      A                      A
 Frequencies --    719.7155               731.2674               755.2743
 Red. masses --      2.2613                 7.5718                 1.6897
 Frc consts  --      0.6901                 2.3856                 0.5679
 IR Inten    --      1.6409                 9.9638                 0.0015

                     34                     35                     36
                      A                      A                      A
 Frequencies --    780.1372               799.6973               805.4209
 Red. masses --      1.7863                 7.7212                 4.3991
 Frc consts  --      0.6405                 2.9093                 1.6813
 IR Inten    --     24.4090                88.1500                 0.0296

                     37                     38                     39
                      A                      A                      A
 Frequencies --    855.6855               883.2377               928.7001
 Red. masses --      1.0556                 6.8876                 1.2470
 Frc consts  --      0.4554                 3.1657                 0.6337
 IR Inten    --     60.1602                 6.6568                 0.6059

                     40                     41                     42
                      A                      A                      A
 Frequencies --    954.7468               985.8498              1011.0698
 Red. masses --      1.3163                 5.7086                 2.1685
 Frc consts  --      0.7069                 3.2689                 1.3061
 IR Inten    --      1.7362                73.8960               114.0761

                     43                     44                     45
                      A                      A                      A
 Frequencies --   1053.0555              1066.9833              1113.2918
 Red. masses --      7.1667                 5.2470                 2.0613
 Frc consts  --      4.6824                 3.5195                 1.5052
 IR Inten    --    197.0509                49.7279                26.7090

                     46                     47                     48
                      A                      A                      A
 Frequencies --   1127.4269              1140.4383              1176.4632
 Red. masses --      2.7663                 1.3888                 1.4907
 Frc consts  --      2.0717                 1.0642                 1.2156
 IR Inten    --    115.4525                37.1898                20.3052

                     49                     50                     51
                      A                      A                      A
 Frequencies --   1201.4771              1257.3516              1263.1048
 Red. masses --      2.0578                 2.0741                 2.2903
 Frc consts  --      1.7502                 1.9319                 2.1529
 IR Inten    --     28.7788               376.1909               108.3677

                     52                     53                     54
                      A                      A                      A
 Frequencies --   1276.4708              1329.0386              1350.4666
 Red. masses --      2.9075                 5.4876                 3.8075
 Frc consts  --      2.7912                 5.7109                 4.0912
 IR Inten    --    117.0962               122.7034               111.1765

                     55                     56                     57
                      A                      A                      A
 Frequencies --   1366.0270              1385.8801              1412.4125
 Red. masses --      4.8176                 5.4563                 2.7547
 Frc consts  --      5.2966                 6.1745                 3.2378
 IR Inten    --    104.1229               123.9253               269.0085

                     58                     59                     60
                      A                      A                      A
 Frequencies --   1433.0265              1449.6258              1488.3689
 Red. masses --      2.6462                 3.0238                 2.9453
 Frc consts  --      3.2017                 3.7438                 3.8442
 IR Inten    --    578.0692               432.3851               235.7629

                     61                     62                     63
                      A                      A                      A
 Frequencies --   1495.2277              1497.0265              1543.6160
 Red. masses --      3.8823                 4.3953                 4.8528
 Frc consts  --      5.1139                 5.8036                 6.8127
 IR Inten    --    109.1532               211.9214                 2.8157

                     64                     65                     66
                      A                      A                      A
 Frequencies --   1596.5456              1605.2787              1615.2277
 Red. masses --      5.1805                 5.6789                 3.6504
 Frc consts  --      7.7801                 8.6222                 5.6112
 IR Inten    --     65.2337                16.7627                48.0489

                     67                     68                     69
                      A                      A                      A
 Frequencies --   1638.7158              3091.7536              3113.0551
 Red. masses --      2.5214                 1.0830                 1.0729
 Frc consts  --      3.9894                 6.0994                 6.1260
 IR Inten    --     10.9031                48.1928               629.7981

                     70                     71                     72
                      A                      A                      A
 Frequencies --   3118.1009              3137.1296              3153.9527
 Red. masses --      1.0884                 1.0882                 1.0909
 Frc consts  --      6.2348                 6.3097                 6.3938
 IR Inten    --     18.1066                57.4651                38.0334

                     73                     74                     75
                      A                      A                      A
 Frequencies --   3163.0155              3484.5180              3828.5115
 Red. masses --      1.0912                 1.0636                 1.0654
 Frc consts  --      6.4322                 7.6090                 9.2005
 IR Inten    --     48.7319                59.2921                11.8939

 - Thermochemistry -
 -------------------
 Temperature   298.150 Kelvin.  Pressure   1.00000 Atm.
 Atom     1 has atomic number  8 and mass  15.99491

 Molecular mass:   256.03717 amu.
 Principal axes and moments of inertia in atomic units:
                           1         2         3
     Eigenvalues --  2351.507896570.498908922.00674
           X            0.99858  -0.02285  -0.04808
           Y            0.02345  -0.62191   0.78274
           Z            0.04778   0.78276   0.62049
 This molecule is an asymmetric top.
 Rotational symmetry number  1.
 Warning -- assumption of classical behavior for rotation
           may cause significant error
 Rotational temperatures (Kelvin)      0.03683     0.01318     0.00971
 Rotational constants (GHZ):           0.76748     0.27467     0.20228
 Zero-point vibrational energy     490757.8 (Joules/Mol)
                                  117.29393 (Kcal/Mol)
 Warning -- explicit consideration of  25 degrees of freedom as
           vibrations may cause significant error
 Vibrational temperatures:     76.28   116.02   185.00   202.07   229.89
          (Kelvin)            246.29   272.07   295.40   403.24   414.94
                              417.31   476.38   495.17   512.67   534.94
                              569.45   574.11   646.18   700.54   749.56
                              758.01   775.75   794.33   874.45   883.85
                              937.82   947.82   985.94   991.43  1004.07
                             1035.51  1052.13  1086.67  1122.44  1150.59
                             1158.82  1231.14  1270.78  1336.19  1373.67
                             1418.42  1454.70  1515.11  1535.15  1601.78
                             1622.12  1640.84  1692.67  1728.66  1809.05
                             1817.33  1836.56  1912.19  1943.02  1965.41
                             1993.97  2032.15  2061.81  2085.69  2141.43
                             2151.30  2153.89  2220.92  2297.07  2309.64
                             2323.95  2357.75  4448.34  4478.99  4486.25
                             4513.63  4537.83  4550.87  5013.44  5508.37

 Zero-point correction=                           0.186920 (Hartree/Particle)
 Thermal correction to Energy=                    0.201769
 Thermal correction to Enthalpy=                  0.202713
 Thermal correction to Gibbs Free Energy=         0.145811
 Sum of electronic and zero-point Energies=           -914.527994
 Sum of electronic and thermal Energies=              -914.513145
 Sum of electronic and thermal Enthalpies=            -914.512201
 Sum of electronic and thermal Free Energies=         -914.569103

                     E (Thermal)             CV                S
                      KCal/Mol        Cal/Mol-Kelvin    Cal/Mol-Kelvin
 Total                  126.612             59.864            119.761
 Electronic               0.000              0.000              0.000
 Translational            0.889              2.981             42.520
 Rotational               0.889              2.981             33.288
 Vibrational            124.834             53.903             43.952
 Vibration     1          0.596              1.976              4.702
 Vibration     2          0.600              1.962              3.875
 Vibration     3          0.611              1.925              2.967
 Vibration     4          0.615              1.913              2.798
 Vibration     5          0.622              1.892              2.552
 Vibration     6          0.626              1.878              2.422
 Vibration     7          0.633              1.855              2.237
 Vibration     8          0.640              1.832              2.085
 Vibration     9          0.680              1.710              1.532
 Vibration    10          0.685              1.695              1.483
 Vibration    11          0.686              1.692              1.474
 Vibration    12          0.713              1.613              1.255
 Vibration    13          0.723              1.587              1.193
 Vibration    14          0.732              1.562              1.138
 Vibration    15          0.744              1.530              1.072
 Vibration    16          0.763              1.479              0.978
 Vibration    17          0.765              1.472              0.966
 Vibration    18          0.808              1.363              0.798
 Vibration    19          0.843              1.279              0.692
 Vibration    20          0.876              1.204              0.608
 Vibration    21          0.882              1.191              0.594
 Vibration    22          0.894              1.163              0.567
 Vibration    23          0.907              1.135              0.540
 Vibration    24          0.967              1.015              0.436
 Vibration    25          0.974              1.002              0.426

 Optimization completed.
    -- Stationary point found.
 Normal termination of Gaussian 16 at Sun Jan  7 06:23:00 2024.
