 Gaussian 16, Revision A.03,
 Gaussian 16:  ES64L-G16RevA.03 25-Dec-2016

 --------------------------------------
 #P UB3LYP/6-311++G(d,p) nosym opt freq
 --------------------------------------

 -------
 Reduced
 -------
 Symbolic Z-matrix:
 Charge = -2 Multiplicity = 1

 SCF Done:  E(UB3LYP) =  -696.078316891     A.U. after   51 cycles
 SCF Done:  E(UB3LYP) =  -696.103389463     A.U. after   40 cycles
 SCF Done:  E(UB3LYP) =  -696.077783705     A.U. after   40 cycles
 SCF Done:  E(UB3LYP) =  -696.115207979     A.U. after   35 cycles
 SCF Done:  E(UB3LYP) =  -696.119487467     A.U. after   34 cycles
 SCF Done:  E(UB3LYP) =  -696.119802674     A.U. after   36 cycles
 SCF Done:  E(UB3LYP) =  -696.121116362     A.U. after   35 cycles
 SCF Done:  E(UB3LYP) =  -696.120610186     A.U. after   34 cycles
 SCF Done:  E(UB3LYP) =  -696.121021041     A.U. after   36 cycles
 SCF Done:  E(UB3LYP) =  -696.121343136     A.U. after   29 cycles
 SCF Done:  E(UB3LYP) =  -696.122537692     A.U. after   32 cycles
 SCF Done:  E(UB3LYP) =  -696.122509450     A.U. after   31 cycles
 SCF Done:  E(UB3LYP) =  -696.122536257     A.U. after   30 cycles
 SCF Done:  E(UB3LYP) =  -696.122539297     A.U. after   32 cycles
 SCF Done:  E(UB3LYP) =  -696.122510923     A.U. after   35 cycles
 SCF Done:  E(UB3LYP) =  -696.122511402     A.U. after   38 cycles
 SCF Done:  E(UB3LYP) =  -696.122511287     A.U. after   33 cycles
 SCF Done:  E(UB3LYP) =  -696.122511396     A.U. after   56 cycles
 SCF Done:  E(UB3LYP) =  -696.122511402     A.U. after   22 cycles
 Optimization completed.
    -- Stationary point found.
 Normal termination of Gaussian 16 at Mon Dec 18 06:58:37 2023.

 ----------------------------------------------------------------------
 #P Geom=AllCheck Guess=TCheck SCRF=Check GenChk UB3LYP/6-311++G(d,p) F
 req
 ----------------------------------------------------------------------

 Structure from the checkpoint file:  "043-an.chk"
 -------
 Reduced
 -------
 Charge = -2 Multiplicity = 1

                          Input orientation:
 ---------------------------------------------------------------------
 Center     Atomic      Atomic             Coordinates (Angstroms)
 Number     Number       Type             X           Y           Z
 ---------------------------------------------------------------------
      1          6           0        0.789934    1.705875   -0.636767
      2          6           0       -0.505036    1.040804   -0.591855
      3          6           0       -0.626044   -0.274896   -0.079929
      4          6           0        0.554160   -1.031126    0.315866
      5          6           0        1.823407   -0.360945    0.242874
      6          6           0        1.937110    0.947277   -0.219817
      7          6           0        3.282681    1.629159   -0.316970
      8          6           0        3.036171   -1.136774    0.703689
      9          8           0        0.922049    2.929725   -1.054655
     10          8           0        0.476674   -2.257309    0.740448
     11          1           0        4.042639    0.983330   -0.780177
     12          1           0        3.681326    1.922085    0.669015
     13          1           0        3.165598    2.540912   -0.907933
     14          1           0        2.693638   -2.029377    1.232919
     15          1           0        3.684228   -0.541029    1.362525
     16          1           0        3.668882   -1.472034   -0.135616
     17          6           0       -1.903494   -1.079525    0.195089
     18          6           0       -3.093048   -0.358031    0.850583
     19          6           0       -2.345369   -1.973209   -0.988090
     20          6           0       -1.593702    1.931909   -1.204755
     21          6           0       -2.285169    2.865825   -0.183262
     22          6           0       -2.599184    1.291081   -2.176077
     23          1           0       -1.552686   -1.802656    0.939769
     24          1           0       -3.816580   -1.099664    1.217741
     25          1           0       -3.638293    0.314967    0.187344
     26          1           0       -2.755208    0.230999    1.709498
     27          1           0       -3.166241   -2.645309   -0.685515
     28          1           0       -1.499157   -2.592222   -1.296615
     29          1           0       -2.688054   -1.398600   -1.852437
     30          1           0       -0.997401    2.621206   -1.812888
     31          1           0       -2.937798    3.592194   -0.696660
     32          1           0       -1.517777    3.425496    0.357431
     33          1           0       -2.896990    2.325513    0.543606
     34          1           0       -3.136711    2.078961   -2.722548
     35          1           0       -3.354433    0.663736   -1.700580
     36          1           0       -2.075987    0.672573   -2.912679
 ---------------------------------------------------------------------

 SCF Done:  E(UB3LYP) =  -696.122511402     A.U. after    9 cycles

 Alpha  occ. eigenvalues --  -18.77201 -18.77199  -9.93080  -9.93079  -9.92629
 Alpha  occ. eigenvalues --   -9.92628  -9.92399  -9.92395  -9.92194  -9.92187
 Alpha  occ. eigenvalues --   -9.91598  -9.91597  -9.89360  -9.89314  -9.89096
 Alpha  occ. eigenvalues --   -9.89041  -0.68747  -0.68348  -0.56605  -0.54519
 Alpha  occ. eigenvalues --   -0.54259  -0.48439  -0.47008  -0.45597  -0.45017
 Alpha  occ. eigenvalues --   -0.40637  -0.39976  -0.34297  -0.33270  -0.27222
 Alpha  occ. eigenvalues --   -0.26466  -0.23551  -0.20861  -0.20327  -0.20065
 Alpha  occ. eigenvalues --   -0.19591  -0.18327  -0.17658  -0.17397  -0.16122
 Alpha  occ. eigenvalues --   -0.15894  -0.15314  -0.14966  -0.13797  -0.13680
 Alpha  occ. eigenvalues --   -0.13049  -0.11118  -0.10412  -0.10224  -0.10014
 Alpha  occ. eigenvalues --   -0.08982  -0.08585  -0.07289  -0.05929  -0.05500
 Alpha  occ. eigenvalues --   -0.04864   0.02775   0.04186   0.04599   0.05798
 Alpha  occ. eigenvalues --    0.13497
 Alpha virt. eigenvalues --    0.15244   0.16058   0.16939   0.17446   0.18482
 Alpha virt. eigenvalues --    0.18810   0.19233   0.19945   0.20058   0.21454
 Alpha virt. eigenvalues --    0.21646   0.21693   0.22198   0.22411   0.23224

  Beta  occ. eigenvalues --  -18.77201 -18.77199  -9.93080  -9.93079  -9.92629
  Beta  occ. eigenvalues --   -9.92628  -9.92399  -9.92395  -9.92194  -9.92187
  Beta  occ. eigenvalues --   -9.91598  -9.91597  -9.89360  -9.89314  -9.89096
  Beta  occ. eigenvalues --   -9.89041  -0.68747  -0.68348  -0.56605  -0.54519
  Beta  occ. eigenvalues --   -0.54259  -0.48439  -0.47008  -0.45597  -0.45017
  Beta  occ. eigenvalues --   -0.40637  -0.39976  -0.34297  -0.33270  -0.27222
  Beta  occ. eigenvalues --   -0.26466  -0.23551  -0.20861  -0.20327  -0.20065
  Beta  occ. eigenvalues --   -0.19591  -0.18327  -0.17658  -0.17397  -0.16122
  Beta  occ. eigenvalues --   -0.15894  -0.15314  -0.14966  -0.13797  -0.13680
  Beta  occ. eigenvalues --   -0.13049  -0.11118  -0.10412  -0.10224  -0.10014
  Beta  occ. eigenvalues --   -0.08982  -0.08585  -0.07289  -0.05929  -0.05500
  Beta  occ. eigenvalues --   -0.04864   0.02775   0.04186   0.04599   0.05798
  Beta  occ. eigenvalues --    0.13497
  Beta virt. eigenvalues --    0.15244   0.16058   0.16939   0.17446   0.18482
  Beta virt. eigenvalues --    0.18810   0.19233   0.19945   0.20058   0.21454
  Beta virt. eigenvalues --    0.21646   0.21693   0.22198   0.22411   0.23224

 Mulliken charges and spin densities:
               1          2
     1  C   -1.680024   0.000000
     2  C    2.067892  -0.000001
     3  C    2.075139  -0.000001
     4  C   -1.684259   0.000000
     5  C    0.936016   0.000000
     6  C    0.928967   0.000000
     7  C   -0.528979  -0.000000
     8  C   -0.528585   0.000000
     9  O   -0.482008   0.000000
    10  O   -0.481891  -0.000000
    11  H    0.089351  -0.000000
    12  H    0.081748  -0.000000
    13  H    0.164675   0.000000
    14  H    0.164464   0.000000
    15  H    0.089425   0.000000
    16  H    0.081794  -0.000000
    17  C   -1.385796   0.000001
    18  C   -0.254825  -0.000000
    19  C   -0.043085  -0.000000
    20  C   -1.379551   0.000000
    21  C   -0.043412   0.000000
    22  C   -0.259731  -0.000000
    23  H    0.219336  -0.000000
    24  H   -0.219434   0.000000
    25  H    0.032044  -0.000000
    26  H    0.103399   0.000000
    27  H   -0.388108   0.000000
    28  H    0.203149  -0.000000
    29  H    0.083650  -0.000000
    30  H    0.219728  -0.000000
    31  H   -0.387455   0.000000
    32  H    0.202230  -0.000000
    33  H    0.084008  -0.000000
    34  H   -0.215664  -0.000000
    35  H    0.032265   0.000000
    36  H    0.103528   0.000000
 Sum of Mulliken charges =  -2.00000   0.00000

 Dipole moment (field-independent basis, Debye):
    X=              2.7070    Y=             -3.5663    Z=              2.8404  Tot=              5.3022
 Quadrupole moment (field-independent basis, Debye-Ang):
   XX=           -173.7128   YY=           -182.3927   ZZ=           -128.5911
   XY=             -1.8962   XZ=             -6.6299   YZ=             19.2921

  Exact polarizability:1471.985 209.8052382.285  18.631-678.5411046.931
 Approx polarizability:3341.210 -20.7171500.314 373.483-313.756 664.397

                      1                      2                      3
                      A                      A                      A
 Frequencies --     49.7944                62.8726                68.8455
 Red. masses --      3.2654                 3.1780                 1.1810
 Frc consts  --      0.0048                 0.0074                 0.0033
 IR Inten    --      0.3985                 8.3496                 1.1452

                      4                      5                      6
                      A                      A                      A
 Frequencies --     96.4585                99.8918               138.2911
 Red. masses --      2.9356                 1.1366                 2.4446
 Frc consts  --      0.0161                 0.0067                 0.0275
 IR Inten    --     20.0772                 1.3366                 3.6019

                      7                      8                      9
                      A                      A                      A
 Frequencies --    144.7325               162.4769               181.0037
 Red. masses --      2.8018                 2.7418                 2.1729
 Frc consts  --      0.0346                 0.0426                 0.0419
 IR Inten    --      1.5287                 5.1205                22.2497

                     10                     11                     12
                      A                      A                      A
 Frequencies --    195.4058               211.2207               234.2641
 Red. masses --      1.3820                 1.3900                 2.0393
 Frc consts  --      0.0311                 0.0365                 0.0659
 IR Inten    --      8.2956                14.0594                 1.7149

                     13                     14                     15
                      A                      A                      A
 Frequencies --    241.0946               247.2129               255.7926
 Red. masses --      2.5555                 2.1309                 1.3091
 Frc consts  --      0.0875                 0.0767                 0.0505
 IR Inten    --      1.1507                 0.6166                 1.0279

                     16                     17                     18
                      A                      A                      A
 Frequencies --    259.6463               281.0807               287.0315
 Red. masses --      1.6864                 1.6978                 2.7343
 Frc consts  --      0.0670                 0.0790                 0.1327
 IR Inten    --      2.4440                20.2857                42.2933

                     19                     20                     21
                      A                      A                      A
 Frequencies --    324.1925               346.3266               406.0845
 Red. masses --      2.4982                 3.2989                 5.5816
 Frc consts  --      0.1547                 0.2331                 0.5423
 IR Inten    --     13.9992                 5.4291                35.3762

                     22                     23                     24
                      A                      A                      A
 Frequencies --    426.1904               430.4407               439.0876
 Red. masses --      6.9552                 2.8337                 4.5981
 Frc consts  --      0.7443                 0.3093                 0.5223
 IR Inten    --      6.2697                59.4432               752.6771

                     25                     26                     27
                      A                      A                      A
 Frequencies --    451.5552               484.7200               499.5186
 Red. masses --      4.6298                 3.6262                 3.9496
 Frc consts  --      0.5562                 0.5020                 0.5806
 IR Inten    --     50.1660               375.4169                53.9386

                     28                     29                     30
                      A                      A                      A
 Frequencies --    544.4723               589.4132               608.1626
 Red. masses --      3.1244                 3.9847                 4.5997
 Frc consts  --      0.5457                 0.8156                 1.0023
 IR Inten    --     40.6998                80.3061                 6.8830

                     31                     32                     33
                      A                      A                      A
 Frequencies --    713.7165               732.6458               771.7734
 Red. masses --      3.5079                 7.4404                 4.8336
 Frc consts  --      1.0528                 2.3531                 1.6963
 IR Inten    --      8.8761                21.9461                 6.1908

                     34                     35                     36
                      A                      A                      A
 Frequencies --    793.3738               845.0169               901.9252
 Red. masses --      6.8012                 3.0384                 2.2757
 Frc consts  --      2.5223                 1.2783                 1.0907
 IR Inten    --      7.4019                24.5726                 2.7957

                     37                     38                     39
                      A                      A                      A
 Frequencies --    903.1131               915.8210               925.8658
 Red. masses --      2.3777                 1.3186                 1.2925
 Frc consts  --      1.1426                 0.6516                 0.6528
 IR Inten    --     27.7524                14.4869                46.9018

                     40                     41                     42
                      A                      A                      A
 Frequencies --    952.0742               952.6541               982.3891
 Red. masses --      1.3728                 1.4401                 1.5299
 Frc consts  --      0.7332                 0.7700                 0.8699
 IR Inten    --      5.4946                98.0097                 5.7538

                     43                     44                     45
                      A                      A                      A
 Frequencies --    988.2828              1024.4109              1047.0561
 Red. masses --      2.4015                 1.4068                 1.5189
 Frc consts  --      1.3820                 0.8698                 0.9811
 IR Inten    --      1.5177                39.8856                29.3362

                     46                     47                     48
                      A                      A                      A
 Frequencies --   1065.3373              1086.4564              1094.5567
 Red. masses --      5.1374                 1.5716                 2.5830
 Frc consts  --      3.4353                 1.0930                 1.8233
 IR Inten    --    330.9015                77.9719                 7.2582

                     49                     50                     51
                      A                      A                      A
 Frequencies --   1119.3846              1121.1472              1135.9636
 Red. masses --      2.7053                 2.4792                 1.9593
 Frc consts  --      1.9972                 1.8361                 1.4897
 IR Inten    --    203.7264                74.2523                18.3158

                     52                     53                     54
                      A                      A                      A
 Frequencies --   1180.7088              1189.5421              1196.9029
 Red. masses --      2.2004                 2.5540                 4.4736
 Frc consts  --      1.8074                 2.1293                 3.7759
 IR Inten    --    359.2803                13.1549                19.5965

                     55                     56                     57
                      A                      A                      A
 Frequencies --   1250.5680              1314.7451              1337.6585
 Red. masses --      3.1574                 3.8341                 1.5330
 Frc consts  --      2.9093                 3.9048                 1.6161
 IR Inten    --     73.3296              2291.2344                90.6554

                     58                     59                     60
                      A                      A                      A
 Frequencies --   1358.1557              1360.3644              1364.4000
 Red. masses --      1.3312                 1.2541                 1.2935
 Frc consts  --      1.4468                 1.3674                 1.4188
 IR Inten    --     45.2914                83.1324                61.7285

                     61                     62                     63
                      A                      A                      A
 Frequencies --   1365.7129              1373.8405              1381.0841
 Red. masses --      1.4914                 1.3062                 1.2310
 Frc consts  --      1.6389                 1.4525                 1.3834
 IR Inten    --     51.8613                 1.0833               277.1316

                     64                     65                     66
                      A                      A                      A
 Frequencies --   1389.5234              1392.6188              1405.7326
 Red. masses --      1.3000                 1.4774                 1.7687
 Frc consts  --      1.4789                 1.6882                 2.0593
 IR Inten    --    174.1131              1143.8441               673.9797

                     67                     68                     69
                      A                      A                      A
 Frequencies --   1408.2208              1450.7649              1451.7052
 Red. masses --      2.7587                 2.7150                 1.4435
 Frc consts  --      3.2233                 3.3667                 1.7924
 IR Inten    --    319.8821                73.9545               104.5026

                     70                     71                     72
                      A                      A                      A
 Frequencies --   1470.9432              1474.9662              1481.6378
 Red. masses --      1.0711                 1.0503                 1.0756
 Frc consts  --      1.3655                 1.3463                 1.3911
 IR Inten    --      5.3235                19.8604                24.7740

                     73                     74                     75
                      A                      A                      A
 Frequencies --   1484.8582              1485.4203              1486.7859
 Red. masses --      1.5494                 1.1006                 1.0670
 Frc consts  --      2.0127                 1.4308                 1.3897
 IR Inten    --    130.7632               189.4594               148.3711

                     76                     77                     78
                      A                      A                      A
 Frequencies --   1486.8490              1488.7125              1503.2316
 Red. masses --      1.1633                 1.0625                 1.0532
 Frc consts  --      1.5152                 1.3874                 1.4022
 IR Inten    --     78.5687                19.5027                36.2067

                     79                     80                     81
                      A                      A                      A
 Frequencies --   1504.7060              1507.2365              1514.9195
 Red. masses --      1.1627                 1.0568                 1.0574
 Frc consts  --      1.5510                 1.4145                 1.4298
 IR Inten    --     52.6434                15.0219                78.6165

                     82                     83                     84
                      A                      A                      A
 Frequencies --   1555.8860              2919.4929              2924.4130
 Red. masses --      5.9055                 1.0689                 1.0580
 Frc consts  --      8.4230                 5.3678                 5.3311
 IR Inten    --   3105.9074               605.0798                73.5057

                     85                     86                     87
                      A                      A                      A
 Frequencies --   2936.4336              2937.7395              2967.7368
 Red. masses --      1.0594                 1.0594                 1.0695
 Frc consts  --      5.3823                 5.3870                 5.5499
 IR Inten    --     65.9805                89.5378              1232.9258

                     88                     89                     90
                      A                      A                      A
 Frequencies --   2969.8292              2976.0779              2981.1259
 Red. masses --      1.0785                 1.0565                 1.0553
 Frc consts  --      5.6045                 5.5133                 5.5256
 IR Inten    --    385.1789               802.4585                67.9862

                     91                     92                     93
                      A                      A                      A
 Frequencies --   2997.8170              2998.1880              3042.7525
 Red. masses --      1.0803                 1.0800                 1.0832
 Frc consts  --      5.7203                 5.7200                 5.9088
 IR Inten    --    168.6807                84.9767               313.7418

                     94                     95                     96
                      A                      A                      A
 Frequencies --   3043.1682              3056.3453              3056.8255
 Red. masses --      1.0837                 1.0716                 1.0728
 Frc consts  --      5.9130                 5.8977                 5.9060
 IR Inten    --    269.9337                17.0414                 3.3315

                     97                     98                     99
                      A                      A                      A
 Frequencies --   3073.4712              3074.0130              3088.0889
 Red. masses --      1.0922                 1.0918                 1.0963
 Frc consts  --      6.0790                 6.0789                 6.1599
 IR Inten    --     43.1284                32.1473                16.1026

                    100                    101                    102
                      A                      A                      A
 Frequencies --   3092.0599              3094.2810              3108.1976
 Red. masses --      1.1015                 1.1011                 1.0904
 Frc consts  --      6.2050                 6.2114                 6.2068
 IR Inten    --      4.4284                 3.4050                25.5189

 - Thermochemistry -
 -------------------
 Temperature   298.150 Kelvin.  Pressure   1.00000 Atm.
 Atom     1 has atomic number  6 and mass  12.00000

 Molecular mass:   220.14633 amu.
 Principal axes and moments of inertia in atomic units:
                           1         2         3
     Eigenvalues --  2732.280583735.479185761.71131
           X            0.98936   0.07637  -0.12386
           Y           -0.03648   0.95420   0.29693
           Z            0.14086  -0.28925   0.94683
 This molecule is an asymmetric top.
 Rotational symmetry number  1.
 Warning -- assumption of classical behavior for rotation
           may cause significant error
 Rotational temperatures (Kelvin)      0.03170     0.02319     0.01503
 Rotational constants (GHZ):           0.66053     0.48314     0.31323
 Zero-point vibrational energy     794300.7 (Joules/Mol)
                                  189.84242 (Kcal/Mol)
 Warning -- explicit consideration of  30 degrees of freedom as
           vibrations may cause significant error
 Vibrational temperatures:     71.64    90.46    99.05   138.78   143.72
          (Kelvin)            198.97   208.24   233.77   260.42   281.15
                              303.90   337.05   346.88   355.68   368.03
                              373.57   404.41   412.97   466.44   498.29
                              584.27   613.19   619.31   631.75   649.69
                              697.40   718.70   783.37   848.03   875.01
                             1026.88  1054.11  1110.41  1141.49  1215.79
                             1297.67  1299.38  1317.66  1332.11  1369.82
                             1370.66  1413.44  1421.92  1473.90  1506.48
                             1532.78  1563.17  1574.82  1610.54  1613.08
                             1634.40  1698.78  1711.49  1722.08  1799.29
                             1891.62  1924.59  1954.08  1957.26  1963.07
                             1964.96  1976.65  1987.07  1999.21  2003.67
                             2022.54  2026.12  2087.33  2088.68  2116.36
                             2122.15  2131.75  2136.38  2137.19  2139.15
                             2139.24  2141.93  2162.82  2164.94  2168.58
                             2179.63  2238.57  4200.50  4207.58  4224.87
                             4226.75  4269.91  4272.92  4281.91  4289.18
                             4313.19  4313.72  4377.84  4378.44  4397.40
                             4398.09  4422.04  4422.82  4443.07  4448.78
                             4451.98  4472.00

 Zero-point correction=                           0.302533 (Hartree/Particle)
 Thermal correction to Energy=                    0.320660
 Thermal correction to Enthalpy=                  0.321604
 Thermal correction to Gibbs Free Energy=         0.257894
 Sum of electronic and zero-point Energies=           -695.819978
 Sum of electronic and thermal Energies=              -695.801851
 Sum of electronic and thermal Enthalpies=            -695.800907
 Sum of electronic and thermal Free Energies=         -695.864617

                     E (Thermal)             CV                S
                      KCal/Mol        Cal/Mol-Kelvin    Cal/Mol-Kelvin
 Total                  201.217             68.083            134.090
 Electronic               0.000              0.000              0.000
 Translational            0.889              2.981             42.070
 Rotational               0.889              2.981             32.442
 Vibrational            199.440             62.121             59.578
 Vibration     1          0.595              1.978              4.826
 Vibration     2          0.597              1.972              4.365
 Vibration     3          0.598              1.969              4.186
 Vibration     4          0.603              1.952              3.525
 Vibration     5          0.604              1.949              3.456
 Vibration     6          0.614              1.915              2.827
 Vibration     7          0.616              1.908              2.740
 Vibration     8          0.623              1.888              2.521
 Vibration     9          0.630              1.866              2.318
 Vibration    10          0.636              1.846              2.176
 Vibration    11          0.643              1.824              2.033
 Vibration    12          0.654              1.788              1.846
 Vibration    13          0.658              1.777              1.795
 Vibration    14          0.661              1.767              1.750
 Vibration    15          0.666              1.753              1.690
 Vibration    16          0.668              1.746              1.664
 Vibration    17          0.681              1.709              1.527
 Vibration    18          0.684              1.698              1.491
 Vibration    19          0.709              1.627              1.289
 Vibration    20          0.724              1.583              1.183
 Vibration    21          0.771              1.457              0.941
 Vibration    22          0.788              1.413              0.871
 Vibration    23          0.792              1.404              0.857
 Vibration    24          0.799              1.385              0.829
 Vibration    25          0.810              1.357              0.791
 Vibration    26          0.841              1.284              0.697
 Vibration    27          0.855              1.251              0.659
 Vibration    28          0.900              1.152              0.556
 Vibration    29          0.947              1.054              0.468
 Vibration    30          0.967              1.015              0.436

                           ! Non-Optimized Parameters !
 Normal termination of Gaussian 16 at Mon Dec 18 08:28:18 2023.
