 Q-Chem 5.4, Q-Chem, Inc., Pleasanton, CA (2021)
 Q-Chem 5.4.0 for Intel X86 EM64T Linux

User input:
--------------------------------------------------------------
$molecule
0 1
O                 -0.1318410000      0.0728710000      2.2362150000
C                 -0.4905000000      0.3568560000      1.1082430000
C                 -1.8341810000      0.0138350000      0.5718600000
C                 -2.7286760000     -0.6655840000      1.4130200000
C                 -3.9825610000     -1.0368410000      0.9471990000
C                 -4.3557680000     -0.7375410000     -0.3653900000
C                 -3.4722810000     -0.0655930000     -1.2082750000
C                 -2.2151760000      0.3116950000     -0.7439810000
C                  0.4833620000      1.1800340000      0.2385430000
O                  0.1206260000      2.2868500000     -0.1149970000
C                  1.8312590000      0.6307720000     -0.0652010000
C                  2.7241500000      1.4330120000     -0.7921560000
C                  3.9818870000      0.9518520000     -1.1292030000
C                  4.3606690000     -0.3376190000     -0.7476590000
C                  3.4789430000     -1.1419000000     -0.0277890000
C                  2.2179430000     -0.6619110000      0.3153280000
H                 -2.4187080000     -0.8900960000      2.4264400000
H                 -4.6713180000     -1.5586790000      1.6016850000
H                 -5.3352770000     -1.0277740000     -0.7289580000
H                 -3.7639420000      0.1696890000     -2.2252500000
H                 -1.5415640000      0.8496880000     -1.3981610000
H                  2.4098530000      2.4288570000     -1.0802850000
H                  4.6693060000      1.5764030000     -1.6881660000
H                  5.3431640000     -0.7132220000     -1.0112460000
H                  3.7749520000     -2.1406810000      0.2713160000
H                  1.5456790000     -1.2849720000      0.8906530000
$end
$rem
MAX_SCF_CYCLES=200
BASIS  =  6-311++G(d,p)
GUI  =  2
JOB_TYPE  =  SP
METHOD  =  B3LYP
SOLVENT_METHOD = COSMO
$end
$solvent
dielectric 37.219
opticaldielectric 1.43
$end

--------------------------------------------------------------

             Standard Nuclear Orientation (Angstroms)
    I     Atom           X                Y                Z
 ----------------------------------------------------------------
    1      O      -0.3629238381    -1.5807486393     1.3976266416
    2      C      -0.5698821984    -0.5219037697     0.8340484567
    3      C      -1.8780288215    -0.1690192840     0.2216158391
    4      C      -2.9212998283    -1.1038517605     0.3050153329
    5      C      -4.1509574572    -0.8342095108    -0.2800348617
    6      C      -4.3513372911     0.3703516331    -0.9587352453
    7      C      -3.3195451179     1.3029959835    -1.0487238221
    8      C      -2.0859190217     1.0380612786    -0.4603324630
    9      C       0.5697431040     0.5190856049     0.8356599332
   10      O       0.3624702894     1.5763741541     1.4020418706
   11      C       1.8780622964     0.1681558123     0.2225329838
   12      C       2.9204479133     1.1039067650     0.3068496948
   13      C       4.1501257412     0.8363574295    -0.2790920936
   14      C       4.3514527119    -0.3670672907    -0.9595503812
   15      C       3.3206432713    -1.3007311335    -1.0502433173
   16      C       2.0869796748    -1.0378732832    -0.4609898938
   17      H      -2.7443268368    -2.0326350929     0.8337383012
   18      H      -4.9548494230    -1.5580432209    -0.2102101175
   19      H      -5.3119763414     0.5806131766    -1.4157007411
   20      H      -3.4769245843     2.2389340431    -1.5720913423
   21      H      -1.2953694003     1.7748336795    -0.5181147483
   22      H       2.7427490910     2.0317908548     0.8369085909
   23      H       4.9532790130     1.5609476280    -0.2086482519
   24      H       5.3120872939    -0.5756744366    -1.4172799996
   25      H       3.4787977412    -2.2358277717    -1.5748670454
   26      H       1.2972519768    -1.7754938255    -0.5192037199
 ----------------------------------------------------------------

    9    -690.1359613461      2.45e-06  Convergence criterion met
 Total energy in the final basis set =     -690.1359613461
    5    -690.1508039482      4.02e-06  Convergence criterion met
 Total energy in the final basis set =     -690.1508039482

                    Orbital Energies (a.u.)
 --------------------------------------------------------------

 Alpha MOs
 -- Occupied --
-19.1441 -19.1441 -10.2893 -10.2891 -10.2032 -10.2032 -10.1971 -10.1971
-10.1937 -10.1937 -10.1936 -10.1936 -10.1888 -10.1888 -10.1886 -10.1886
 -1.0876  -1.0683  -0.8785  -0.8785  -0.7873  -0.7801  -0.7664  -0.7656
 -0.6976  -0.6497  -0.6292  -0.6221  -0.6016  -0.5650  -0.5435  -0.5136
 -0.4999  -0.4833  -0.4762  -0.4676  -0.4596  -0.4570  -0.4484  -0.4405
 -0.4392  -0.4260  -0.4157  -0.3832  -0.3773  -0.3757  -0.3744  -0.3604
 -0.3597  -0.3316  -0.2828  -0.2756  -0.2743  -0.2740  -0.2606

          Ground-State Mulliken Net Atomic Charges

     Atom                 Charge (a.u.)
  ----------------------------------------
      1 O                    -0.273350
      2 C                    -0.184962
      3 C                     1.255329
      4 C                     0.467224
      5 C                    -0.522615
      6 C                    -0.298504
      7 C                    -0.538766
      8 C                    -0.982338
      9 C                    -0.188087
     10 O                    -0.273075
     11 C                     1.254842
     12 C                     0.465127
     13 C                    -0.523789
     14 C                    -0.298014
     15 C                    -0.539273
     16 C                    -0.978635
     17 H                     0.223189
     18 H                     0.224900
     19 H                     0.209352
     20 H                     0.236938
     21 H                     0.185082
     22 H                     0.223138
     23 H                     0.224912
     24 H                     0.209332
     25 H                     0.236942
     26 H                     0.185100
  ----------------------------------------
  Sum of atomic charges =     0.000000

                    Cartesian Multipole Moments
 -----------------------------------------------------------------
    Charge (ESU x 10^10)
                 0.0000
    Dipole Moment (Debye)
         X       0.0004      Y       0.0086      Z      -4.8928
       Tot       4.8928
    Quadrupole Moments (Debye-Ang)
        XX     -59.7265     XY       0.4243     YY     -92.1398
        XZ      -0.0053     YZ       0.0009     ZZ     -99.0125

 Total job time:  38.77s(wall), 289.84s(cpu)
        *  Thank you very much for using Q-Chem.  Have a nice day.  *
