 Q-Chem 5.4, Q-Chem, Inc., Pleasanton, CA (2021)
 Q-Chem 5.4.0 for Intel X86 EM64T Linux

User input:
--------------------------------------------------------------
$molecule
-2 1
O                  0.1263790000      0.3167840000      2.7029640000
C                  0.0673960000      0.1207190000      1.4519070000
C                 -1.1932830000      0.0534820000      0.7293370000
C                 -2.4460020000      0.2397810000      1.3735440000
C                 -3.6426520000      0.1528670000      0.6682000000
C                 -3.6443440000     -0.0737380000     -0.7108400000
C                 -2.4144260000     -0.2023950000     -1.3847870000
C                 -1.2264640000     -0.1521350000     -0.6698570000
O                 -0.0665150000     -0.3403690000     -1.3920440000
C                  1.1574360000     -0.1725590000     -0.7788930000
C                  2.2742540000     -0.2423500000     -1.5991500000
C                  3.5624990000     -0.1352450000     -1.0402790000
C                  3.6905080000      0.0899830000      0.3330340000
C                  2.5648160000      0.1965360000      1.1445210000
C                  1.2556250000      0.0323240000      0.6173370000
H                 -2.4266630000      0.4334200000      2.4397970000
H                 -4.5899780000      0.2645300000      1.1927080000
H                 -4.5782950000     -0.1493940000     -1.2615630000
H                 -2.3728450000     -0.3710770000     -2.4564600000
H                  2.1322610000     -0.4093480000     -2.6624590000
H                  4.4408590000     -0.2262500000     -1.6739150000
H                  4.6834760000      0.1849870000      0.7689050000
H                  2.6459580000      0.3894480000      2.2079920000
$end
$rem
MAX_SCF_CYCLES=200
BASIS  =  6-311++G(d,p)
GUI  =  2
JOB_TYPE  =  SP
METHOD  =  B3LYP
SOLVENT_METHOD = PCM
$end
$pcm
theory = CPCM
$end
$solvent
dielectric 37.219
opticaldielectric 1.43
$end

--------------------------------------------------------------

             Standard Nuclear Orientation (Angstroms)
    I     Atom           X                Y                Z
 ----------------------------------------------------------------
    1      O       0.1263790000     0.3167840000     2.7029640000
    2      C       0.0673960000     0.1207190000     1.4519070000
    3      C      -1.1932830000     0.0534820000     0.7293370000
    4      C      -2.4460020000     0.2397810000     1.3735440000
    5      C      -3.6426520000     0.1528670000     0.6682000000
    6      C      -3.6443440000    -0.0737380000    -0.7108400000
    7      C      -2.4144260000    -0.2023950000    -1.3847870000
    8      C      -1.2264640000    -0.1521350000    -0.6698570000
    9      O      -0.0665150000    -0.3403690000    -1.3920440000
   10      C       1.1574360000    -0.1725590000    -0.7788930000
   11      C       2.2742540000    -0.2423500000    -1.5991500000
   12      C       3.5624990000    -0.1352450000    -1.0402790000
   13      C       3.6905080000     0.0899830000     0.3330340000
   14      C       2.5648160000     0.1965360000     1.1445210000
   15      C       1.2556250000     0.0323240000     0.6173370000
   16      H      -2.4266630000     0.4334200000     2.4397970000
   17      H      -4.5899780000     0.2645300000     1.1927080000
   18      H      -4.5782950000    -0.1493940000    -1.2615630000
   19      H      -2.3728450000    -0.3710770000    -2.4564600000
   20      H       2.1322610000    -0.4093480000    -2.6624590000
   21      H       4.4408590000    -0.2262500000    -1.6739150000
   22      H       4.6834760000     0.1849870000     0.7689050000
   23      H       2.6459580000     0.3894480000     2.2079920000
 ----------------------------------------------------------------

   10    -651.0010296621      3.13e-06  Convergence criterion met
 Total energy in the final basis set =     -651.0010296621

                    Orbital Energies (a.u.)
 --------------------------------------------------------------

 Alpha MOs
 -- Occupied --
-19.1426 -19.0134 -10.2031 -10.2031 -10.1519 -10.1408 -10.1408 -10.1354
-10.1354 -10.1352 -10.1352 -10.1288 -10.1288 -10.1225 -10.1225  -1.0623
 -0.9367  -0.8249  -0.8110  -0.7336  -0.7331  -0.7067  -0.6943  -0.6139
 -0.6058  -0.5610  -0.5543  -0.5162  -0.5115  -0.4627  -0.4511  -0.4334
 -0.4256  -0.4227  -0.3993  -0.3990  -0.3801  -0.3644  -0.3584  -0.3462
 -0.3395  -0.3373  -0.3219  -0.3155  -0.2998  -0.2947  -0.2334  -0.2191
 -0.2173  -0.1961  -0.1952  -0.0684

          Ground-State Mulliken Net Atomic Charges

     Atom                 Charge (a.u.)
  ----------------------------------------
      1 O                    -0.750297
      2 C                    -0.149454
      3 C                     0.899543
      4 C                    -0.048614
      5 C                    -0.309963
      6 C                    -0.452701
      7 C                    -0.451365
      8 C                    -0.695824
      9 O                    -0.178001
     10 C                    -0.693579
     11 C                    -0.451888
     12 C                    -0.453249
     13 C                    -0.311091
     14 C                    -0.049100
     15 C                     0.897989
     16 H                     0.136014
     17 H                     0.151144
     18 H                     0.151523
     19 H                     0.160095
     20 H                     0.160297
     21 H                     0.151471
     22 H                     0.151134
     23 H                     0.135917
  ----------------------------------------
  Sum of atomic charges =    -2.000000

                    Cartesian Multipole Moments
 -----------------------------------------------------------------
    Charge (ESU x 10^10)
                -9.6064
    Dipole Moment (Debye)
         X      -0.4333      Y      -1.0746      Z      -9.3344
       Tot       9.4060
    Quadrupole Moments (Debye-Ang)
        XX    -134.3033     XY       0.1245     YY    -103.5614
        XZ       0.1670     YZ      -3.1405     ZZ    -129.8787

 Total job time:  62.07s(wall), 266.18s(cpu)
        *  Thank you very much for using Q-Chem.  Have a nice day.  *
