 Q-Chem 5.4, Q-Chem, Inc., Pleasanton, CA (2021)
 Q-Chem 5.4.0 for Intel X86 EM64T Linux

User input:
--------------------------------------------------------------
$molecule
0 1
C                  5.7400620000     -5.3619530000      1.3229850000
C                  6.7079570000     -5.1911710000      0.3275620000
C                  6.6182800000     -4.1847540000     -0.6181560000
C                  4.6526950000     -4.4605450000      1.3307860000
C                  4.5603390000     -3.4233980000      0.3563520000
C                  5.5542700000     -3.2767670000     -0.6364330000
C                  3.5852790000     -4.5927230000      2.3706350000
C                  2.4592020000     -3.6333240000      2.3522230000
C                  2.3728680000     -2.6624090000      1.4403140000
C                  3.3975070000     -2.4826430000      0.3883770000
O                  3.5995190000     -5.4572850000      3.2363020000
O                  3.2536020000     -1.5710120000     -0.4149220000
C                  5.9332400000     -6.4904930000      2.3057860000
H                  7.5530730000     -5.8706750000      0.2998380000
H                  1.5542560000     -1.9515790000      1.4135280000
C                  5.5524260000     -2.2169210000     -1.7104180000
H                  7.3947070000     -4.0934980000     -1.3701840000
H                  6.8548230000     -7.0266980000      2.0696060000
H                  5.0995680000     -7.1947570000      2.2839290000
H                  5.9889800000     -6.1281970000      3.3338830000
H                  1.7167400000     -3.7783440000      3.1293010000
H                  5.5523040000     -1.2106350000     -1.2874810000
H                  4.6605710000     -2.2755510000     -2.3369480000
H                  6.4359810000     -2.3347360000     -2.3413230000
$end
$rem
MAX_SCF_CYCLES=200
BASIS  =  6-311++G(d,p)
GUI  =  2
JOB_TYPE  =  SP
METHOD  =  B3LYP
SOLVENT_METHOD = COSMO
$end
$solvent
dielectric 37.219
opticaldielectric 1.43
$end

--------------------------------------------------------------

             Standard Nuclear Orientation (Angstroms)
    I     Atom           X                Y                Z
 ----------------------------------------------------------------
    1      C       1.4336911501     1.2266356943    -0.0000122335
    2      C       0.6919865347     2.4126914812    -0.0003366445
    3      C      -0.6919569882     2.4126848378    -0.0003919505
    4      C       0.7130558686     0.0118727456     0.0000047580
    5      C      -0.7130314869     0.0118504812     0.0000748931
    6      C      -1.4336836439     1.2266269916    -0.0001184437
    7      C       1.4505975953    -1.2897285948    -0.0001838387
    8      C       0.6673699069    -2.5448736983    -0.0002839730
    9      C      -0.6674362304    -2.5449108142     0.0000247897
   10      C      -1.4506163897    -1.2897609562     0.0001636289
   11      O       2.6717921259    -1.3654484898    -0.0001668434
   12      O      -2.6718220966    -1.3654288633     0.0002070514
   13      C       2.9384904804     1.3379759832     0.0006142294
   14      H       1.2219405885     3.3591924226    -0.0005052635
   15      H      -1.2557030223    -3.4559896061     0.0000657508
   16      C      -2.9384416509     1.3380899759     0.0001421068
   17      H      -1.2219111552     3.3591842740    -0.0006263027
   18      H       3.2267420526     2.3913145166     0.0016069615
   19      H       3.3817187515     0.8515202190    -0.8702382282
   20      H       3.3811550044     0.8498381529     0.8707397137
   21      H       1.2557404075    -3.4558901404    -0.0004744906
   22      H      -3.3812487912     0.8512550785     0.8710042392
   23      H      -3.3816981733     0.8502375281    -0.8698615158
   24      H      -3.2266467731     2.3914316158    -0.0002164616
 ----------------------------------------------------------------

    8    -613.9059514943      9.46e-06  Convergence criterion met
 Total energy in the final basis set =     -613.9059514943
    5    -613.9182572733      2.50e-06  Convergence criterion met
 Total energy in the final basis set =     -613.9182572733

                    Orbital Energies (a.u.)
 --------------------------------------------------------------

 Alpha MOs
 -- Occupied --
-19.1315 -19.1315 -10.2815 -10.2815 -10.2083 -10.2080 -10.2076 -10.2075
-10.2056 -10.2047 -10.1897 -10.1891 -10.1656 -10.1656  -1.0663  -1.0645
 -0.8885  -0.8385  -0.8060  -0.7722  -0.7277  -0.7062  -0.6617  -0.6417
 -0.6333  -0.5589  -0.5321  -0.5276  -0.5031  -0.4855  -0.4642  -0.4566
 -0.4546  -0.4304  -0.4293  -0.4249  -0.4142  -0.4119  -0.4022  -0.3969
 -0.3790  -0.3737  -0.3635  -0.3595  -0.3057  -0.2804  -0.2778  -0.2712
 -0.2595

          Ground-State Mulliken Net Atomic Charges

     Atom                 Charge (a.u.)
  ----------------------------------------
      1 C                     1.177033
      2 C                    -0.640594
      3 C                    -0.641079
      4 C                     0.262929
      5 C                     0.263168
      6 C                     1.177380
      7 C                    -0.905818
      8 C                    -0.222763
      9 C                    -0.223081
     10 C                    -0.906239
     11 O                    -0.288750
     12 O                    -0.288753
     13 C                    -0.341264
     14 H                     0.182405
     15 H                     0.248457
     16 C                    -0.341604
     17 H                     0.182411
     18 H                     0.164998
     19 H                     0.182106
     20 H                     0.181772
     21 H                     0.248429
     22 H                     0.182128
     23 H                     0.181789
     24 H                     0.164942
  ----------------------------------------
  Sum of atomic charges =     0.000000

                    Cartesian Multipole Moments
 -----------------------------------------------------------------
    Charge (ESU x 10^10)
                 0.0000
    Dipole Moment (Debye)
         X       0.0002      Y       2.6481      Z      -0.0003
       Tot       2.6481
    Quadrupole Moments (Debye-Ang)
        XX     -96.2807     XY       0.0002     YY     -67.4243
        XZ      -0.0033     YZ      -0.0009     ZZ     -82.8416

 Total job time:  92.23s(wall), 246.84s(cpu)
        *  Thank you very much for using Q-Chem.  Have a nice day.  *
