 Q-Chem 5.4, Q-Chem, Inc., Pleasanton, CA (2021)
 Q-Chem 5.4.0 for Intel X86 EM64T Linux

User input:
--------------------------------------------------------------
$molecule
0 1
C                  5.0797030000     -2.4449790000      0.3199690000
C                  5.8188840000     -1.4927630000     -0.3690730000
C                  5.1471940000     -0.5196680000     -1.1110920000
C                  3.6826380000     -2.4244720000      0.2706520000
C                  3.0213180000     -1.4318170000     -0.4728490000
C                  3.7623260000     -0.4697700000     -1.1643060000
C                  2.9188880000     -3.4651590000      1.0237320000
C                  1.4284950000     -3.4067380000      0.9557170000
C                  0.7671740000     -2.4141220000      0.2121510000
C                  1.5309280000     -1.3734060000     -0.5408840000
C                  0.6874940000     -4.3687630000      1.6471990000
C                 -0.6298830000     -2.3936560000      0.1627940000
C                 -1.3690680000     -3.3458530000      0.8518740000
O                  3.4905990000     -4.3240920000      1.6701090000
O                  0.9592170000     -0.5144750000     -1.1872630000
H                  5.5677740000     -3.2125010000      0.9073470000
H                 -2.4509040000     -3.3520440000      0.8083280000
H                  3.2447090000      0.3034830000     -1.7177170000
H                  1.2051530000     -5.1419630000      2.2006470000
H                 -1.1179710000     -1.6261650000     -0.4246130000
C                 -0.6973750000     -4.3188960000      1.5939410000
S                  6.1083820000      0.7154870000     -2.0119080000
H                  6.9007220000     -1.4865870000     -0.3255390000
S                 -1.6585800000     -5.5540680000      2.4947170000
O                 -0.8242560000     -6.7425930000      2.6286670000
O                 -2.9889440000     -5.5844400000      1.8951020000
N                 -1.8167760000     -4.8649380000      4.0272490000
H                 -1.3449590000     -5.4286000000      4.7270580000
H                 -2.7943620000     -4.7120320000      4.2526280000
O                  5.2739330000      1.9038940000     -2.1460690000
O                  7.4386700000      0.7460940000     -1.4121410000
N                  6.2667920000      0.0262280000     -3.5442520000
H                  7.2443170000     -0.1271160000     -3.7695300000
H                  5.7950260000      0.5895820000     -4.2443250000
$end
$rem
MAX_SCF_CYCLES=200
BASIS  =  6-311++G(d,p)
GUI  =  2
JOB_TYPE  =  SP
METHOD  =  B3LYP
SOLVENT_METHOD = COSMO
$end
$solvent
dielectric 37.219
opticaldielectric 1.43
$end

--------------------------------------------------------------

             Standard Nuclear Orientation (Angstroms)
    I     Atom           X                Y                Z
 ----------------------------------------------------------------
    1      C       2.0345400005    -2.0041954719     0.0232024664
    2      C       3.3775305909    -1.6540845635     0.0642069178
    3      C       3.7253869411    -0.3023750188     0.0876759976
    4      C       1.0477380876    -1.0139225968     0.0082046277
    5      C       1.4143689882     0.3425088866     0.0425155881
    6      C       2.7650268141     0.6980695545     0.0876832519
    7      C      -0.3878804032    -1.4267591532    -0.0369452078
    8      C      -1.4143647391    -0.3425037569    -0.0424671192
    9      C      -1.0477284896     1.0139357580    -0.0082313511
   10      C       0.3878897928     1.4267656300     0.0369717505
   11      C      -2.7650160079    -0.6980680529    -0.0876015889
   12      C      -2.0345300373     2.0041979929    -0.0232860374
   13      C      -3.3775291553     1.6540833617    -0.0642488424
   14      O      -0.7067719113    -2.6014870056    -0.0642448632
   15      O       0.7067810546     2.6014932525     0.0642685975
   16      H       1.7288689941    -3.0427563375     0.0066857879
   17      H      -4.1513847078     2.4107755497    -0.0937145853
   18      H       3.0380466103     1.7446654619     0.1346778591
   19      H      -3.0379919615    -1.7446793379    -0.1345346872
   20      H      -1.7288760793     3.0427660222    -0.0068111804
   21      C      -3.7253752411     0.3023795572    -0.0876480746
   22      S       5.4721006775     0.1533455438     0.1353163478
   23      H       4.1513844990    -2.4107812083     0.0936539408
   24      S      -5.4720938401    -0.1533208608    -0.1353302405
   25      O      -5.5635983656    -1.4624731764    -0.7712374281
   26      O      -6.2075373781     1.0126445540    -0.6148888219
   27      N      -5.8555116872    -0.3495500439     1.4965598675
   28      H      -6.1096687180    -1.3119753978     1.6945508021
   29      H      -6.5797315926     0.3041093632     1.7759972197
   30      O       5.5635384580     1.4626121598     0.7709857319
   31      O       6.2075524783    -1.0125031021     0.6151402626
   32      N       5.8555260021     0.3492692406    -1.4965074040
   33      H       6.5794219412    -0.3046439298    -1.7761355861
   34      H       6.1096638749     1.3116042906    -1.6948966339
 ----------------------------------------------------------------

    9   -1896.9787939964      6.97e-06  Convergence criterion met
 Total energy in the final basis set =    -1896.9787939964
    5   -1897.0208217072      4.36e-06  Convergence criterion met
 Total energy in the final basis set =    -1897.0208217072

                    Orbital Energies (a.u.)
 --------------------------------------------------------------

 Alpha MOs
 -- Occupied --
-89.0927 -89.0927 -19.1465 -19.1464 -19.1461 -19.1460 -19.1455 -19.1455
-14.3522 -14.3522 -10.2978 -10.2978 -10.2421 -10.2421 -10.2263 -10.2263
-10.2258 -10.2258 -10.2208 -10.2208 -10.2194 -10.2194 -10.2125 -10.2125
 -8.1541  -8.1541  -6.1169  -6.1169  -6.1168  -6.1168  -6.1149  -6.1149
 -1.1510  -1.1510  -1.0819  -1.0801  -1.0440  -1.0440  -0.9239  -0.9236
 -0.9140  -0.9049  -0.8393  -0.8063  -0.7986  -0.7959  -0.7212  -0.7191
 -0.6777  -0.6771  -0.6349  -0.6346  -0.6040  -0.5810  -0.5769  -0.5510
 -0.5436  -0.5429  -0.5336  -0.5308  -0.5212  -0.5195  -0.5070  -0.4872
 -0.4784  -0.4749  -0.4705  -0.4696  -0.4686  -0.4658  -0.4654  -0.4411
 -0.4332  -0.4193  -0.4139  -0.3999  -0.3927  -0.3871  -0.3859  -0.3850
 -0.3574  -0.3571  -0.3454  -0.3444  -0.3428  -0.3426  -0.3261  -0.3252
 -0.3024  -0.3005  -0.2939  -0.2928  -0.2900  -0.2890

          Ground-State Mulliken Net Atomic Charges

     Atom                 Charge (a.u.)
  ----------------------------------------
      1 C                     0.056196
      2 C                    -0.393504
      3 C                    -0.353435
      4 C                     0.538864
      5 C                     0.179952
      6 C                     0.011585
      7 C                    -0.673897
      8 C                     0.181673
      9 C                     0.537966
     10 C                    -0.674234
     11 C                     0.013147
     12 C                     0.055047
     13 C                    -0.394143
     14 O                    -0.252571
     15 O                    -0.252540
     16 H                     0.212221
     17 H                     0.286437
     18 H                     0.256328
     19 H                     0.256147
     20 H                     0.212288
     21 C                    -0.353053
     22 S                     0.443573
     23 H                     0.286278
     24 S                     0.443354
     25 O                    -0.294144
     26 O                    -0.292461
     27 N                    -0.436839
     28 H                     0.354040
     29 H                     0.357674
     30 O                    -0.294311
     31 O                    -0.292535
     32 N                    -0.436857
     33 H                     0.357672
     34 H                     0.354077
  ----------------------------------------
  Sum of atomic charges =    -0.000003

                    Cartesian Multipole Moments
 -----------------------------------------------------------------
    Charge (ESU x 10^10)
                -0.0000
    Dipole Moment (Debye)
         X      -0.0004      Y      -0.0011      Z      -0.0021
       Tot       0.0024
    Quadrupole Moments (Debye-Ang)
        XX    -159.0901     XY      -9.3535     YY    -162.7364
        XZ     -55.1698     YZ      -5.7363     ZZ    -150.4763

 Total job time:  120.85s(wall), 932.09s(cpu)
        *  Thank you very much for using Q-Chem.  Have a nice day.  *
