 Gaussian 16, Revision A.03,
 Gaussian 16:  ES64L-G16RevA.03 25-Dec-2016

 --------------------------------------
 #P UB3LYP/6-311++G(d,p) nosym opt freq
 --------------------------------------

 -------
 Radical
 -------
 Symbolic Z-matrix:
 Charge = -1 Multiplicity = 2

 SCF Done:  E(UB3LYP) =  -538.905795759     A.U. after   21 cycles
 SCF Done:  E(UB3LYP) =  -538.926078109     A.U. after   17 cycles
 SCF Done:  E(UB3LYP) =  -538.928595469     A.U. after   16 cycles
 SCF Done:  E(UB3LYP) =  -538.930768819     A.U. after   15 cycles
 SCF Done:  E(UB3LYP) =  -538.934849327     A.U. after   19 cycles
 SCF Done:  E(UB3LYP) =  -538.936679923     A.U. after   15 cycles
 SCF Done:  E(UB3LYP) =  -538.937976914     A.U. after   16 cycles
 SCF Done:  E(UB3LYP) =  -538.938018019     A.U. after   16 cycles
 SCF Done:  E(UB3LYP) =  -538.938429098     A.U. after   15 cycles
 SCF Done:  E(UB3LYP) =  -538.938439009     A.U. after   14 cycles
 SCF Done:  E(UB3LYP) =  -538.938441943     A.U. after   12 cycles
 SCF Done:  E(UB3LYP) =  -538.938443114     A.U. after   11 cycles
 SCF Done:  E(UB3LYP) =  -538.938443301     A.U. after   11 cycles
 Optimization completed.
    -- Stationary point found.
 Normal termination of Gaussian 16 at Sun Dec 17 21:13:38 2023.

 ----------------------------------------------------------------------
 #P Geom=AllCheck Guess=TCheck SCRF=Check GenChk UB3LYP/6-311++G(d,p) F
 req
 ----------------------------------------------------------------------

 Structure from the checkpoint file:  "033-rad.chk"
 -------
 Radical
 -------
 Charge = -1 Multiplicity = 2

                          Input orientation:
 ---------------------------------------------------------------------
 Center     Atomic      Atomic             Coordinates (Angstroms)
 Number     Number       Type             X           Y           Z
 ---------------------------------------------------------------------
      1          6           0       -1.795559    1.124190    0.635958
      2          6           0       -1.141643   -0.093709   -0.061399
      3          6           0       -1.684658   -1.367697    0.613576
      4          6           0       -1.574842   -0.126546   -1.547492
      5          6           0        0.391934    0.015571    0.030924
      6          6           0        1.154214   -0.943758    0.657487
      7          6           0        2.598769   -0.902187    0.779217
      8          8           0        3.247845   -1.815988    1.368259
      9          6           0        3.234599    0.249411    0.183204
     10          6           0        2.502678    1.218717   -0.445966
     11          6           0        1.061261    1.178443   -0.567945
     12          8           0        0.439239    2.110085   -1.164465
     13          1           0       -2.889025    1.063112    0.561611
     14          1           0       -1.528991    1.143761    1.697995
     15          1           0       -1.457676    2.051425    0.173842
     16          1           0       -2.775869   -1.391807    0.517363
     17          1           0       -1.441964   -1.399124    1.679800
     18          1           0       -1.287700   -2.275458    0.149750
     19          1           0       -1.149160   -1.001941   -2.049327
     20          1           0       -2.668039   -0.189816   -1.623765
     21          1           0       -1.232496    0.771336   -2.061384
     22          1           0        0.696203   -1.815545    1.110739
     23          1           0        4.317151    0.313051    0.255719
     24          1           0        2.983728    2.084474   -0.893701
 ---------------------------------------------------------------------

 SCF Done:  E(UB3LYP) =  -538.938443301     A.U. after    1 cycles

 Alpha  occ. eigenvalues --  -18.93160 -18.93050 -10.07869 -10.07476 -10.06671
 Alpha  occ. eigenvalues --  -10.04555 -10.03762 -10.03403 -10.03403 -10.02544
 Alpha  occ. eigenvalues --  -10.02442 -10.02295  -0.85337  -0.84878  -0.70692
 Alpha  occ. eigenvalues --   -0.67013  -0.60036  -0.57048  -0.56315  -0.53870
 Alpha  occ. eigenvalues --   -0.47553  -0.43901  -0.40101  -0.34469  -0.33767
 Alpha  occ. eigenvalues --   -0.32208  -0.32077  -0.30327  -0.29610  -0.28240
 Alpha  occ. eigenvalues --   -0.26454  -0.25531  -0.25520  -0.24683  -0.24533
 Alpha  occ. eigenvalues --   -0.22385  -0.22360  -0.21238  -0.20818  -0.20249
 Alpha  occ. eigenvalues --   -0.13732  -0.11825  -0.09505  -0.09118  -0.01924
 Alpha virt. eigenvalues --    0.08290   0.10572   0.10632   0.10665   0.11655
 Alpha virt. eigenvalues --    0.12398   0.12846   0.13454   0.13692   0.14681
 Alpha virt. eigenvalues --    0.14725   0.15703   0.16232   0.16971   0.17449

  Beta  occ. eigenvalues --  -18.92447 -18.92289 -10.07733 -10.07387 -10.06678
  Beta  occ. eigenvalues --  -10.04556 -10.03666 -10.03398 -10.03397 -10.02435
  Beta  occ. eigenvalues --  -10.02315 -10.02175  -0.84096  -0.83550  -0.70495
  Beta  occ. eigenvalues --   -0.66513  -0.59772  -0.57010  -0.56297  -0.52857
  Beta  occ. eigenvalues --   -0.47222  -0.43563  -0.39872  -0.34333  -0.33554
  Beta  occ. eigenvalues --   -0.32036  -0.31865  -0.30222  -0.29420  -0.27769
  Beta  occ. eigenvalues --   -0.26286  -0.24901  -0.24892  -0.24286  -0.23663
  Beta  occ. eigenvalues --   -0.22069  -0.21276  -0.20682  -0.20119  -0.19380
  Beta  occ. eigenvalues --   -0.11043  -0.10144  -0.08828  -0.08452
  Beta virt. eigenvalues --    0.05423   0.08290   0.10574   0.10643   0.10692
  Beta virt. eigenvalues --    0.11659   0.12867   0.12941   0.13458   0.14378
  Beta virt. eigenvalues --    0.14692   0.14924   0.15728   0.16964   0.16984

 Mulliken charges and spin densities:
               1          2
     1  C   -0.689954   0.012490
     2  C    0.678929  -0.020460
     3  C   -0.514060   0.000354
     4  C   -0.689988   0.012477
     5  C    1.312014   0.119828
     6  C   -0.463226   0.026662
     7  C   -0.840164   0.089131
     8  O   -0.407621   0.269515
     9  C    0.268651   0.105036
    10  C    0.069096   0.111470
    11  C   -1.025062   0.043833
    12  O   -0.373476   0.259194
    13  H    0.108351   0.000772
    14  H    0.112735   0.000810
    15  H    0.197606  -0.003057
    16  H    0.139894   0.000019
    17  H    0.119948  -0.000435
    18  H    0.119990  -0.000433
    19  H    0.112776   0.000810
    20  H    0.108336   0.000769
    21  H    0.197534  -0.003048
    22  H    0.171515  -0.009247
    23  H    0.139450  -0.007924
    24  H    0.146728  -0.008566
 Sum of Mulliken charges =  -1.00000   1.00000

 Dipole moment (field-independent basis, Debye):
    X=             -7.7269    Y=             -0.1763    Z=             -0.6796  Tot=              7.7587
 Quadrupole moment (field-independent basis, Debye-Ang):
   XX=           -106.2445   YY=            -97.4094   ZZ=            -87.0463
   XY=             12.6401   XZ=             -9.9521   YZ=             11.5927

  Exact polarizability: 176.783 -14.731 146.558  16.464 -29.777 115.913
 Approx polarizability: 242.891 -43.373 247.079  34.935 -64.130 183.067

                      1                      2                      3
                      A                      A                      A
 Frequencies --     69.5199               101.2436               161.2323
 Red. masses --      3.6090                 4.1473                 5.0266
 Frc consts  --      0.0103                 0.0250                 0.0770
 IR Inten    --      0.6038                 4.8248                 6.3970

                      4                      5                      6
                      A                      A                      A
 Frequencies --    206.7760               233.8874               270.2641
 Red. masses --      4.0884                 1.0934                 1.0950
 Frc consts  --      0.1030                 0.0352                 0.0471
 IR Inten    --      1.2504                 0.1365                 0.6041

                      7                      8                      9
                      A                      A                      A
 Frequencies --    280.0205               290.2476               324.4346
 Red. masses --      3.3495                 3.3853                 1.0425
 Frc consts  --      0.1547                 0.1680                 0.0647
 IR Inten    --      3.0333                 0.2423                 0.0552

                     10                     11                     12
                      A                      A                      A
 Frequencies --    328.2696               343.3919               391.8105
 Red. masses --      3.1053                 3.7987                 2.4202
 Frc consts  --      0.1972                 0.2639                 0.2189
 IR Inten    --      7.1491                 0.2057                 0.1111

                     13                     14                     15
                      A                      A                      A
 Frequencies --    406.0738               427.2122               474.3107
 Red. masses --      3.1687                 4.8885                 6.9439
 Frc consts  --      0.3079                 0.5257                 0.9204
 IR Inten    --      2.3043                 6.1332                 0.0644

                     16                     17                     18
                      A                      A                      A
 Frequencies --    487.2453               516.2397               592.3119
 Red. masses --      2.7540                 3.7701                 3.7284
 Frc consts  --      0.3852                 0.5920                 0.7707
 IR Inten    --      3.9370                 0.6412                 0.3981

                     19                     20                     21
                      A                      A                      A
 Frequencies --    634.5508               680.2201               758.3428
 Red. masses --      2.8915                 6.0739                 2.8573
 Frc consts  --      0.6860                 1.6558                 0.9681
 IR Inten    --      1.4818                 2.1933                 0.4051

                     22                     23                     24
                      A                      A                      A
 Frequencies --    809.0440               813.5298               823.2105
 Red. masses --      3.7660                 4.5693                 2.1485
 Frc consts  --      1.4524                 1.7817                 0.8579
 IR Inten    --      8.7562                26.7074                24.0090

                     25                     26                     27
                      A                      A                      A
 Frequencies --    888.2671               917.2554               924.3697
 Red. masses --      1.6268                 3.3189                 1.7693
 Frc consts  --      0.7562                 1.6452                 0.8907
 IR Inten    --     25.3217                 5.6267                 0.4314

                     28                     29                     30
                      A                      A                      A
 Frequencies --    932.0660               946.8778               957.7533
 Red. masses --      1.7558                 1.2777                 1.2040
 Frc consts  --      0.8987                 0.6749                 0.6507
 IR Inten    --      1.7201                 0.3067                 0.2835

                     31                     32                     33
                      A                      A                      A
 Frequencies --   1030.8550              1048.6458              1059.9463
 Red. masses --      1.8554                 1.3811                 1.8154
 Frc consts  --      1.1617                 0.8948                 1.2017
 IR Inten    --     36.3864                 0.0938                20.3160

                     34                     35                     36
                      A                      A                      A
 Frequencies --   1106.3080              1204.6830              1214.8148
 Red. masses --      1.5772                 2.2120                 2.6739
 Frc consts  --      1.1374                 1.8914                 2.3249
 IR Inten    --      4.0698                 6.5468                 4.7395

                     37                     38                     39
                      A                      A                      A
 Frequencies --   1222.2525              1266.0716              1268.0851
 Red. masses --      2.6205                 2.1730                 1.8019
 Frc consts  --      2.3065                 2.0522                 1.7071
 IR Inten    --     14.4349                 1.7489                20.6174

                     40                     41                     42
                      A                      A                      A
 Frequencies --   1342.9869              1372.7516              1381.0689
 Red. masses --      2.1733                 1.2116                 1.2468
 Frc consts  --      2.3095                 1.3453                 1.4011
 IR Inten    --     15.8557                12.1241                17.4683

                     43                     44                     45
                      A                      A                      A
 Frequencies --   1408.6635              1428.1523              1470.4405
 Red. masses --      1.2507                 4.8119                 1.0468
 Frc consts  --      1.4622                 5.7825                 1.3335
 IR Inten    --     30.4866                56.8642                 0.2616

                     46                     47                     48
                      A                      A                      A
 Frequencies --   1476.9361              1492.7359              1494.5293
 Red. masses --      3.1724                 1.2452                 1.0464
 Frc consts  --      4.0772                 1.6347                 1.3771
 IR Inten    --     30.1427                24.2700                 0.8924

                     49                     50                     51
                      A                      A                      A
 Frequencies --   1498.9565              1508.1768              1510.7217
 Red. masses --      1.2309                 4.8139                 1.0519
 Frc consts  --      1.6295                 6.4513                 1.4145
 IR Inten    --     13.2786                57.1512                 3.5873

                     52                     53                     54
                      A                      A                      A
 Frequencies --   1521.5833              1532.4206              1637.4935
 Red. masses --      2.4980                 1.3081                 6.6380
 Frc consts  --      3.4075                 1.8099                10.4869
 IR Inten    --    293.8201                74.7567                10.3994

                     55                     56                     57
                      A                      A                      A
 Frequencies --   2989.7843              2995.0287              3010.2261
 Red. masses --      1.0432                 1.0422                 1.0365
 Frc consts  --      5.4942                 5.5080                 5.5339
 IR Inten    --     48.9356                97.1107                97.2132

                     58                     59                     60
                      A                      A                      A
 Frequencies --   3050.4955              3052.8674              3065.6036
 Red. masses --      1.0958                 1.0960                 1.0988
 Frc consts  --      6.0082                 6.0181                 6.0842
 IR Inten    --     36.0918                24.3025                89.7446

                     61                     62                     63
                      A                      A                      A
 Frequencies --   3080.3935              3118.9606              3121.5144
 Red. masses --      1.1015                 1.0973                 1.0966
 Frc consts  --      6.1581                 6.2894                 6.2957
 IR Inten    --     44.6581                 0.0086                11.6813

                     64                     65                     66
                      A                      A                      A
 Frequencies --   3129.3000              3152.1187              3172.1645
 Red. masses --      1.0849                 1.0947                 1.0874
 Frc consts  --      6.2592                 6.4082                 6.4471
 IR Inten    --     21.7668                51.8145                13.4076

 - Thermochemistry -
 -------------------
 Temperature   298.150 Kelvin.  Pressure   1.00000 Atm.
 Atom     1 has atomic number  6 and mass  12.00000

 Molecular mass:   164.08373 amu.
 Principal axes and moments of inertia in atomic units:
                           1         2         3
     Eigenvalues --  1227.598642422.658133250.85583
           X            0.96146   0.26075  -0.08717
           Y           -0.18528   0.84875   0.49527
           Z            0.20313  -0.46004   0.86435
 This molecule is an asymmetric top.
 Rotational symmetry number  1.
 Warning -- assumption of classical behavior for rotation
           may cause significant error
 Rotational temperatures (Kelvin)      0.07056     0.03575     0.02664
 Rotational constants (GHZ):           1.47014     0.74494     0.55516
 Zero-point vibrational energy     510971.2 (Joules/Mol)
                                  122.12505 (Kcal/Mol)
 Warning -- explicit consideration of  18 degrees of freedom as
           vibrations may cause significant error
 Vibrational temperatures:    100.02   145.67   231.98   297.50   336.51
          (Kelvin)            388.85   402.89   417.60   466.79   472.31
                              494.06   563.73   584.25   614.66   682.43
                              701.04   742.75   852.20   912.98   978.68
                             1091.09  1164.03  1170.49  1184.42  1278.02
                             1319.73  1329.96  1341.04  1362.35  1377.99
                             1483.17  1508.77  1525.03  1591.73  1733.27
                             1747.85  1758.55  1821.59  1824.49  1932.26
                             1975.08  1987.05  2026.75  2054.79  2115.64
                             2124.98  2147.71  2150.29  2156.66  2169.93
                             2173.59  2189.22  2204.81  2355.99  4301.63
                             4309.18  4331.04  4388.98  4392.40  4410.72
                             4432.00  4487.49  4491.16  4502.36  4535.20
                             4564.04

 Zero-point correction=                           0.194619 (Hartree/Particle)
 Thermal correction to Energy=                    0.206048
 Thermal correction to Enthalpy=                  0.206992
 Thermal correction to Gibbs Free Energy=         0.157619
 Sum of electronic and zero-point Energies=           -538.743825
 Sum of electronic and thermal Energies=              -538.732395
 Sum of electronic and thermal Enthalpies=            -538.731451
 Sum of electronic and thermal Free Energies=         -538.780824

                     E (Thermal)             CV                S
                      KCal/Mol        Cal/Mol-Kelvin    Cal/Mol-Kelvin
 Total                  129.297             45.224            103.914
 Electronic               0.000              0.000              1.377
 Translational            0.889              2.981             41.194
 Rotational               0.889              2.981             30.648
 Vibrational            127.520             39.262             30.695
 Vibration     1          0.598              1.969              4.167
 Vibration     2          0.604              1.948              3.430
 Vibration     3          0.622              1.890              2.535
 Vibration     4          0.641              1.830              2.072
 Vibration     5          0.654              1.789              1.849
 Vibration     6          0.674              1.728              1.595
 Vibration     7          0.680              1.711              1.534
 Vibration     8          0.686              1.692              1.473
 Vibration     9          0.709              1.627              1.288
 Vibration    10          0.711              1.619              1.269
 Vibration    11          0.722              1.589              1.196
 Vibration    12          0.759              1.488              0.993
 Vibration    13          0.771              1.457              0.941
 Vibration    14          0.789              1.411              0.868
 Vibration    15          0.831              1.307              0.726
 Vibration    16          0.843              1.278              0.691
 Vibration    17          0.871              1.214              0.619
 Vibration    18          0.950              1.048              0.463

 Optimization completed.
    -- Stationary point found.
 Normal termination of Gaussian 16 at Sun Dec 17 21:23:40 2023.
