 Gaussian 16, Revision A.03,
 Gaussian 16:  ES64L-G16RevA.03 25-Dec-2016

 ----------------------------------------------------------------
 #P UB3LYP/6-311++G(d,p) SCRF=(PCM,Solvent=n,n-DiMethylFormamide)
 ----------------------------------------------------------------

 ------------------
 Radical PCM in DMF
 ------------------
 Symbolic Z-matrix:
 Charge = -1 Multiplicity = 2

                         Standard orientation:
 ---------------------------------------------------------------------
 Center     Atomic      Atomic             Coordinates (Angstroms)
 Number     Number       Type             X           Y           Z
 ---------------------------------------------------------------------
      1          6           0        1.476789    1.245866    0.545348
      2          6           0        1.126154   -0.111730    0.123093
      3          6           0        2.104462   -0.958877   -0.363339
      4          6           0        3.501107   -0.607089   -0.473487
      5          6           0        3.829519    0.739993   -0.052552
      6          6           0        2.877239    1.599813    0.417901
      7          8           0        0.631908    2.064091    1.006616
      8          8           0        4.371323   -1.413590   -0.914910
      9          6           0       -0.258613   -0.605816    0.255210
     10          6           0       -1.518997    0.039997   -0.062531
     11          6           0       -0.586581   -1.877391    0.661441
     12          6           0       -2.554716   -0.909358    0.157294
     13          7           0       -1.958375   -2.073317    0.593627
     14          6           0       -1.873135    1.314420   -0.534686
     15          6           0       -3.210458    1.603128   -0.771135
     16          6           0       -4.219289    0.646473   -0.541871
     17          6           0       -3.903261   -0.622038   -0.072530
     18          1           0        1.837889   -1.952775   -0.711872
     19          1           0        4.871275    1.039558   -0.131932
     20          1           0        3.136095    2.607407    0.732287
     21          1           0        0.064767   -2.667892    0.999903
     22          1           0       -2.442897   -2.896194    0.906632
     23          1           0       -1.104142    2.063703   -0.664055
     24          1           0       -3.488547    2.590045   -1.126363
     25          1           0       -5.256770    0.904479   -0.729003
     26          1           0       -4.676213   -1.363474    0.106427
 ---------------------------------------------------------------------

 SCF Done:  E(UB3LYP) =  -744.442556505     A.U. after   20 cycles

 The electronic state is 2-A.
 Alpha  occ. eigenvalues --  -19.07519 -19.07461 -14.35628 -10.21939 -10.21670
 Alpha  occ. eigenvalues --  -10.20646 -10.20337 -10.17755 -10.17484 -10.17221
 Alpha  occ. eigenvalues --  -10.17090 -10.17089 -10.16721 -10.16527 -10.16238
 Alpha  occ. eigenvalues --  -10.16157 -10.15819  -0.99806  -0.99384  -0.98098
 Alpha  occ. eigenvalues --   -0.84330  -0.82763  -0.79158  -0.74628  -0.73708
 Alpha  occ. eigenvalues --   -0.71435  -0.68043  -0.62699  -0.61720  -0.59417
 Alpha  occ. eigenvalues --   -0.57789  -0.54872  -0.53251  -0.48543  -0.47639
 Alpha  occ. eigenvalues --   -0.46922  -0.46520  -0.44588  -0.43286  -0.43103
 Alpha  occ. eigenvalues --   -0.42386  -0.40877  -0.40552  -0.40155  -0.39610
 Alpha  occ. eigenvalues --   -0.37551  -0.37079  -0.36005  -0.35753  -0.34104
 Alpha  occ. eigenvalues --   -0.33880  -0.29669  -0.27662  -0.25710  -0.24138
 Alpha  occ. eigenvalues --   -0.23667  -0.23001  -0.20677  -0.16003
 Alpha virt. eigenvalues --   -0.02711  -0.01206  -0.00266   0.00615   0.00810
 Alpha virt. eigenvalues --    0.01088   0.02009   0.02104   0.02245   0.03440
 Alpha virt. eigenvalues --    0.03724   0.04160   0.04710   0.05065   0.05822

  Beta  occ. eigenvalues --  -19.06808 -19.06780 -14.35617 -10.21801 -10.21540
  Beta  occ. eigenvalues --  -10.20647 -10.20312 -10.17633 -10.17484 -10.17212
  Beta  occ. eigenvalues --  -10.17104 -10.17091 -10.16721 -10.16526 -10.16130
  Beta  occ. eigenvalues --  -10.16044 -10.15731  -0.98599  -0.98175  -0.98036
  Beta  occ. eigenvalues --   -0.84320  -0.82276  -0.78945  -0.74471  -0.73692
  Beta  occ. eigenvalues --   -0.71321  -0.67026  -0.62634  -0.61457  -0.59363
  Beta  occ. eigenvalues --   -0.57468  -0.54765  -0.53078  -0.48480  -0.47566
  Beta  occ. eigenvalues --   -0.46694  -0.46180  -0.44356  -0.43076  -0.43068
  Beta  occ. eigenvalues --   -0.42317  -0.40748  -0.39904  -0.39529  -0.38394
  Beta  occ. eigenvalues --   -0.37036  -0.35941  -0.35556  -0.34412  -0.34061
  Beta  occ. eigenvalues --   -0.33686  -0.29149  -0.25187  -0.24716  -0.23497
  Beta  occ. eigenvalues --   -0.23095  -0.22862  -0.20292
  Beta virt. eigenvalues --   -0.08903  -0.02466  -0.00256  -0.00144   0.00637
  Beta virt. eigenvalues --    0.00823   0.01126   0.02097   0.02142   0.02974
  Beta virt. eigenvalues --    0.03530   0.04193   0.04374   0.04770   0.05372

 Mulliken charges and spin densities:
               1          2
     1  C   -1.133219   0.050943
     2  C    1.194273   0.109616
     3  C   -0.580640   0.019188
     4  C   -0.401052   0.132696
     5  C   -0.026877   0.080558
     6  C    0.064771   0.106621
     7  O   -0.461364   0.257425
     8  O   -0.521265   0.237685
     9  C    0.464153   0.020282
    10  C    1.210716  -0.053862
    11  C   -0.229376   0.024980
    12  C    0.071175  -0.010884
    13  N   -0.116582   0.003755
    14  C   -0.949654   0.041004
    15  C   -0.553813   0.004432
    16  C   -0.278365   0.000619
    17  C   -0.550917  -0.002135
    18  H    0.179305  -0.006917
    19  H    0.185091  -0.006656
    20  H    0.186644  -0.007507
    21  H    0.204682  -0.001824
    22  H    0.338866  -0.000148
    23  H    0.160809   0.000257
    24  H    0.183083  -0.000180
    25  H    0.179314   0.000064
    26  H    0.180243  -0.000013
 Sum of Mulliken charges =  -1.00000   1.00000

 Dipole moment (field-independent basis, Debye):
    X=            -12.3628    Y=             -3.8263    Z=              1.0765  Tot=             12.9861
 Quadrupole moment (field-independent basis, Debye-Ang):
   XX=           -146.6205   YY=           -104.7126   ZZ=           -110.5307
   XY=             23.3241   XZ=              7.9649   YZ=            -14.5345

 Normal termination of Gaussian 16 at Wed Jan 24 22:53:22 2024.
