 Q-Chem 5.4, Q-Chem, Inc., Pleasanton, CA (2021)
 Q-Chem 5.4.0 for Intel X86 EM64T Linux

User input:
--------------------------------------------------------------
$molecule
-2 1
C                  1.9166070000      3.5811730000      3.7581920000
C                  2.9718170000      3.5380780000      2.7726450000
C                  3.4456590000      2.3758600000      2.1924710000
C                  2.9284560000      1.0640550000      2.4984400000
C                  1.3874820000      2.2669320000      4.0545220000
C                  1.8686180000      1.0867190000      3.4569930000
O                  1.5054640000      4.6722120000      4.2838000000
O                  3.3821900000     -0.0129170000      1.9499660000
S                  0.1818800000      2.0882120000      5.3682380000
C                 -1.3729200000      2.7002970000      4.7461950000
C                 -2.5190980000      2.5229000000      5.5400170000
C                 -1.5039450000      3.3590910000      3.5153500000
C                 -2.7522550000      3.8140660000      3.0964440000
C                 -3.7627520000      2.9798670000      5.1133380000
C                 -3.8917660000      3.6299020000      3.8834780000
H                  3.4063550000      4.5010750000      2.5059940000
H                  4.2534120000      2.4219330000      1.4615250000
H                  1.4210050000      0.1344130000      3.7275650000
H                 -2.4291460000      2.0146390000      6.4969220000
H                 -0.6179430000      3.5158320000      2.9126540000
H                 -2.8345380000      4.3276940000      2.1414090000
H                 -4.6403980000      2.8209100000      5.7386500000
H                 -4.8638320000      3.9840700000      3.5486870000
$end
$rem
MAX_SCF_CYCLES=200
BASIS  =  6-311++G(d,p)
GUI  =  2
JOB_TYPE  =  SP
METHOD  =  B3LYP
SOLVENT_METHOD = COSMO
$end
$solvent
dielectric 37.219
opticaldielectric 1.43
$end

--------------------------------------------------------------

             Standard Nuclear Orientation (Angstroms)
    I     Atom           X                Y                Z
 ----------------------------------------------------------------
    1      C      -1.3650522728    -1.1808150013     0.6927265085
    2      C      -2.6440635090    -1.5629108935     0.1406747001
    3      C      -3.5107564535    -0.6885191744    -0.4887387192
    4      C      -3.2296684611     0.7139837636    -0.6782733591
    5      C      -1.0762163660     0.2228967193     0.4897945865
    6      C      -1.9587301294     1.1084618826    -0.1570278626
    7      O      -0.5883354753    -2.0116386908     1.2776294485
    8      O      -4.0495892386     1.5191694234    -1.2664679969
    9      S       0.3895086572     0.9290102267     1.2410073530
   10      C       1.7903138533     0.3838336594     0.2820934392
   11      C       3.0494244874     0.9333579552     0.5787591274
   12      C       1.6987480586    -0.5722654780    -0.7394968132
   13      C       2.8388528061    -0.9525673078    -1.4439782015
   14      C       4.1833687955     0.5483288614    -0.1307984692
   15      C       4.0882854436    -0.3994505208    -1.1527667329
   16      H      -2.9137277968    -2.6118759813     0.2600173483
   17      H      -4.4655317032    -1.0494151238    -0.8721810505
   18      H      -1.6733936945     2.1501713710    -0.2748318661
   19      H       3.1325607775     1.6745777979     1.3698149329
   20      H       0.7329647705    -1.0125728888    -0.9544428015
   21      H       2.7503084714    -1.6993984671    -2.2295220807
   22      H       5.1474805182     0.9960050076     0.1071502245
   23      H       4.9735603384    -0.6979079966    -1.7092231911
 ----------------------------------------------------------------

   19   -1010.8831024182      3.81e-06  Convergence criterion met
 Total energy in the final basis set =    -1010.8831024182
    6   -1011.1699861544      4.80e-06  Convergence criterion met
 Total energy in the final basis set =    -1011.1699861544

                    Orbital Energies (a.u.)
 --------------------------------------------------------------

 Alpha MOs
 -- Occupied --
-88.8341 -19.0257 -19.0233 -10.1986 -10.1823 -10.1758 -10.1716 -10.1704
-10.1701 -10.1662 -10.1658 -10.1593 -10.1316 -10.1305 -10.1299  -7.9201
 -5.8838  -5.8799  -5.8746  -0.9461  -0.9379  -0.8574  -0.7981  -0.7691
 -0.7429  -0.7226  -0.6745  -0.6435  -0.6020  -0.5858  -0.5579  -0.5293
 -0.5010  -0.4532  -0.4453  -0.4365  -0.4337  -0.4165  -0.4151  -0.3952
 -0.3750  -0.3688  -0.3628  -0.3584  -0.3410  -0.3385  -0.3300  -0.3222
 -0.3074  -0.2833  -0.2549  -0.2357  -0.2265  -0.2080  -0.2047  -0.1984
 -0.1268

          Ground-State Mulliken Net Atomic Charges

     Atom                 Charge (a.u.)
  ----------------------------------------
      1 C                    -0.625827
      2 C                    -0.264782
      3 C                    -0.046960
      4 C                    -0.568792
      5 C                     1.521735
      6 C                    -0.390217
      7 O                    -0.683102
      8 O                    -0.779745
      9 S                    -0.595332
     10 C                     0.679424
     11 C                    -0.400016
     12 C                    -0.038039
     13 C                    -0.403826
     14 C                    -0.533520
     15 C                    -0.387727
     16 H                     0.168308
     17 H                     0.156991
     18 H                     0.177379
     19 H                     0.206192
     20 H                     0.187420
     21 H                     0.221755
     22 H                     0.208589
     23 H                     0.190088
  ----------------------------------------
  Sum of atomic charges =    -2.000000

                    Cartesian Multipole Moments
 -----------------------------------------------------------------
    Charge (ESU x 10^10)
                -9.6064
    Dipole Moment (Debye)
         X      19.4548      Y       0.0614      Z      -1.2680
       Tot      19.4961
    Quadrupole Moments (Debye-Ang)
        XX    -172.2914     XY      22.1161     YY    -129.2115
        XZ     -19.0283     YZ      20.2845     ZZ    -118.8319

 Total job time:  119.64s(wall), 472.18s(cpu)
        *  Thank you very much for using Q-Chem.  Have a nice day.  *
