 Q-Chem 5.4, Q-Chem, Inc., Pleasanton, CA (2021)
 Q-Chem 5.4.0 for Intel X86 EM64T Linux

User input:
--------------------------------------------------------------
$molecule
0 1
C                 -1.0743710000      1.5710550000      1.0141940000
C                 -2.3931890000      0.9035660000      0.9207090000
C                 -2.7191880000     -0.0453960000      0.0224490000
C                 -1.6521990000     -0.4540800000     -0.9603910000
C                 -0.3206070000      0.2018430000     -0.8860520000
C                 -0.0386070000      1.1411940000      0.0232270000
Br                 1.6586090000      1.9796260000      0.1212870000
C                 -4.0968450000     -0.7105610000     -0.0404350000
C                 -4.7429910000     -0.4406610000     -1.4229250000
C                 -5.0381760000     -0.1553040000      1.0443210000
C                 -3.9495720000     -2.2367020000      0.1849460000
O                 -0.8610750000      2.4202130000      1.8561760000
O                 -1.8335390000     -1.3026450000     -1.8177300000
H                 -3.0952980000      1.2586910000      1.6636740000
H                  0.3989410000     -0.1379210000     -1.6205880000
H                 -4.8529710000      0.6334400000     -1.5990070000
H                 -5.7413430000     -0.8865710000     -1.4476820000
H                 -4.1561560000     -0.8698630000     -2.2334360000
H                 -5.2116520000      0.9181510000      0.9281310000
H                 -4.6565010000     -0.3375430000      2.0527830000
H                 -6.0069160000     -0.6541910000      0.9653710000
H                 -3.3459190000     -2.7030670000     -0.5919800000
H                 -4.9402550000     -2.6999170000      0.1752400000
H                 -3.4934210000     -2.4450070000      1.1572280000
$end

$rem
BASIS  =  6-311++G(d,p)
GUI  =  2
JOB_TYPE  =  SP
METHOD  =  B3LYP
SCF_CONVERGENCE  = 8
SOLVENT_METHOD = sm12
$end

$smx
solvent dimethylformamide
charges CM5
$end

--------------------------------------------------------------

             Standard Nuclear Orientation (Angstroms)
    I     Atom           X                Y                Z
 ----------------------------------------------------------------
    1      C      -1.0743710000     1.5710550000     1.0141940000
    2      C      -2.3931890000     0.9035660000     0.9207090000
    3      C      -2.7191880000    -0.0453960000     0.0224490000
    4      C      -1.6521990000    -0.4540800000    -0.9603910000
    5      C      -0.3206070000     0.2018430000    -0.8860520000
    6      C      -0.0386070000     1.1411940000     0.0232270000
    7      Br      1.6586090000     1.9796260000     0.1212870000
    8      C      -4.0968450000    -0.7105610000    -0.0404350000
    9      C      -4.7429910000    -0.4406610000    -1.4229250000
   10      C      -5.0381760000    -0.1553040000     1.0443210000
   11      C      -3.9495720000    -2.2367020000     0.1849460000
   12      O      -0.8610750000     2.4202130000     1.8561760000
   13      O      -1.8335390000    -1.3026450000    -1.8177300000
   14      H      -3.0952980000     1.2586910000     1.6636740000
   15      H       0.3989410000    -0.1379210000    -1.6205880000
   16      H      -4.8529710000     0.6334400000    -1.5990070000
   17      H      -5.7413430000    -0.8865710000    -1.4476820000
   18      H      -4.1561560000    -0.8698630000    -2.2334360000
   19      H      -5.2116520000     0.9181510000     0.9281310000
   20      H      -4.6565010000    -0.3375430000     2.0527830000
   21      H      -6.0069160000    -0.6541910000     0.9653710000
   22      H      -3.3459190000    -2.7030670000    -0.5919800000
   23      H      -4.9402550000    -2.6999170000     0.1752400000
   24      H      -3.4934210000    -2.4450070000     1.1572280000
 ----------------------------------------------------------------

   15   -3112.3985828723      9.83e-09  Convergence criterion met
 Total energy in the final basis set =    -3112.4113490355

                    Orbital Energies (a.u.)
 --------------------------------------------------------------

 Alpha MOs
 -- Occupied --
******** -62.5027 -56.3232 -56.3194 -56.3190 -19.1477 -19.1462 -10.2971
-10.2949 -10.2674 -10.2247 -10.2212 -10.2105 -10.2069 -10.1630 -10.1629
-10.1629  -8.7115  -6.5433  -6.5302  -6.5291  -2.6541  -2.6505  -2.6499
 -2.6393  -2.6393  -1.0813  -1.0782  -0.8865  -0.8529  -0.8081  -0.7667
 -0.7115  -0.6936  -0.6930  -0.6424  -0.6151  -0.5587  -0.5372  -0.5035
 -0.4872  -0.4726  -0.4653  -0.4536  -0.4471  -0.4451  -0.4326  -0.4277
 -0.4084  -0.3925  -0.3853  -0.3722  -0.3630  -0.3568  -0.3462  -0.3418
 -0.3090  -0.3050  -0.2954  -0.2820  -0.2817

          Ground-State Mulliken Net Atomic Charges

     Atom                 Charge (a.u.)
  ----------------------------------------
      1 C                    -1.407507
      2 C                    -0.100867
      3 C                     1.398994
      4 C                    -0.911601
      5 C                    -0.226513
      6 C                     0.838859
      7 Br                   -0.172384
      8 C                     0.533422
      9 C                    -0.713888
     10 C                    -0.056409
     11 C                    -0.713337
     12 O                    -0.253183
     13 O                    -0.250038
     14 H                     0.310293
     15 H                     0.315554
     16 H                     0.145324
     17 H                     0.186580
     18 H                     0.111810
     19 H                     0.160597
     20 H                     0.160675
     21 H                     0.200122
     22 H                     0.111564
     23 H                     0.186604
     24 H                     0.145329
  ----------------------------------------
  Sum of atomic charges =     0.000000

                    Cartesian Multipole Moments
 -----------------------------------------------------------------
    Charge (ESU x 10^10)
                 0.0000
    Dipole Moment (Debye)
         X      -2.2486      Y      -1.1975      Z      -0.2285
       Tot       2.5578
    Quadrupole Moments (Debye-Ang)
        XX     -76.0472     XY      -0.1479     YY     -99.0465
        XZ      -4.1644     YZ      -8.5538     ZZ     -97.1480

 Total job time:  422.40s(wall), 3119.19s(cpu)
        *  Thank you very much for using Q-Chem.  Have a nice day.  *
