 Gaussian 16, Revision A.03,
 Gaussian 16:  ES64L-G16RevA.03 25-Dec-2016

 --------------------------------------
 #P UB3LYP/6-311++G(d,p) nosym opt freq
 --------------------------------------

 --------
 Oxidized
 --------
 Symbolic Z-matrix:
 Charge =  0 Multiplicity = 1

 SCF Done:  E(UB3LYP) =  -3112.40091396     A.U. after   15 cycles
 Optimization completed.
    -- Stationary point found.
 Normal termination of Gaussian 16 at Sat Jan  6 05:39:20 2024.

 ----------------------------------------------------------------------
 #P Geom=AllCheck Guess=TCheck SCRF=Check GenChk UB3LYP/6-311++G(d,p) F
 req
 ----------------------------------------------------------------------

 Structure from the checkpoint file:  "004.chk"
 --------
 Oxidized
 --------
 Charge =  0 Multiplicity = 1

                          Input orientation:
 ---------------------------------------------------------------------
 Center     Atomic      Atomic             Coordinates (Angstroms)
 Number     Number       Type             X           Y           Z
 ---------------------------------------------------------------------
      1          6           0       -1.074371    1.571055    1.014194
      2          6           0       -2.393189    0.903566    0.920709
      3          6           0       -2.719188   -0.045396    0.022449
      4          6           0       -1.652199   -0.454080   -0.960391
      5          6           0       -0.320607    0.201843   -0.886052
      6          6           0       -0.038607    1.141194    0.023227
      7         35           0        1.658609    1.979626    0.121287
      8          6           0       -4.096845   -0.710561   -0.040435
      9          6           0       -4.742991   -0.440661   -1.422925
     10          6           0       -5.038176   -0.155304    1.044321
     11          6           0       -3.949572   -2.236702    0.184946
     12          8           0       -0.861075    2.420213    1.856176
     13          8           0       -1.833539   -1.302645   -1.817730
     14          1           0       -3.095298    1.258691    1.663674
     15          1           0        0.398941   -0.137921   -1.620588
     16          1           0       -4.852971    0.633440   -1.599007
     17          1           0       -5.741343   -0.886571   -1.447682
     18          1           0       -4.156156   -0.869863   -2.233436
     19          1           0       -5.211652    0.918151    0.928131
     20          1           0       -4.656501   -0.337543    2.052783
     21          1           0       -6.006916   -0.654191    0.965371
     22          1           0       -3.345919   -2.703067   -0.591980
     23          1           0       -4.940255   -2.699917    0.175240
     24          1           0       -3.493421   -2.445007    1.157228
 ---------------------------------------------------------------------

 SCF Done:  E(UB3LYP) =  -3112.40091396     A.U. after    1 cycles

 Alpha  occ. eigenvalues -- -482.85220 -62.50489 -56.32536 -56.32148 -56.32106
 Alpha  occ. eigenvalues --  -19.14969 -19.14924 -10.29914 -10.29838 -10.27081
 Alpha  occ. eigenvalues --  -10.23089 -10.22514 -10.21669 -10.21617 -10.17685
 Alpha  occ. eigenvalues --  -10.17107 -10.17105  -8.71455  -6.54632  -6.53333
 Alpha  occ. eigenvalues --   -6.53207  -2.65722  -2.65370  -2.65274  -2.64240
 Alpha  occ. eigenvalues --   -2.64239  -1.08312  -1.08099  -0.89081  -0.85927
 Alpha  occ. eigenvalues --   -0.81388  -0.77141  -0.71683  -0.70397  -0.70111
 Alpha  occ. eigenvalues --   -0.64760  -0.62090  -0.56549  -0.54141  -0.50876
 Alpha  occ. eigenvalues --   -0.49191  -0.47984  -0.46961  -0.45696  -0.45451
 Alpha  occ. eigenvalues --   -0.45423  -0.43469  -0.43203  -0.41367  -0.40080
 Alpha  occ. eigenvalues --   -0.39820  -0.38160  -0.37096  -0.36044  -0.35443
 Alpha  occ. eigenvalues --   -0.35105  -0.31088  -0.30991  -0.29693  -0.28563
 Alpha  occ. eigenvalues --   -0.28477
 Alpha virt. eigenvalues --   -0.14415  -0.04377  -0.02976  -0.01501  -0.01452
 Alpha virt. eigenvalues --    0.00082   0.00900   0.01142   0.01761   0.02930
 Alpha virt. eigenvalues --    0.03230   0.03533   0.04185   0.04315   0.05140

  Beta  occ. eigenvalues -- -482.85220 -62.50489 -56.32536 -56.32148 -56.32106
  Beta  occ. eigenvalues --  -19.14969 -19.14924 -10.29914 -10.29838 -10.27081
  Beta  occ. eigenvalues --  -10.23089 -10.22514 -10.21669 -10.21617 -10.17685
  Beta  occ. eigenvalues --  -10.17107 -10.17105  -8.71455  -6.54632  -6.53333
  Beta  occ. eigenvalues --   -6.53207  -2.65722  -2.65370  -2.65274  -2.64240
  Beta  occ. eigenvalues --   -2.64239  -1.08312  -1.08099  -0.89081  -0.85927
  Beta  occ. eigenvalues --   -0.81388  -0.77141  -0.71683  -0.70397  -0.70111
  Beta  occ. eigenvalues --   -0.64760  -0.62090  -0.56549  -0.54141  -0.50876
  Beta  occ. eigenvalues --   -0.49191  -0.47984  -0.46961  -0.45696  -0.45451
  Beta  occ. eigenvalues --   -0.45423  -0.43469  -0.43203  -0.41367  -0.40080
  Beta  occ. eigenvalues --   -0.39820  -0.38160  -0.37096  -0.36044  -0.35443
  Beta  occ. eigenvalues --   -0.35105  -0.31088  -0.30991  -0.29693  -0.28563
  Beta  occ. eigenvalues --   -0.28477
  Beta virt. eigenvalues --   -0.14415  -0.04377  -0.02976  -0.01501  -0.01452
  Beta virt. eigenvalues --    0.00082   0.00900   0.01142   0.01761   0.02930
  Beta virt. eigenvalues --    0.03230   0.03533   0.04185   0.04315   0.05140

 Mulliken charges and spin densities:
               1          2
     1  C   -0.862568   0.000000
     2  C   -0.337958  -0.000000
     3  C    1.137915  -0.000000
     4  C   -0.646293   0.000000
     5  C   -0.429325  -0.000000
     6  C    0.871822   0.000000
     7  Br  -0.050076  -0.000000
     8  C    0.513043   0.000000
     9  C   -0.655075   0.000000
    10  C   -0.452685  -0.000000
    11  C   -0.654709  -0.000000
    12  O   -0.162320   0.000000
    13  O   -0.189728   0.000000
    14  H    0.235986  -0.000000
    15  H    0.262400  -0.000000
    16  H    0.141037  -0.000000
    17  H    0.157740   0.000000
    18  H    0.188624   0.000000
    19  H    0.135273   0.000000
    20  H    0.135267  -0.000000
    21  H    0.174227  -0.000000
    22  H    0.188640   0.000000
    23  H    0.157736   0.000000
    24  H    0.141024  -0.000000
 Sum of Mulliken charges =  -0.00000  -0.00000

 Dipole moment (field-independent basis, Debye):
    X=             -1.8857    Y=             -1.0642    Z=             -0.2573  Tot=              2.1805
 Quadrupole moment (field-independent basis, Debye-Ang):
   XX=            -77.9674   YY=            -98.3308   ZZ=            -96.9357
   XY=              0.1257   XZ=             -3.3895   YZ=             -8.0326

  Exact polarizability: 169.294  38.929 142.683   7.402  32.578 128.974
 Approx polarizability: 219.769  56.915 252.705  26.639  92.037 234.621

                      1                      2                      3
                      A                      A                      A
 Frequencies --     38.1111                65.1228               133.8839
 Red. masses --      7.0295                 3.6296                 4.8000
 Frc consts  --      0.0060                 0.0091                 0.0507
 IR Inten    --      2.2235                 0.1331                 6.1144

                      4                      5                      6
                      A                      A                      A
 Frequencies --    140.3303               151.1020               206.5898
 Red. masses --      5.3509                 6.5277                 7.0017
 Frc consts  --      0.0621                 0.0878                 0.1761
 IR Inten    --      0.8099                 0.2284                 0.6226

                      7                      8                      9
                      A                      A                      A
 Frequencies --    211.2112               232.0303               256.2900
 Red. masses --      1.3097                 5.5697                 1.1103
 Frc consts  --      0.0344                 0.1767                 0.0430
 IR Inten    --      0.4070                 0.0480                 0.1521

                     10                     11                     12
                      A                      A                      A
 Frequencies --    266.6794               302.1424               327.6054
 Red. masses --      2.2823                 3.0397                 1.0573
 Frc consts  --      0.0956                 0.1635                 0.0669
 IR Inten    --      0.0310                 0.0587                 0.0159

                     13                     14                     15
                      A                      A                      A
 Frequencies --    338.5852               363.9342               384.2085
 Red. masses --      4.8448                 3.7041                 2.4542
 Frc consts  --      0.3272                 0.2891                 0.2135
 IR Inten    --      4.9352                 0.1815                 0.5332

                     16                     17                     18
                      A                      A                      A
 Frequencies --    413.7056               465.4195               478.0886
 Red. masses --      2.7154                 7.0212                 4.5805
 Frc consts  --      0.2738                 0.8961                 0.6168
 IR Inten    --      0.3299                 0.6494                24.6683

                     19                     20                     21
                      A                      A                      A
 Frequencies --    497.5215               572.7210               615.7153
 Red. masses --      3.8835                 6.0555                 4.1584
 Frc consts  --      0.5664                 1.1703                 0.9288
 IR Inten    --      0.0838                24.0476                 2.2276

                     22                     23                     24
                      A                      A                      A
 Frequencies --    667.8574               720.7259               787.5046
 Red. masses --      6.0979                 6.4985                 4.0079
 Frc consts  --      1.6025                 1.9889                 1.4644
 IR Inten    --      1.3429                 5.1474                 0.2358

                     25                     26                     27
                      A                      A                      A
 Frequencies --    800.3608               815.4300               891.6566
 Red. masses --      3.9192                 3.7006                 1.5126
 Frc consts  --      1.4792                 1.4498                 0.7086
 IR Inten    --      0.5306                28.4049                 1.4122

                     28                     29                     30
                      A                      A                      A
 Frequencies --    929.0761               930.2399               938.7015
 Red. masses --      1.7982                 4.5790                 1.7848
 Frc consts  --      0.9145                 2.3346                 0.9266
 IR Inten    --      5.6272                15.8060                 2.0022

                     31                     32                     33
                      A                      A                      A
 Frequencies --    941.1707               966.2992              1026.6931
 Red. masses --      1.4922                 1.1993                 2.3441
 Frc consts  --      0.7788                 0.6598                 1.4558
 IR Inten    --     31.5630                 0.0758               127.3504

                     34                     35                     36
                      A                      A                      A
 Frequencies --   1048.2709              1058.2764              1192.9180
 Red. masses --      1.3834                 1.6867                 3.3396
 Frc consts  --      0.8957                 1.1130                 2.8000
 IR Inten    --      0.0744                42.3720                92.2806

                     37                     38                     39
                      A                      A                      A
 Frequencies --   1215.8626              1217.0298              1240.6547
 Red. masses --      2.6629                 1.9757                 3.4177
 Frc consts  --      2.3194                 1.7242                 3.0994
 IR Inten    --      2.4215                11.4584                48.1767

                     40                     41                     42
                      A                      A                      A
 Frequencies --   1270.8155              1323.3429              1352.2216
 Red. masses --      2.1933                 2.3823                 1.9798
 Frc consts  --      2.0869                 2.4581                 2.1329
 IR Inten    --     15.3013                 6.0625                34.2151

                     43                     44                     45
                      A                      A                      A
 Frequencies --   1393.8669              1399.7093              1429.3658
 Red. masses --      1.1950                 1.2293                 1.2179
 Frc consts  --      1.3680                 1.4190                 1.4660
 IR Inten    --      9.2033                15.6232                 6.1302

                     46                     47                     48
                      A                      A                      A
 Frequencies --   1481.4146              1495.6026              1498.4635
 Red. masses --      1.0458                 1.0475                 1.0448
 Frc consts  --      1.3522                 1.3805                 1.3822
 IR Inten    --      0.0094                 0.9181                 0.2445

                     49                     50                     51
                      A                      A                      A
 Frequencies --   1504.0720              1512.7901              1529.2947
 Red. masses --      1.0531                 1.0486                 1.0600
 Frc consts  --      1.4037                 1.4139                 1.4606
 IR Inten    --     16.3462                 8.4255                17.5072

                     52                     53                     54
                      A                      A                      A
 Frequencies --   1629.3580              1668.3172              1710.1092
 Red. masses --      8.6594                 8.5244                11.4299
 Frc consts  --     13.5448                13.9789                19.6943
 IR Inten    --    153.4843                 5.2323               166.2411

                     55                     56                     57
                      A                      A                      A
 Frequencies --   1731.6048              3023.8507              3027.1003
 Red. masses --     12.0131                 1.0357                 1.0379
 Frc consts  --     21.2229                 5.5795                 5.6035
 IR Inten    --    264.2547                13.2200                35.4917

                     58                     59                     60
                      A                      A                      A
 Frequencies --   3032.2406              3083.9008              3085.4489
 Red. masses --      1.0387                 1.1023                 1.1017
 Frc consts  --      5.6268                 6.1766                 6.1794
 IR Inten    --     25.4277                 4.9898                18.7138

                     61                     62                     63
                      A                      A                      A
 Frequencies --   3090.4998              3096.8836              3134.8480
 Red. masses --      1.1023                 1.1005                 1.0986
 Frc consts  --      6.2030                 6.2184                 6.3612
 IR Inten    --     33.8549                52.6254                 0.0422

                     64                     65                     66
                      A                      A                      A
 Frequencies --   3137.4908              3200.9692              3205.6320
 Red. masses --      1.0980                 1.0933                 1.0905
 Frc consts  --      6.3680                 6.6001                 6.6022
 IR Inten    --     13.7082                 0.2404                 0.4114

 - Thermochemistry -
 -------------------
 Temperature   298.150 Kelvin.  Pressure   1.00000 Atm.
 Atom     1 has atomic number  6 and mass  12.00000

 Molecular mass:   241.99424 amu.
 Principal axes and moments of inertia in atomic units:
                           1         2         3
     Eigenvalues --  1289.026296243.162907128.97992
           X            0.88548  -0.34363  -0.31281
           Y            0.45862   0.53790   0.70734
           Z            0.07480   0.76979  -0.63389
 This molecule is an asymmetric top.
 Rotational symmetry number  1.
 Warning -- assumption of classical behavior for rotation
           may cause significant error
 Rotational temperatures (Kelvin)      0.06719     0.01387     0.01215
 Rotational constants (GHZ):           1.40008     0.28907     0.25316
 Zero-point vibrational energy     489864.4 (Joules/Mol)
                                  117.08041 (Kcal/Mol)
 Warning -- explicit consideration of  21 degrees of freedom as
           vibrations may cause significant error
 Vibrational temperatures:     54.83    93.70   192.63   201.90   217.40
          (Kelvin)            297.24   303.89   333.84   368.74   383.69
                              434.72   471.35   487.15   523.62   552.79
                              595.23   669.63   687.86   715.82   824.02
                              885.88   960.90  1036.96  1133.04  1151.54
                             1173.22  1282.89  1336.73  1338.41  1350.58
                             1354.13  1390.29  1477.18  1508.23  1522.62
                             1716.34  1749.36  1751.03  1785.03  1828.42
                             1904.00  1945.55  2005.46  2013.87  2056.54
                             2131.43  2151.84  2155.95  2164.02  2176.57
                             2200.31  2344.28  2400.34  2460.47  2491.39
                             4350.65  4355.32  4362.72  4437.05  4439.27
                             4446.54  4455.72  4510.35  4514.15  4605.48
                             4612.19

 Zero-point correction=                           0.186580 (Hartree/Particle)
 Thermal correction to Energy=                    0.199787
 Thermal correction to Enthalpy=                  0.200731
 Thermal correction to Gibbs Free Energy=         0.146267
 Sum of electronic and zero-point Energies=          -3112.214334
 Sum of electronic and thermal Energies=             -3112.201127
 Sum of electronic and thermal Enthalpies=           -3112.200183
 Sum of electronic and thermal Free Energies=        -3112.254646

                     E (Thermal)             CV                S
                      KCal/Mol        Cal/Mol-Kelvin    Cal/Mol-Kelvin
 Total                  125.368             49.412            114.629
 Electronic               0.000              0.000              0.000
 Translational            0.889              2.981             42.352
 Rotational               0.889              2.981             32.417
 Vibrational            123.591             43.450             39.859
 Vibration     1          0.594              1.982              5.355
 Vibration     2          0.597              1.971              4.296
 Vibration     3          0.613              1.919              2.889
 Vibration     4          0.615              1.913              2.799
 Vibration     5          0.619              1.901              2.658
 Vibration     6          0.641              1.830              2.074
 Vibration     7          0.643              1.824              2.033
 Vibration     8          0.653              1.792              1.863
 Vibration     9          0.666              1.752              1.687
 Vibration    10          0.672              1.734              1.618
 Vibration    11          0.694              1.670              1.405
 Vibration    12          0.711              1.620              1.272
 Vibration    13          0.719              1.598              1.219
 Vibration    14          0.737              1.547              1.105
 Vibration    15          0.753              1.504              1.023
 Vibration    16          0.777              1.440              0.914
 Vibration    17          0.823              1.327              0.750
 Vibration    18          0.835              1.299              0.715
 Vibration    19          0.853              1.256              0.664
 Vibration    20          0.929              1.090              0.499
 Vibration    21          0.975              0.999              0.423

 Optimization completed.
    -- Stationary point found.
 Normal termination of Gaussian 16 at Sat Jan  6 05:56:28 2024.
