 Gaussian 16, Revision A.03,
 Gaussian 16:  ES64L-G16RevA.03 25-Dec-2016

 ----------------------------------------------------------------
 #P UB3LYP/6-311++G(d,p) SCRF=(PCM,Solvent=n,n-DiMethylFormamide)
 ----------------------------------------------------------------

 ------------------
 Radical PCM in DMF
 ------------------
 Symbolic Z-matrix:
 Charge = -1 Multiplicity = 2

                         Standard orientation:
 ---------------------------------------------------------------------
 Center     Atomic      Atomic             Coordinates (Angstroms)
 Number     Number       Type             X           Y           Z
 ---------------------------------------------------------------------
      1          6           0       -4.321992    1.484601    0.000639
      2          6           0       -3.022351    0.713916    0.000252
      3          6           0       -1.812593    1.382714    0.000181
      4          6           0       -0.571455    0.710815   -0.000072
      5          6           0        0.667860    1.488709   -0.000232
      6          8           0        0.666657    2.746274   -0.000497
      7          6           0        1.909859    0.713434   -0.000116
      8          6           0        3.147796    1.394280   -0.000122
      9          6           0        4.344700    0.706559    0.000081
     10          6           0        4.344664   -0.706643    0.000254
     11          6           0        3.147721   -1.394292    0.000238
     12          6           0        1.909822   -0.713399    0.000055
     13          6           0        0.667813   -1.488709    0.000017
     14          8           0        0.666620   -2.746265    0.000118
     15          6           0       -0.571501   -0.710838   -0.000099
     16          6           0       -1.812652   -1.382699   -0.000212
     17          6           0       -3.022376   -0.713849   -0.000121
     18          6           0       -4.322031   -1.484593   -0.000430
     19          1           0       -4.131486    2.560102    0.001860
     20          1           0       -4.935842    1.254795   -0.879213
     21          1           0       -4.936484    1.252853    0.879522
     22          1           0       -1.782251    2.467403    0.000362
     23          1           0        3.117569    2.477959   -0.000283
     24          1           0        5.285696    1.249109    0.000085
     25          1           0        5.285645   -1.249219    0.000384
     26          1           0        3.117444   -2.477964    0.000331
     27          1           0       -1.782376   -2.467393   -0.000399
     28          1           0       -4.935592   -1.255194    0.879727
     29          1           0       -4.936756   -1.252468   -0.879034
     30          1           0       -4.131486   -2.560101   -0.002176
 ---------------------------------------------------------------------

 SCF Done:  E(UB3LYP) =  -767.749053527     A.U. after   17 cycles

 The electronic state is 2-A.
 Alpha  occ. eigenvalues --  -19.07326 -19.07325 -10.22088 -10.22087 -10.17851
 Alpha  occ. eigenvalues --  -10.17808 -10.17134 -10.17088 -10.17037 -10.16994
 Alpha  occ. eigenvalues --  -10.16820 -10.16820 -10.16760 -10.16716 -10.16317
 Alpha  occ. eigenvalues --  -10.16316 -10.16305 -10.16304  -1.00032  -0.99787
 Alpha  occ. eigenvalues --   -0.86156  -0.85152  -0.79472  -0.76299  -0.75163
 Alpha  occ. eigenvalues --   -0.74872  -0.70399  -0.68397  -0.65330  -0.61964
 Alpha  occ. eigenvalues --   -0.59764  -0.58488  -0.55376  -0.51850  -0.51454
 Alpha  occ. eigenvalues --   -0.47546  -0.46361  -0.44799  -0.43929  -0.43345
 Alpha  occ. eigenvalues --   -0.42185  -0.42071  -0.41643  -0.41575  -0.40974
 Alpha  occ. eigenvalues --   -0.39737  -0.39529  -0.38386  -0.37782  -0.37439
 Alpha  occ. eigenvalues --   -0.36523  -0.35791  -0.34015  -0.33864  -0.32774
 Alpha  occ. eigenvalues --   -0.32755  -0.26244  -0.25612  -0.24920  -0.24437
 Alpha  occ. eigenvalues --   -0.23762  -0.23456  -0.13854
 Alpha virt. eigenvalues --   -0.05026  -0.01719  -0.00513  -0.00110   0.00173
 Alpha virt. eigenvalues --    0.01147   0.01819   0.02084   0.03408   0.03818
 Alpha virt. eigenvalues --    0.03969   0.04093   0.04749   0.04797   0.05627

  Beta  occ. eigenvalues --  -19.06783 -19.06782 -10.21904 -10.21902 -10.17811
  Beta  occ. eigenvalues --  -10.17767 -10.17083 -10.17036 -10.16953 -10.16911
  Beta  occ. eigenvalues --  -10.16817 -10.16816 -10.16695 -10.16650 -10.16308
  Beta  occ. eigenvalues --  -10.16308 -10.16306 -10.16305  -0.99079  -0.98812
  Beta  occ. eigenvalues --   -0.85934  -0.85012  -0.79151  -0.76156  -0.74967
  Beta  occ. eigenvalues --   -0.74659  -0.70170  -0.68251  -0.64694  -0.61847
  Beta  occ. eigenvalues --   -0.59500  -0.58439  -0.55118  -0.51610  -0.51304
  Beta  occ. eigenvalues --   -0.47411  -0.46128  -0.44634  -0.43856  -0.43148
  Beta  occ. eigenvalues --   -0.42146  -0.42001  -0.41464  -0.40394  -0.40327
  Beta  occ. eigenvalues --   -0.39674  -0.39326  -0.38373  -0.37369  -0.36415
  Beta  occ. eigenvalues --   -0.35436  -0.35396  -0.33968  -0.33735  -0.32624
  Beta  occ. eigenvalues --   -0.31616  -0.25123  -0.24393  -0.24057  -0.23938
  Beta  occ. eigenvalues --   -0.23167  -0.22956
  Beta virt. eigenvalues --   -0.07986  -0.04086  -0.00704  -0.00503   0.00121
  Beta virt. eigenvalues --    0.00176   0.01153   0.01835   0.02080   0.03459
  Beta virt. eigenvalues --    0.03823   0.03979   0.04096   0.04964   0.05041

 Mulliken charges and spin densities:
               1          2
     1  C   -0.500604  -0.002484
     2  C    0.357794   0.036822
     3  C   -0.139477   0.024481
     4  C    0.005452   0.024458
     5  C   -0.561542   0.101658
     6  O   -0.464601   0.201881
     7  C    0.239713   0.044385
     8  C    0.039134   0.030385
     9  C   -0.429892   0.041439
    10  C   -0.429899   0.041463
    11  C    0.039183   0.030362
    12  C    0.239731   0.044403
    13  C   -0.561555   0.101646
    14  O   -0.464587   0.201871
    15  C    0.005414   0.024463
    16  C   -0.139528   0.024481
    17  C    0.357869   0.036816
    18  C   -0.500564  -0.002484
    19  H    0.172222   0.000164
    20  H    0.157977   0.001767
    21  H    0.157843   0.001764
    22  H    0.124511  -0.002118
    23  H    0.160411  -0.001223
    24  H    0.181020  -0.003376
    25  H    0.181020  -0.003377
    26  H    0.160409  -0.001222
    27  H    0.124506  -0.002118
    28  H    0.158011   0.001767
    29  H    0.157803   0.001762
    30  H    0.172227   0.000164
 Sum of Mulliken charges =  -1.00000   1.00000

 Dipole moment (field-independent basis, Debye):
    X=             -4.6733    Y=             -0.0002    Z=              0.0010  Tot=              4.6733
 Quadrupole moment (field-independent basis, Debye-Ang):
   XX=           -101.2165   YY=           -142.8532   ZZ=           -112.4770
   XY=             -0.0001   XZ=              0.0004   YZ=              0.0052

 Normal termination of Gaussian 16 at Sun Jan 14 01:13:54 2024.
