 Q-Chem 5.4, Q-Chem, Inc., Pleasanton, CA (2021)
 Q-Chem 5.4.0 for Intel X86 EM64T Linux

User input:
--------------------------------------------------------------
$molecule
-2 1
C                  1.4936790000      3.4548080000     -0.2752140000
C                  0.7754570000      3.1849060000     -1.4276440000
C                  0.1224800000      1.9384410000     -1.5639500000
C                  1.5911260000      2.5188220000      0.7759140000
C                  0.9361200000      1.2524630000      0.6374040000
C                  0.2094130000      1.0026810000     -0.5490880000
C                  2.3728850000      2.8772350000      1.9700150000
C                  2.3783110000      1.8453260000      2.9573480000
C                  1.7381090000      0.5771630000      2.8144760000
C                  0.9942530000      0.2105320000      1.6773110000
O                  2.9838470000      3.9950770000      2.0517550000
O                  0.3904370000     -0.9160410000      1.5217980000
S                  3.2921540000      2.1330310000      4.4453150000
O                  2.9151980000      3.3848400000      5.1398350000
O                  3.2823700000      0.8932360000      5.2676630000
C                  5.0269020000      2.3352430000      3.9442750000
C                  5.4811410000      3.5529990000      3.4211360000
C                  5.8977770000      1.2495970000      4.0795120000
C                  6.8171710000      3.6690080000      3.0405520000
C                  7.6990060000      2.5936000000      3.1803460000
C                  7.2313670000      1.3806730000      3.6999520000
H                  2.0090730000      4.3996940000     -0.1351650000
H                  0.7132300000      3.9259580000     -2.2222970000
H                 -0.4459510000      1.7173590000     -2.4660150000
H                 -0.2759880000      0.0340440000     -0.6179570000
H                  1.8064040000     -0.1316850000      3.6303020000
H                  4.7683050000      4.3549250000      3.2844390000
H                  5.5133010000      0.3232040000      4.4889350000
H                  7.1716890000      4.6084190000      2.6252430000
H                  8.7384860000      2.6952300000      2.8804630000
H                  7.9078910000      0.5374650000      3.8102330000
$end
$rem
MAX_SCF_CYCLES=200
BASIS  =  6-311++G(d,p)
GUI  =  2
JOB_TYPE  =  SP
METHOD  =  B3LYP
SOLVENT_METHOD = COSMO
$end
$solvent
dielectric 37.219
opticaldielectric 1.43
$end

--------------------------------------------------------------

             Standard Nuclear Orientation (Angstroms)
    I     Atom           X                Y                Z
 ----------------------------------------------------------------
    1      C      -2.7125150473     1.9785012830     0.5058352430
    2      C      -4.0156496279     2.2270090213     0.1097683235
    3      C      -4.7502711701     1.2097842522    -0.5415520610
    4      C      -2.0926356952     0.7312392116     0.2810626992
    5      C      -2.8324876695    -0.2988796531    -0.3847880181
    6      C      -4.1610179108    -0.0189716767    -0.7783820987
    7      C      -0.7041708123     0.5419000808     0.7302844410
    8      C      -0.2062982971    -0.7670882531     0.4503476998
    9      C      -0.9375767246    -1.7898570688    -0.2261759249
   10      C      -2.2622628844    -1.6264186680    -0.6726943943
   11      O      -0.0507938679     1.4893476968     1.2825238033
   12      O      -2.9568577032    -2.5311394680    -1.2701582768
   13      S       1.4587882684    -1.1344142927     0.9241486061
   14      O       1.7411170236    -0.8680008344     2.3527122106
   15      O       1.8186066334    -2.4876330830     0.4213830031
   16      C       2.5173028829     0.0004193356    -0.0208280314
   17      C       2.6853939721     1.3289565926     0.3910837315
   18      C       3.1519927953    -0.4731672847    -1.1733140301
   19      C       3.4993312656     2.1727933684    -0.3630541922
   20      C       4.1465297292     1.7076438755    -1.5112910120
   21      C       3.9664056435     0.3792608869    -1.9148036958
   22      H      -2.1170253170     2.7348908454     1.0071545640
   23      H      -4.4715513467     3.1970984701     0.2984048543
   24      H      -5.7762733384     1.3951908395    -0.8556480094
   25      H      -4.6918187961    -0.8237466849    -1.2775837753
   26      H      -0.4601286365    -2.7489022365    -0.3842184695
   27      H       2.1397779188     1.6740845544     1.2588949751
   28      H       3.0010242543    -1.5063573639    -1.4620695285
   29      H       3.6249019801     3.2065819751    -0.0529401533
   30      H       4.7787696166     2.3742160524    -2.0915766303
   31      H       4.4627119844     0.0082259184    -2.8074735233
 ----------------------------------------------------------------

   11   -1315.0296036382      5.48e-06  Convergence criterion met
 Total energy in the final basis set =    -1315.0296036382
    6   -1315.3010495596      3.17e-06  Convergence criterion met
 Total energy in the final basis set =    -1315.3010495596

                    Orbital Energies (a.u.)
 --------------------------------------------------------------

 Alpha MOs
 -- Occupied --
-89.0358 -19.1052 -19.1034 -19.0423 -19.0297 -10.2055 -10.1994 -10.1862
-10.1819 -10.1790 -10.1777 -10.1770 -10.1763 -10.1673 -10.1620 -10.1605
-10.1579 -10.1571 -10.1563 -10.1551 -10.1344  -8.0994  -6.0627  -6.0612
 -6.0599  -1.0928  -0.9884  -0.9659  -0.9472  -0.8633  -0.8403  -0.7933
 -0.7653  -0.7513  -0.7350  -0.7317  -0.6824  -0.6479  -0.6124  -0.6085
 -0.5960  -0.5708  -0.5451  -0.5263  -0.4960  -0.4904  -0.4716  -0.4659
 -0.4593  -0.4453  -0.4413  -0.4380  -0.4252  -0.4167  -0.4093  -0.3940
 -0.3910  -0.3797  -0.3776  -0.3700  -0.3677  -0.3459  -0.3418  -0.3361
 -0.3311  -0.3288  -0.3195  -0.3143  -0.2977  -0.2884  -0.2665  -0.2607
 -0.2450  -0.2403  -0.2328  -0.2190  -0.2101  -0.1347

          Ground-State Mulliken Net Atomic Charges

     Atom                 Charge (a.u.)
  ----------------------------------------
      1 C                     0.220677
      2 C                    -0.457202
      3 C                    -0.402300
      4 C                     0.190477
      5 C                     0.296015
      6 C                     0.015155
      7 C                    -0.470089
      8 C                    -0.037559
      9 C                    -0.184021
     10 C                    -0.504991
     11 O                    -0.544901
     12 O                    -0.727263
     13 S                     0.297379
     14 O                    -0.284604
     15 O                    -0.327927
     16 C                     0.087777
     17 C                    -0.246384
     18 C                     0.254338
     19 C                    -0.447753
     20 C                    -0.344511
     21 C                    -0.498534
     22 H                     0.163365
     23 H                     0.191930
     24 H                     0.195557
     25 H                     0.160583
     26 H                     0.214669
     27 H                     0.285787
     28 H                     0.254165
     29 H                     0.225624
     30 H                     0.203299
     31 H                     0.221241
  ----------------------------------------
  Sum of atomic charges =    -2.000000

                    Cartesian Multipole Moments
 -----------------------------------------------------------------
    Charge (ESU x 10^10)
                -9.6064
    Dipole Moment (Debye)
         X       9.0190      Y      11.5086      Z      -4.4161
       Tot      15.2739
    Quadrupole Moments (Debye-Ang)
        XX    -176.9471     XY     -13.1964     YY    -174.9723
        XZ     -27.2237     YZ      -9.9353     ZZ    -158.0737

 Total job time:  104.68s(wall), 796.76s(cpu)
        *  Thank you very much for using Q-Chem.  Have a nice day.  *
