 Q-Chem 5.4, Q-Chem, Inc., Pleasanton, CA (2021)
 Q-Chem 5.4.0 for Intel X86 EM64T Linux

User input:
--------------------------------------------------------------
$molecule
0 1
C                  5.7796220000     -5.1346740000      1.2384440000
C                  6.7912080000     -5.0417360000      0.2881690000
C                  6.7018600000     -4.1045330000     -0.7435530000
C                  4.6701670000     -4.2886020000      1.1619770000
C                  4.5809510000     -3.3459640000      0.1237320000
C                  5.6002080000     -3.2587600000     -0.8261560000
C                  3.5998260000     -4.4098800000      2.1945360000
C                  2.4353190000     -3.4697860000      2.0535930000
C                  2.3512420000     -2.5704210000      1.0621650000
C                  3.4033400000     -2.4370740000      0.0296750000
O                  3.6560000000     -5.2157990000      3.0991800000
O                  3.2891290000     -1.6056420000     -0.8556420000
H                  5.8310920000     -5.8548750000      2.0455470000
H                  7.6505920000     -5.6993640000      0.3500990000
H                  5.5107520000     -2.5249870000     -1.6177500000
Cl                 1.1916010000     -3.6114190000      3.2549950000
H                  7.4921210000     -4.0351390000     -1.4822010000
H                  1.5077570000     -1.8971600000      0.9691300000
$end
$rem
MAX_SCF_CYCLES=200
BASIS  =  6-311++G(d,p)
GUI  =  2
JOB_TYPE  =  SP
METHOD  =  B3LYP
SOLVENT_METHOD = PCM
$end
$pcm
theory = CPCM
$end
$solvent
dielectric 37.219
opticaldielectric 1.43
$end

--------------------------------------------------------------

             Standard Nuclear Orientation (Angstroms)
    I     Atom           X                Y                Z
 ----------------------------------------------------------------
    1      C       5.7796220000    -5.1346740000     1.2384440000
    2      C       6.7912080000    -5.0417360000     0.2881690000
    3      C       6.7018600000    -4.1045330000    -0.7435530000
    4      C       4.6701670000    -4.2886020000     1.1619770000
    5      C       4.5809510000    -3.3459640000     0.1237320000
    6      C       5.6002080000    -3.2587600000    -0.8261560000
    7      C       3.5998260000    -4.4098800000     2.1945360000
    8      C       2.4353190000    -3.4697860000     2.0535930000
    9      C       2.3512420000    -2.5704210000     1.0621650000
   10      C       3.4033400000    -2.4370740000     0.0296750000
   11      O       3.6560000000    -5.2157990000     3.0991800000
   12      O       3.2891290000    -1.6056420000    -0.8556420000
   13      H       5.8310920000    -5.8548750000     2.0455470000
   14      H       7.6505920000    -5.6993640000     0.3500990000
   15      H       5.5107520000    -2.5249870000    -1.6177500000
   16      Cl      1.1916010000    -3.6114190000     3.2549950000
   17      H       7.4921210000    -4.0351390000    -1.4822010000
   18      H       1.5077570000    -1.8971600000     0.9691300000
 ----------------------------------------------------------------

    9    -994.8908091248      4.66e-06  Convergence criterion met
 Total energy in the final basis set =     -994.8908091248

                    Orbital Energies (a.u.)
 --------------------------------------------------------------

 Alpha MOs
 -- Occupied --
******** -19.1489 -19.1430 -10.3013 -10.2933 -10.2759 -10.2205 -10.2154
-10.2131 -10.2019 -10.2011 -10.2002 -10.1996  -9.4933  -7.2580  -7.2484
 -7.2473  -1.0857  -1.0757  -0.9124  -0.8917  -0.8271  -0.7834  -0.7740
 -0.7054  -0.6567  -0.6403  -0.5972  -0.5572  -0.5381  -0.5124  -0.4921
 -0.4738  -0.4670  -0.4630  -0.4547  -0.4459  -0.4417  -0.4311  -0.3943
 -0.3876  -0.3739  -0.3739  -0.3396  -0.3014  -0.3013  -0.2890  -0.2828
 -0.2818

          Ground-State Mulliken Net Atomic Charges

     Atom                 Charge (a.u.)
  ----------------------------------------
      1 C                     0.053293
      2 C                    -0.401129
      3 C                    -0.394301
      4 C                     0.273260
      5 C                     0.339933
      6 C                     0.196777
      7 C                    -1.447956
      8 C                     1.057732
      9 C                     0.226354
     10 C                    -0.892269
     11 O                    -0.235401
     12 O                    -0.291154
     13 H                     0.195038
     14 H                     0.233889
     15 H                     0.198025
     16 Cl                    0.386842
     17 H                     0.230135
     18 H                     0.270931
  ----------------------------------------
  Sum of atomic charges =     0.000000

                    Cartesian Multipole Moments
 -----------------------------------------------------------------
    Charge (ESU x 10^10)
                 0.0000
    Dipole Moment (Debye)
         X       3.1708      Y      -0.7119      Z      -1.7974
       Tot       3.7137
    Quadrupole Moments (Debye-Ang)
        XX     -43.2987     XY     -19.7550     YY     -81.1425
        XZ      -8.7153     YZ      15.6903     ZZ     -93.0056

 Total job time:  20.26s(wall), 151.10s(cpu)
        *  Thank you very much for using Q-Chem.  Have a nice day.  *
