 Q-Chem 5.4, Q-Chem, Inc., Pleasanton, CA (2021)
 Q-Chem 5.4.0 for Intel X86 EM64T Linux

User input:
--------------------------------------------------------------
$molecule
0 1
C                 -3.15952000    1.79781100    0.42580200
C                 -4.18254000    1.42754900   -0.57451700
C                 -4.01513800    0.33146900   -1.31441000
C                 -2.78932900   -0.49690500   -1.17524400
C                 -1.93826200   -0.34651300    0.05616000
C                 -2.04075800    0.83559400    0.72510200
O                 -3.24847600    2.85799200    1.02531100
O                 -2.47454500   -1.21331900   -2.11249900
C                 -1.12981500    1.32631400    1.81668900
C                 -0.96579500   -1.48553100    0.48051000
C                  0.49952400   -1.05011100    0.27996300
C                  0.88422700   -0.46706800   -0.93563100
C                  1.49096500   -1.27895600    1.23963900
C                  2.82037900   -0.92683700    0.99895600
C                  2.20828400   -0.11391300   -1.17811400
C                  3.18518600   -0.34032500   -0.20881900
H                 -5.01771300    2.10942000   -0.68785300
H                 -4.68880500    0.03785000   -2.11176100
H                 -1.61181800    1.24071000    2.79621400
H                 -0.94099800    2.39110100    1.66866100
H                 -0.18246600    0.79660900    1.83809600
H                  0.14094300   -0.29532600   -1.70631800
H                  1.23815600   -1.73016800    2.19095700
H                  3.56847000   -1.11206400    1.76206200
H                  2.47758200    0.33706800   -2.12689900
C                 -1.30328000   -1.84895300    1.95098100
H                 -2.36147300   -2.11125800    2.02401600
H                 -0.73096200   -2.72431200    2.26512500
H                 -1.10737200   -1.04517800    2.65783300
C                 -1.14708500   -2.81154000   -0.31179600
H                 -2.17837000   -3.17057900   -0.25842300
H                 -0.87329500   -2.71967400   -1.35791500
H                 -0.50376900   -3.56420200    0.15091300
H                  4.21685600   -0.06440900   -0.39519500
$end

$rem
BASIS  =  6-311++G(d,p)
GUI  =  2
JOB_TYPE  =  SP
METHOD  =  B3LYP
SCF_CONVERGENCE  = 8
SOLVENT_METHOD = sm12
$end

$smx
solvent dimethylformamide
charges CM5
$end

--------------------------------------------------------------

             Standard Nuclear Orientation (Angstroms)
    I     Atom           X                Y                Z
 ----------------------------------------------------------------
    1      C      -3.1595200000     1.7978110000     0.4258020000
    2      C      -4.1825400000     1.4275490000    -0.5745170000
    3      C      -4.0151380000     0.3314690000    -1.3144100000
    4      C      -2.7893290000    -0.4969050000    -1.1752440000
    5      C      -1.9382620000    -0.3465130000     0.0561600000
    6      C      -2.0407580000     0.8355940000     0.7251020000
    7      O      -3.2484760000     2.8579920000     1.0253110000
    8      O      -2.4745450000    -1.2133190000    -2.1124990000
    9      C      -1.1298150000     1.3263140000     1.8166890000
   10      C      -0.9657950000    -1.4855310000     0.4805100000
   11      C       0.4995240000    -1.0501110000     0.2799630000
   12      C       0.8842270000    -0.4670680000    -0.9356310000
   13      C       1.4909650000    -1.2789560000     1.2396390000
   14      C       2.8203790000    -0.9268370000     0.9989560000
   15      C       2.2082840000    -0.1139130000    -1.1781140000
   16      C       3.1851860000    -0.3403250000    -0.2088190000
   17      H      -5.0177130000     2.1094200000    -0.6878530000
   18      H      -4.6888050000     0.0378500000    -2.1117610000
   19      H      -1.6118180000     1.2407100000     2.7962140000
   20      H      -0.9409980000     2.3911010000     1.6686610000
   21      H      -0.1824660000     0.7966090000     1.8380960000
   22      H       0.1409430000    -0.2953260000    -1.7063180000
   23      H       1.2381560000    -1.7301680000     2.1909570000
   24      H       3.5684700000    -1.1120640000     1.7620620000
   25      H       2.4775820000     0.3370680000    -2.1268990000
   26      C      -1.3032800000    -1.8489530000     1.9509810000
   27      H      -2.3614730000    -2.1112580000     2.0240160000
   28      H      -0.7309620000    -2.7243120000     2.2651250000
   29      H      -1.1073720000    -1.0451780000     2.6578330000
   30      C      -1.1470850000    -2.8115400000    -0.3117960000
   31      H      -2.1783700000    -3.1705790000    -0.2584230000
   32      H      -0.8732950000    -2.7196740000    -1.3579150000
   33      H      -0.5037690000    -3.5642020000     0.1509130000
   34      H       4.2168560000    -0.0644090000    -0.3951950000
 ----------------------------------------------------------------

   15    -769.9512670724      4.27e-09  Convergence criterion met
 Total energy in the final basis set =     -769.9682786890

                    Orbital Energies (a.u.)
 --------------------------------------------------------------

 Alpha MOs
 -- Occupied --
-19.1340 -19.1338 -10.2828 -10.2786 -10.2159 -10.2146 -10.2137 -10.2062
-10.2039 -10.1936 -10.1825 -10.1822 -10.1805 -10.1803 -10.1802 -10.1699
-10.1649 -10.1602  -1.0676  -1.0648  -0.8783  -0.8601  -0.8261  -0.7915
 -0.7558  -0.7446  -0.7229  -0.6908  -0.6841  -0.6409  -0.6159  -0.6096
 -0.5884  -0.5626  -0.5268  -0.5236  -0.4973  -0.4838  -0.4670  -0.4624
 -0.4577  -0.4512  -0.4473  -0.4348  -0.4312  -0.4289  -0.4183  -0.4096
 -0.4041  -0.3971  -0.3921  -0.3860  -0.3787  -0.3733  -0.3648  -0.3512
 -0.3437  -0.3385  -0.3061  -0.2847  -0.2788  -0.2689  -0.2644  -0.2533

          Ground-State Mulliken Net Atomic Charges

     Atom                 Charge (a.u.)
  ----------------------------------------
      1 C                    -1.084516
      2 C                     0.559798
      3 C                     0.485169
      4 C                    -0.933533
      5 C                     0.781786
      6 C                     0.230217
      7 O                    -0.304787
      8 O                    -0.276120
      9 C                    -0.448705
     10 C                     0.347766
     11 C                     0.390615
     12 C                    -0.963784
     13 C                    -0.114837
     14 C                    -0.412736
     15 C                    -0.802794
     16 C                    -0.440869
     17 H                     0.320755
     18 H                     0.341452
     19 H                     0.243891
     20 H                     0.150940
     21 H                     0.172986
     22 H                     0.114563
     23 H                     0.238870
     24 H                     0.269484
     25 H                     0.251600
     26 C                     0.212892
     27 H                     0.196764
     28 H                     0.182715
     29 H                     0.234125
     30 C                    -0.586098
     31 H                     0.163863
     32 H                     0.098199
     33 H                     0.148590
     34 H                     0.231739
  ----------------------------------------
  Sum of atomic charges =     0.000000

                    Cartesian Multipole Moments
 -----------------------------------------------------------------
    Charge (ESU x 10^10)
                 0.0000
    Dipole Moment (Debye)
         X      -0.1449      Y      -1.1920      Z       1.2099
       Tot       1.7047
    Quadrupole Moments (Debye-Ang)
        XX     -96.6369     XY       4.6620     YY    -118.0868
        XZ       3.4501     YZ     -11.0126     ZZ    -107.5783

 Total job time:  1274.52s(wall), 9966.71s(cpu)
        *  Thank you very much for using Q-Chem.  Have a nice day.  *
