 Gaussian 16, Revision A.03,
 Gaussian 16:  ES64L-G16RevA.03 25-Dec-2016

 --------------------------------------
 #P UB3LYP/6-311++G(d,p) nosym opt freq
 --------------------------------------

 --------
 Oxidized
 --------
 Symbolic Z-matrix:
 Charge =  0 Multiplicity = 1

 SCF Done:  E(UB3LYP) =  -769.952397636     A.U. after   16 cycles
 SCF Done:  E(UB3LYP) =  -769.952397604     A.U. after   10 cycles
 SCF Done:  E(UB3LYP) =  -769.952397596     A.U. after   10 cycles
 SCF Done:  E(UB3LYP) =  -769.952397643     A.U. after   10 cycles
 Optimization completed.
    -- Stationary point found.
 Normal termination of Gaussian 16 at Sat Mar  2 16:09:24 2024.

 ----------------------------------------------------------------------
 #P Geom=AllCheck Guess=TCheck SCRF=Check GenChk UB3LYP/6-311++G(d,p) F
 req
 ----------------------------------------------------------------------

 Structure from the checkpoint file:  "036.chk"
 --------
 Oxidized
 --------
 Charge =  0 Multiplicity = 1

                          Input orientation:
 ---------------------------------------------------------------------
 Center     Atomic      Atomic             Coordinates (Angstroms)
 Number     Number       Type             X           Y           Z
 ---------------------------------------------------------------------
      1          6           0       -3.159520    1.797811    0.425802
      2          6           0       -4.182540    1.427549   -0.574517
      3          6           0       -4.015138    0.331469   -1.314410
      4          6           0       -2.789329   -0.496905   -1.175244
      5          6           0       -1.938262   -0.346513    0.056160
      6          6           0       -2.040758    0.835594    0.725102
      7          8           0       -3.248476    2.857992    1.025311
      8          8           0       -2.474545   -1.213319   -2.112499
      9          6           0       -1.129815    1.326314    1.816689
     10          6           0       -0.965795   -1.485531    0.480510
     11          6           0        0.499524   -1.050111    0.279963
     12          6           0        0.884227   -0.467068   -0.935631
     13          6           0        1.490965   -1.278956    1.239639
     14          6           0        2.820379   -0.926837    0.998956
     15          6           0        2.208284   -0.113913   -1.178114
     16          6           0        3.185186   -0.340325   -0.208819
     17          1           0       -5.017713    2.109420   -0.687853
     18          1           0       -4.688805    0.037850   -2.111761
     19          1           0       -1.611818    1.240710    2.796214
     20          1           0       -0.940998    2.391101    1.668661
     21          1           0       -0.182466    0.796609    1.838096
     22          1           0        0.140943   -0.295326   -1.706318
     23          1           0        1.238156   -1.730168    2.190957
     24          1           0        3.568470   -1.112064    1.762062
     25          1           0        2.477582    0.337068   -2.126899
     26          6           0       -1.303280   -1.848953    1.950981
     27          1           0       -2.361473   -2.111258    2.024016
     28          1           0       -0.730962   -2.724312    2.265125
     29          1           0       -1.107372   -1.045178    2.657833
     30          6           0       -1.147085   -2.811540   -0.311796
     31          1           0       -2.178370   -3.170579   -0.258423
     32          1           0       -0.873295   -2.719674   -1.357915
     33          1           0       -0.503769   -3.564202    0.150913
     34          1           0        4.216856   -0.064409   -0.395195
 ---------------------------------------------------------------------

 SCF Done:  E(UB3LYP) =  -769.952397643     A.U. after    1 cycles

 Alpha  occ. eigenvalues --  -19.13734 -19.13647 -10.28656 -10.28170 -10.21989
 Alpha  occ. eigenvalues --  -10.21873 -10.21773 -10.21445 -10.21223 -10.19353
 Alpha  occ. eigenvalues --  -10.18202 -10.18111 -10.18083 -10.17963 -10.17858
 Alpha  occ. eigenvalues --  -10.17554 -10.17396 -10.16213  -1.07067  -1.06722
 Alpha  occ. eigenvalues --   -0.88083  -0.86292  -0.83045  -0.79609  -0.75552
 Alpha  occ. eigenvalues --   -0.74585  -0.72799  -0.69589  -0.68989  -0.64481
 Alpha  occ. eigenvalues --   -0.61747  -0.61073  -0.59365  -0.56525  -0.52949
 Alpha  occ. eigenvalues --   -0.52725  -0.50372  -0.48786  -0.46811  -0.46541
 Alpha  occ. eigenvalues --   -0.46036  -0.45617  -0.45031  -0.43900  -0.43489
 Alpha  occ. eigenvalues --   -0.43195  -0.42306  -0.41346  -0.40677  -0.40134
 Alpha  occ. eigenvalues --   -0.39732  -0.39024  -0.38329  -0.37529  -0.36616
 Alpha  occ. eigenvalues --   -0.35475  -0.34557  -0.34102  -0.31209  -0.28684
 Alpha  occ. eigenvalues --   -0.28251  -0.27165  -0.26284  -0.25290
 Alpha virt. eigenvalues --   -0.12916  -0.03310  -0.02250  -0.02038  -0.01228
 Alpha virt. eigenvalues --   -0.01020  -0.00167   0.00266   0.00925   0.01226
 Alpha virt. eigenvalues --    0.02153   0.02602   0.02724   0.03281   0.03901

  Beta  occ. eigenvalues --  -19.13734 -19.13647 -10.28656 -10.28170 -10.21989
  Beta  occ. eigenvalues --  -10.21873 -10.21773 -10.21445 -10.21223 -10.19353
  Beta  occ. eigenvalues --  -10.18202 -10.18111 -10.18083 -10.17963 -10.17858
  Beta  occ. eigenvalues --  -10.17554 -10.17396 -10.16213  -1.07067  -1.06722
  Beta  occ. eigenvalues --   -0.88083  -0.86292  -0.83045  -0.79609  -0.75552
  Beta  occ. eigenvalues --   -0.74585  -0.72799  -0.69589  -0.68989  -0.64481
  Beta  occ. eigenvalues --   -0.61747  -0.61073  -0.59365  -0.56525  -0.52949
  Beta  occ. eigenvalues --   -0.52725  -0.50372  -0.48786  -0.46811  -0.46541
  Beta  occ. eigenvalues --   -0.46036  -0.45617  -0.45031  -0.43900  -0.43489
  Beta  occ. eigenvalues --   -0.43195  -0.42306  -0.41346  -0.40677  -0.40134
  Beta  occ. eigenvalues --   -0.39732  -0.39024  -0.38329  -0.37529  -0.36616
  Beta  occ. eigenvalues --   -0.35475  -0.34557  -0.34102  -0.31209  -0.28684
  Beta  occ. eigenvalues --   -0.28251  -0.27165  -0.26284  -0.25290
  Beta virt. eigenvalues --   -0.12916  -0.03310  -0.02250  -0.02038  -0.01228
  Beta virt. eigenvalues --   -0.01020  -0.00167   0.00266   0.00925   0.01226
  Beta virt. eigenvalues --    0.02153   0.02602   0.02724   0.03281   0.03901

 Mulliken charges and spin densities:
               1          2
     1  C   -0.609805   0.000000
     2  C    0.128183  -0.000000
     3  C   -0.152409  -0.000000
     4  C   -0.513720   0.000000
     5  C    0.827848   0.000000
     6  C    0.349391   0.000000
     7  O   -0.209680  -0.000000
     8  O   -0.171747  -0.000000
     9  C   -0.560502  -0.000000
    10  C    0.078225  -0.000000
    11  C    0.662281   0.000000
    12  C   -0.414742   0.000000
    13  C   -0.161187  -0.000000
    14  C   -0.324965   0.000000
    15  C   -0.464628   0.000000
    16  C   -0.319716  -0.000000
    17  H    0.221900  -0.000000
    18  H    0.236275  -0.000000
    19  H    0.211053   0.000000
    20  H    0.198759  -0.000000
    21  H    0.144382  -0.000000
    22  H    0.183072  -0.000000
    23  H    0.146041  -0.000000
    24  H    0.184409   0.000000
    25  H    0.184108   0.000000
    26  C   -0.487569  -0.000000
    27  H    0.171184   0.000000
    28  H    0.142715   0.000000
    29  H    0.151260  -0.000000
    30  C   -0.477037  -0.000000
    31  H    0.157504   0.000000
    32  H    0.193111  -0.000000
    33  H    0.144693  -0.000000
    34  H    0.151313  -0.000000
 Sum of Mulliken charges =  -0.00000   0.00000

 Dipole moment (field-independent basis, Debye):
    X=              0.1145    Y=             -1.0714    Z=              0.9701  Tot=              1.4498
 Quadrupole moment (field-independent basis, Debye-Ang):
   XX=            -98.5556   YY=           -117.5884   ZZ=           -108.1415
   XY=              4.5923   XZ=              2.6873   YZ=             -9.9191

  Exact polarizability: 210.589 -15.323 181.921   7.873  14.613 175.535
 Approx polarizability: 288.521 -14.649 321.084   4.663  54.462 314.221

                      1                      2                      3
                      A                      A                      A
 Frequencies --     27.6004                50.3103                59.3965
 Red. masses --      5.6381                 4.3249                 4.3911
 Frc consts  --      0.0025                 0.0064                 0.0091
 IR Inten    --      0.2890                 0.0902                 0.8089

                      4                      5                      6
                      A                      A                      A
 Frequencies --     71.8687                97.6806               160.3393
 Red. masses --      8.0062                 3.8465                 1.9031
 Frc consts  --      0.0244                 0.0216                 0.0288
 IR Inten    --      9.2025                 0.1776                 0.5723

                      7                      8                      9
                      A                      A                      A
 Frequencies --    197.8924               224.8265               230.6894
 Red. masses --      1.5075                 3.3539                 3.1481
 Frc consts  --      0.0348                 0.0999                 0.0987
 IR Inten    --      0.6830                 0.7176                 0.8795

                     10                     11                     12
                      A                      A                      A
 Frequencies --    251.4700               258.0692               269.1681
 Red. masses --      4.2844                 3.0517                 1.4668
 Frc consts  --      0.1596                 0.1197                 0.0626
 IR Inten    --      0.5107                 0.6531                 0.1684

                     13                     14                     15
                      A                      A                      A
 Frequencies --    292.0554               318.5273               332.6754
 Red. masses --      2.1287                 2.4327                 1.6711
 Frc consts  --      0.1070                 0.1454                 0.1090
 IR Inten    --      0.5300                 0.6555                 0.3058

                     16                     17                     18
                      A                      A                      A
 Frequencies --    359.5204               378.5156               413.9535
 Red. masses --      2.7519                 2.5316                 2.8902
 Frc consts  --      0.2096                 0.2137                 0.2918
 IR Inten    --      1.5874                 1.2049                 0.2890

                     19                     20                     21
                      A                      A                      A
 Frequencies --    417.7117               429.5388               453.2838
 Red. masses --      4.4560                 4.1871                 6.6557
 Frc consts  --      0.4581                 0.4552                 0.8057
 IR Inten    --      8.9007                 8.9922                 3.2221

                     22                     23                     24
                      A                      A                      A
 Frequencies --    488.4728               507.8363               551.0294
 Red. masses --      3.0812                 5.5310                 3.5693
 Frc consts  --      0.4332                 0.8404                 0.6385
 IR Inten    --      2.1433                 3.7419                15.9762

                     25                     26                     27
                      A                      A                      A
 Frequencies --    575.8797               612.7632               632.9880
 Red. masses --      3.0446                 3.3690                 5.6817
 Frc consts  --      0.5949                 0.7453                 1.3413
 IR Inten    --      1.0422                 2.0866                 0.3863

                     28                     29                     30
                      A                      A                      A
 Frequencies --    640.2303               650.7767               715.0850
 Red. masses --      4.3344                 3.6950                 1.6048
 Frc consts  --      1.0468                 0.9220                 0.4835
 IR Inten    --      2.5275                 1.0578                38.6492

                     31                     32                     33
                      A                      A                      A
 Frequencies --    721.9663               771.2993               783.2464
 Red. masses --      5.3997                 3.4202                 2.4179
 Frc consts  --      1.6583                 1.1988                 0.8740
 IR Inten    --     11.9963                19.1308                 9.3011

                     34                     35                     36
                      A                      A                      A
 Frequencies --    814.4700               826.1396               855.8512
 Red. masses --      4.3024                 3.1575                 2.1634
 Frc consts  --      1.6815                 1.2697                 0.9337
 IR Inten    --      6.7852                 1.9137                42.7061

                     37                     38                     39
                      A                      A                      A
 Frequencies --    856.9171               920.4694               938.3385
 Red. masses --      1.2574                 1.7613                 2.0909
 Frc consts  --      0.5440                 0.8792                 1.0847
 IR Inten    --      0.7536                 5.0532                 2.8718

                     40                     41                     42
                      A                      A                      A
 Frequencies --    946.3455               968.4389               988.2375
 Red. masses --      1.5699                 3.1273                 1.3746
 Frc consts  --      0.8284                 1.7281                 0.7910
 IR Inten    --      0.7518                21.8501                 0.0012

                     43                     44                     45
                      A                      A                      A
 Frequencies --   1005.3517              1015.7423              1016.4373
 Red. masses --      1.2971                 1.2850                 5.5610
 Frc consts  --      0.7724                 0.7811                 3.3850
 IR Inten    --      0.0144                 0.3393                 0.3213

                     46                     47                     48
                      A                      A                      A
 Frequencies --   1031.5049              1048.7950              1050.6041
 Red. masses --      1.3936                 1.7064                 2.1137
 Frc consts  --      0.8736                 1.1059                 1.3746
 IR Inten    --     10.9341                 5.3340                11.8562

                     49                     50                     51
                      A                      A                      A
 Frequencies --   1057.2293              1100.2802              1113.9189
 Red. masses --      1.9854                 1.7298                 1.5548
 Frc consts  --      1.3075                 1.2338                 1.1366
 IR Inten    --     21.2943                 3.0939                31.6486

                     52                     53                     54
                      A                      A                      A
 Frequencies --   1123.0811              1134.9975              1160.3995
 Red. masses --      2.0204                 2.4478                 2.8887
 Frc consts  --      1.5015                 1.8579                 2.2917
 IR Inten    --     16.2708                 4.7824                 1.9566

                     55                     56                     57
                      A                      A                      A
 Frequencies --   1183.0918              1202.7348              1212.6218
 Red. masses --      1.1092                 2.2765                 1.1438
 Frc consts  --      0.9148                 1.9403                 0.9909
 IR Inten    --      0.0088                 6.5855                 1.7795

                     58                     59                     60
                      A                      A                      A
 Frequencies --   1244.3138              1283.2782              1301.1079
 Red. masses --      3.2498                 3.5098                 3.5385
 Frc consts  --      2.9646                 3.4054                 3.5294
 IR Inten    --      7.2790               122.9485                56.1455

                     61                     62                     63
                      A                      A                      A
 Frequencies --   1323.2014              1359.9229              1385.9459
 Red. masses --      4.9171                 1.4393                 1.9205
 Frc consts  --      5.0724                 1.5683                 2.1734
 IR Inten    --      0.8156                 0.4050                 1.8525

                     64                     65                     66
                      A                      A                      A
 Frequencies --   1404.1210              1414.4655              1429.9962
 Red. masses --      1.1995                 1.2361                 1.2026
 Frc consts  --      1.3933                 1.4570                 1.4489
 IR Inten    --      7.7520                19.2449                13.5529

                     67                     68                     69
                      A                      A                      A
 Frequencies --   1474.0531              1476.4751              1483.5584
 Red. masses --      2.0096                 1.1215                 1.0607
 Frc consts  --      2.5726                 1.4404                 1.3755
 IR Inten    --      6.6712                 4.9195                 1.9387

                     70                     71                     72
                      A                      A                      A
 Frequencies --   1491.0268              1493.5752              1511.9113
 Red. masses --      1.0648                 1.0488                 1.0609
 Frc consts  --      1.3947                 1.3785                 1.4288
 IR Inten    --      7.2704                 4.0194                13.8625

                     73                     74                     75
                      A                      A                      A
 Frequencies --   1520.0394              1526.3362              1610.1514
 Red. masses --      1.0645                 2.0198                 7.0620
 Frc consts  --      1.4491                 2.7724                10.7873
 IR Inten    --      7.8790                20.3249                32.1504

                     76                     77                     78
                      A                      A                      A
 Frequencies --   1618.9186              1640.1607              1684.6502
 Red. masses --      5.4054                 5.4497                 9.0236
 Frc consts  --      8.3469                 8.6376                15.0887
 IR Inten    --      1.2376                 8.2213                11.6522

                     79                     80                     81
                      A                      A                      A
 Frequencies --   1710.8110              1716.7268              3034.7202
 Red. masses --     11.3008                 9.6507                 1.0405
 Frc consts  --     19.4878                16.7576                 5.6456
 IR Inten    --    337.5213               100.3166                17.1920

                     82                     83                     84
                      A                      A                      A
 Frequencies --   3035.7849              3045.6208              3089.5989
 Red. masses --      1.0487                 1.0390                 1.1025
 Frc consts  --      5.6944                 5.6783                 6.2004
 IR Inten    --      6.1144                33.2875                11.8270

                     85                     86                     87
                      A                      A                      A
 Frequencies --   3094.2841              3100.4331              3140.9197
 Red. masses --      1.0888                 1.1011                 1.0980
 Frc consts  --      6.1419                 6.2364                 6.3820
 IR Inten    --      4.5739                52.0932                13.1056

                     88                     89                     90
                      A                      A                      A
 Frequencies --   3159.6224              3166.5837              3167.0283
 Red. masses --      1.0851                 1.0905                 1.0968
 Frc consts  --      6.3825                 6.4425                 6.4814
 IR Inten    --      1.4603                 5.7551                 3.6425

                     91                     92                     93
                      A                      A                      A
 Frequencies --   3168.1363              3176.2734              3177.3243
 Red. masses --      1.0948                 1.0868                 1.0920
 Frc consts  --      6.4742                 6.4603                 6.4951
 IR Inten    --      2.9729                 1.1610                13.3795

                     94                     95                     96
                      A                      A                      A
 Frequencies --   3186.0302              3192.9827              3195.4649
 Red. masses --      1.0946                 1.0948                 1.1007
 Frc consts  --      6.5467                 6.5761                 6.6218
 IR Inten    --     21.3845                 9.4795                 3.8397

 - Thermochemistry -
 -------------------
 Temperature   298.150 Kelvin.  Pressure   1.00000 Atm.
 Atom     1 has atomic number  6 and mass  12.00000

 Molecular mass:   240.11503 amu.
 Principal axes and moments of inertia in atomic units:
                           1         2         3
     Eigenvalues --  2578.944905782.305626424.12647
           X            0.93345   0.24644  -0.26064
           Y           -0.35135   0.77456  -0.52594
           Z            0.07227   0.58252   0.80960
 This molecule is an asymmetric top.
 Rotational symmetry number  1.
 Warning -- assumption of classical behavior for rotation
           may cause significant error
 Rotational temperatures (Kelvin)      0.03359     0.01498     0.01348
 Rotational constants (GHZ):           0.69980     0.31211     0.28093
 Zero-point vibrational energy     728252.0 (Joules/Mol)
                                  174.05640 (Kcal/Mol)
 Warning -- explicit consideration of  26 degrees of freedom as
           vibrations may cause significant error
 Vibrational temperatures:     39.71    72.39    85.46   103.40   140.54
          (Kelvin)            230.69   284.72   323.48   331.91   361.81
                              371.30   387.27   420.20   458.29   478.65
                              517.27   544.60   595.59   600.99   618.01
                              652.17   702.80   730.66   792.81   828.56
                              881.63   910.73   921.15   936.32  1028.85
                             1038.75  1109.73  1126.92  1171.84  1188.63
                             1231.38  1232.91  1324.35  1350.06  1361.58
                             1393.37  1421.85  1446.48  1461.43  1462.43
                             1484.11  1508.98  1511.58  1521.12  1583.06
                             1602.68  1615.86  1633.01  1669.56  1702.21
                             1730.47  1744.69  1790.29  1846.35  1872.00
                             1903.79  1956.63  1994.07  2020.22  2035.10
                             2057.45  2120.83  2124.32  2134.51  2145.25
                             2148.92  2175.30  2187.00  2196.06  2316.65
                             2329.26  2359.83  2423.84  2461.48  2469.99
                             4366.29  4367.82  4381.97  4445.24  4451.98
                             4460.83  4519.08  4545.99  4556.01  4556.65
                             4558.24  4569.95  4571.46  4583.99  4593.99
                             4597.56

 Zero-point correction=                           0.277377 (Hartree/Particle)
 Thermal correction to Energy=                    0.293728
 Thermal correction to Enthalpy=                  0.294673
 Thermal correction to Gibbs Free Energy=         0.233454
 Sum of electronic and zero-point Energies=           -769.675021
 Sum of electronic and thermal Energies=              -769.658669
 Sum of electronic and thermal Enthalpies=            -769.657725
 Sum of electronic and thermal Free Energies=         -769.718944

                     E (Thermal)             CV                S
                      KCal/Mol        Cal/Mol-Kelvin    Cal/Mol-Kelvin
 Total                  184.317             64.416            128.845
 Electronic               0.000              0.000              0.000
 Translational            0.889              2.981             42.329
 Rotational               0.889              2.981             32.927
 Vibrational            182.540             58.455             53.589
 Vibration     1          0.593              1.984              5.995
 Vibration     2          0.595              1.977              4.805
 Vibration     3          0.597              1.974              4.477
 Vibration     4          0.598              1.967              4.102
 Vibration     5          0.603              1.951              3.500
 Vibration     6          0.622              1.891              2.546
 Vibration     7          0.637              1.843              2.153
 Vibration     8          0.649              1.803              1.920
 Vibration     9          0.652              1.794              1.874
 Vibration    10          0.663              1.760              1.720
 Vibration    11          0.667              1.749              1.675
 Vibration    12          0.674              1.730              1.602
 Vibration    13          0.687              1.689              1.462
 Vibration    14          0.705              1.638              1.318
 Vibration    15          0.715              1.610              1.247
 Vibration    16          0.734              1.556              1.124
 Vibration    17          0.749              1.516              1.045
 Vibration    18          0.778              1.440              0.913
 Vibration    19          0.781              1.432              0.900
 Vibration    20          0.791              1.406              0.860
 Vibration    21          0.812              1.354              0.786
 Vibration    22          0.844              1.276              0.688
 Vibration    23          0.863              1.233              0.639
 Vibration    24          0.906              1.137              0.542
 Vibration    25          0.932              1.083              0.493
 Vibration    26          0.972              1.005              0.428

 Optimization completed.
    -- Stationary point found.
 Normal termination of Gaussian 16 at Sat Mar  2 17:23:49 2024.
