 Q-Chem 5.4, Q-Chem, Inc., Pleasanton, CA (2021)
 Q-Chem 5.4.0 for Intel X86 EM64T Linux

User input:
--------------------------------------------------------------
$molecule
-1 2
C                 -3.7593750000      1.7706550000     -0.3502070000
C                 -2.5272090000      0.9217370000     -0.1401410000
C                 -1.2717880000      1.4311590000     -0.4143900000
C                 -0.0900650000      0.6805810000     -0.2354050000
C                  1.2032790000      1.2893790000     -0.5478900000
O                  1.3004530000      2.4683620000     -0.9745360000
C                  2.3777960000      0.4419260000     -0.3335360000
C                  3.6621880000      0.9599270000     -0.6129130000
C                  4.7987140000      0.1989670000     -0.4264010000
C                  4.6881250000     -1.1258350000      0.0529830000
C                  3.4439680000     -1.6542040000      0.3330410000
C                  2.2661390000     -0.8956550000      0.1504690000
C                  0.9703040000     -1.5018340000      0.4619970000
O                  0.8707370000     -2.6806310000      0.8885800000
C                 -0.2013390000     -0.6522090000      0.2466580000
C                 -1.4882330000     -1.1615140000      0.5230020000
C                 -2.6389650000     -0.4169010000      0.3436680000
C                 -3.9917900000     -1.0132890000      0.6556520000
H                 -3.4856880000      2.7608240000     -0.7212280000
H                 -4.4491290000      1.3208360000     -1.0752350000
H                 -4.3273820000      1.9067980000      0.5785430000
H                 -1.1567370000      2.4451570000     -0.7832290000
H                  3.7169000000      1.9787490000     -0.9793590000
H                  5.7769800000      0.6161720000     -0.6472400000
H                  5.5814870000     -1.7258810000      0.2002330000
H                  3.3290800000     -2.6671630000      0.7017910000
H                 -1.5430000000     -2.1814090000      0.8894640000
H                 -4.5227040000     -0.4444900000      1.4291860000
H                 -4.6461870000     -1.0295500000     -0.2248110000
H                 -3.8865600000     -2.0406650000      1.0112540000
$end

$rem
BASIS  =  6-311++G(d,p)
GUI  =  2
JOB_TYPE  =  SP
METHOD  =  B3LYP
SCF_CONVERGENCE  = 8
SOLVENT_METHOD = sm12
$end

$smx
solvent dimethylformamide
charges CM5
$end

--------------------------------------------------------------

             Standard Nuclear Orientation (Angstroms)
    I     Atom           X                Y                Z
 ----------------------------------------------------------------
    1      C      -3.7593750000     1.7706550000    -0.3502070000
    2      C      -2.5272090000     0.9217370000    -0.1401410000
    3      C      -1.2717880000     1.4311590000    -0.4143900000
    4      C      -0.0900650000     0.6805810000    -0.2354050000
    5      C       1.2032790000     1.2893790000    -0.5478900000
    6      O       1.3004530000     2.4683620000    -0.9745360000
    7      C       2.3777960000     0.4419260000    -0.3335360000
    8      C       3.6621880000     0.9599270000    -0.6129130000
    9      C       4.7987140000     0.1989670000    -0.4264010000
   10      C       4.6881250000    -1.1258350000     0.0529830000
   11      C       3.4439680000    -1.6542040000     0.3330410000
   12      C       2.2661390000    -0.8956550000     0.1504690000
   13      C       0.9703040000    -1.5018340000     0.4619970000
   14      O       0.8707370000    -2.6806310000     0.8885800000
   15      C      -0.2013390000    -0.6522090000     0.2466580000
   16      C      -1.4882330000    -1.1615140000     0.5230020000
   17      C      -2.6389650000    -0.4169010000     0.3436680000
   18      C      -3.9917900000    -1.0132890000     0.6556520000
   19      H      -3.4856880000     2.7608240000    -0.7212280000
   20      H      -4.4491290000     1.3208360000    -1.0752350000
   21      H      -4.3273820000     1.9067980000     0.5785430000
   22      H      -1.1567370000     2.4451570000    -0.7832290000
   23      H       3.7169000000     1.9787490000    -0.9793590000
   24      H       5.7769800000     0.6161720000    -0.6472400000
   25      H       5.5814870000    -1.7258810000     0.2002330000
   26      H       3.3290800000    -2.6671630000     0.7017910000
   27      H      -1.5430000000    -2.1814090000     0.8894640000
   28      H      -4.5227040000    -0.4444900000     1.4291860000
   29      H      -4.6461870000    -1.0295500000    -0.2248110000
   30      H      -3.8865600000    -2.0406650000     1.0112540000
 ----------------------------------------------------------------

   16    -767.6659589869      3.88e-09  Convergence criterion met
 Total energy in the final basis set =     -767.7574376648

                    Orbital Energies (a.u.)
 --------------------------------------------------------------

 Alpha MOs
 -- Occupied --
-19.0763 -19.0763 -10.2251 -10.2251 -10.1859 -10.1854 -10.1820 -10.1815
-10.1788 -10.1785 -10.1782 -10.1780 -10.1754 -10.1750 -10.1718 -10.1718
-10.1707 -10.1706  -1.0025  -1.0003  -0.8681  -0.8603  -0.8027  -0.7707
 -0.7602  -0.7575  -0.7109  -0.6918  -0.6604  -0.6281  -0.6055  -0.5941
 -0.5623  -0.5265  -0.5225  -0.4829  -0.4706  -0.4562  -0.4479  -0.4393
 -0.4314  -0.4288  -0.4231  -0.4213  -0.4099  -0.4018  -0.4011  -0.3890
 -0.3810  -0.3801  -0.3737  -0.3659  -0.3492  -0.3459  -0.3351  -0.3327
 -0.2688  -0.2647  -0.2561  -0.2462  -0.2460  -0.2370  -0.1436

 Beta MOs
 -- Occupied --
-19.0704 -19.0704 -10.2237 -10.2236 -10.1855 -10.1850 -10.1815 -10.1810
-10.1785 -10.1784 -10.1776 -10.1772 -10.1747 -10.1743 -10.1718 -10.1718
-10.1707 -10.1707  -0.9924  -0.9900  -0.8659  -0.8589  -0.7994  -0.7693
 -0.7582  -0.7554  -0.7087  -0.6904  -0.6542  -0.6270  -0.6029  -0.5936
 -0.5599  -0.5242  -0.5211  -0.4817  -0.4682  -0.4547  -0.4471  -0.4373
 -0.4310  -0.4282  -0.4213  -0.4096  -0.4038  -0.4012  -0.3990  -0.3888
 -0.3803  -0.3726  -0.3619  -0.3567  -0.3486  -0.3447  -0.3336  -0.3211
 -0.2601  -0.2495  -0.2473  -0.2406  -0.2388  -0.2316

          Ground-State Mulliken Net Atomic Charges

     Atom                 Charge (a.u.)    Spin (a.u.)
  --------------------------------------------------------
      1 C                     1.448788      -0.002545
      2 C                     1.725865       0.036705
      3 C                     0.022662       0.022832
      4 C                    -1.987135       0.028919
      5 C                    -2.423008       0.071791
      6 O                    -0.300841       0.220077
      7 C                    -1.226266       0.052569
      8 C                    -0.078537       0.029254
      9 C                     0.950284       0.043472
     10 C                     0.950533       0.043500
     11 C                    -0.076996       0.029203
     12 C                    -1.224396       0.052680
     13 C                    -2.421646       0.071746
     14 O                    -0.300701       0.220080
     15 C                    -1.987177       0.028922
     16 C                     0.021485       0.022794
     17 C                     1.729170       0.036721
     18 C                     1.450566      -0.002541
     19 H                     0.333450       0.000223
     20 H                     0.249132       0.001759
     21 H                     0.249439       0.001765
     22 H                     0.016081      -0.002203
     23 H                     0.153411      -0.001253
     24 H                     0.362182      -0.003384
     25 H                     0.362265      -0.003379
     26 H                     0.153470      -0.001255
     27 H                     0.016051      -0.002203
     28 H                     0.249389       0.001769
     29 H                     0.249130       0.001759
     30 H                     0.333351       0.000225
  --------------------------------------------------------
  Sum of atomic charges =    -1.000000

                    Cartesian Multipole Moments
 -----------------------------------------------------------------
    Charge (ESU x 10^10)
                -4.8032
    Dipole Moment (Debye)
         X      -6.8389      Y       0.6671      Z       0.2714
       Tot       6.8767
    Quadrupole Moments (Debye-Ang)
        XX    -113.9983     XY      -1.9351     YY    -137.1195
        XZ       0.7588     YZ       8.7331     ZZ    -116.1685

 Total job time:  825.43s(wall), 6185.33s(cpu)
        *  Thank you very much for using Q-Chem.  Have a nice day.  *
