 Q-Chem 5.4, Q-Chem, Inc., Pleasanton, CA (2021)
 Q-Chem 5.4.0 for Intel X86 EM64T Linux

User input:
--------------------------------------------------------------
$molecule
0 1
O                  5.0446640000     -0.1674860000     -0.4368120000
C                  3.7370170000      0.1587360000     -0.2525560000
C                  3.4496190000      1.4943940000      0.0603270000
C                  2.1367290000      1.8835560000      0.2586750000
C                  1.0881020000      0.9592180000      0.1509190000
C                 -0.3069190000      1.4080310000      0.3692060000
O                 -0.5770800000      2.5680800000      0.6427250000
C                 -1.3860580000      0.3781080000      0.2412600000
C                 -2.7074350000      0.7733860000      0.4416080000
C                 -3.7369890000     -0.1587440000      0.3303480000
O                 -5.0447060000      0.1675310000      0.5144670000
C                 -3.4496130000     -1.4944020000      0.0175520000
C                 -2.1366840000     -1.8835680000     -0.1807320000
C                 -1.0881090000     -0.9592270000     -0.0729590000
C                  0.3069450000     -1.4080350000     -0.2912010000
O                  0.5771110000     -2.5680920000     -0.5646800000
C                  1.3860700000     -0.3780960000     -0.1632930000
C                  2.7074530000     -0.7733730000     -0.3637120000
H                  5.1260750000     -1.1049000000     -0.6454220000
H                  4.2664700000      2.2010590000      0.1414050000
H                  1.8949750000      2.9110170000      0.5011620000
H                 -2.9063330000      1.8124950000      0.6829070000
H                 -5.1261130000      1.1049280000      0.7231960000
H                 -4.2664790000     -2.2010460000     -0.0635220000
H                 -1.8949690000     -2.9110530000     -0.4231520000
H                  2.9062550000     -1.8125170000     -0.6049610000
$end

$rem
BASIS  =  6-311++G(d,p)
GUI  =  2
JOB_TYPE  =  SP
METHOD  =  B3LYP
SCF_CONVERGENCE  = 8
SOLVENT_METHOD = sm12
$end

$smx
solvent dimethylformamide
charges CM5
$end

--------------------------------------------------------------

             Standard Nuclear Orientation (Angstroms)
    I     Atom           X                Y                Z
 ----------------------------------------------------------------
    1      O       5.0446640000    -0.1674860000    -0.4368120000
    2      C       3.7370170000     0.1587360000    -0.2525560000
    3      C       3.4496190000     1.4943940000     0.0603270000
    4      C       2.1367290000     1.8835560000     0.2586750000
    5      C       1.0881020000     0.9592180000     0.1509190000
    6      C      -0.3069190000     1.4080310000     0.3692060000
    7      O      -0.5770800000     2.5680800000     0.6427250000
    8      C      -1.3860580000     0.3781080000     0.2412600000
    9      C      -2.7074350000     0.7733860000     0.4416080000
   10      C      -3.7369890000    -0.1587440000     0.3303480000
   11      O      -5.0447060000     0.1675310000     0.5144670000
   12      C      -3.4496130000    -1.4944020000     0.0175520000
   13      C      -2.1366840000    -1.8835680000    -0.1807320000
   14      C      -1.0881090000    -0.9592270000    -0.0729590000
   15      C       0.3069450000    -1.4080350000    -0.2912010000
   16      O       0.5771110000    -2.5680920000    -0.5646800000
   17      C       1.3860700000    -0.3780960000    -0.1632930000
   18      C       2.7074530000    -0.7733730000    -0.3637120000
   19      H       5.1260750000    -1.1049000000    -0.6454220000
   20      H       4.2664700000     2.2010590000     0.1414050000
   21      H       1.8949750000     2.9110170000     0.5011620000
   22      H      -2.9063330000     1.8124950000     0.6829070000
   23      H      -5.1261130000     1.1049280000     0.7231960000
   24      H      -4.2664790000    -2.2010460000    -0.0635220000
   25      H      -1.8949690000    -2.9110530000    -0.4231520000
   26      H       2.9062550000    -1.8125170000    -0.6049610000
 ----------------------------------------------------------------

   14    -839.4533421630      6.42e-09  Convergence criterion met
 Total energy in the final basis set =     -839.4821516967

                    Orbital Energies (a.u.)
 --------------------------------------------------------------

 Alpha MOs
 -- Occupied --
-19.1763 -19.1763 -19.1268 -19.1268 -10.2800 -10.2800 -10.2656 -10.2656
-10.2129 -10.2129 -10.2033 -10.2033 -10.2010 -10.2010 -10.1987 -10.1987
-10.1965 -10.1965  -1.0889  -1.0889  -1.0620  -1.0603  -0.8940  -0.8820
 -0.8109  -0.7833  -0.7794  -0.7679  -0.6900  -0.6845  -0.6449  -0.6444
 -0.5910  -0.5871  -0.5682  -0.5654  -0.5113  -0.5015  -0.4963  -0.4950
 -0.4592  -0.4575  -0.4544  -0.4529  -0.4485  -0.4373  -0.4270  -0.4250
 -0.4212  -0.4166  -0.4037  -0.3904  -0.3778  -0.3675  -0.3648  -0.3467
 -0.2867  -0.2857  -0.2804  -0.2740  -0.2623  -0.2502

          Ground-State Mulliken Net Atomic Charges

     Atom                 Charge (a.u.)
  ----------------------------------------
      1 O                    -0.205425
      2 C                     0.073132
      3 C                     0.270141
      4 C                     0.266348
      5 C                    -0.257586
      6 C                    -1.438273
      7 O                    -0.264647
      8 C                    -0.029649
      9 C                     0.549197
     10 C                     0.072976
     11 O                    -0.205475
     12 C                     0.270103
     13 C                     0.266445
     14 C                    -0.257509
     15 C                    -1.438392
     16 O                    -0.264632
     17 C                    -0.029489
     18 C                     0.549280
     19 H                     0.325446
     20 H                     0.293687
     21 H                     0.207108
     22 H                     0.210491
     23 H                     0.325429
     24 H                     0.293687
     25 H                     0.207124
     26 H                     0.210482
  ----------------------------------------
  Sum of atomic charges =     0.000000

                    Cartesian Multipole Moments
 -----------------------------------------------------------------
    Charge (ESU x 10^10)
                 0.0000
    Dipole Moment (Debye)
         X       0.0006      Y      -0.0002      Z       0.0000
       Tot       0.0007
    Quadrupole Moments (Debye-Ang)
        XX     -82.8960     XY      -6.0718     YY    -106.6454
        XZ      -3.2461     YZ       0.2145     ZZ    -104.8755

 Total job time:  479.71s(wall), 3725.36s(cpu)
        *  Thank you very much for using Q-Chem.  Have a nice day.  *
