 Gaussian 16, Revision A.03,
 Gaussian 16:  ES64L-G16RevA.03 25-Dec-2016

 ----------------------------------------------------------------
 #P UB3LYP/6-311++G(d,p) SCRF=(PCM,Solvent=n,n-DiMethylFormamide)
 ----------------------------------------------------------------

 ------------------
 Quinone PCM in DMF
 ------------------
 Symbolic Z-matrix:
 Charge =  0 Multiplicity = 1

                         Standard orientation:
 ---------------------------------------------------------------------
 Center     Atomic      Atomic             Coordinates (Angstroms)
 Number     Number       Type             X           Y           Z
 ---------------------------------------------------------------------
      1          6           0        1.626620   -1.736141    0.000018
      2          6           0        2.988054   -1.450723    0.000180
      3          6           0        3.427866   -0.125073    0.000168
      4          6           0        0.695045   -0.694630   -0.000138
      5          6           0        1.138247    0.638806   -0.000149
      6          6           0        2.506193    0.917190    0.000010
      7          6           0       -0.759064   -1.029416   -0.000298
      8          6           0       -1.706455    0.137704   -0.000047
      9          6           0       -1.282265    1.410071   -0.000046
     10          6           0        0.155923    1.759848   -0.000371
     11          8           0       -1.164106   -2.172650   -0.000132
     12          8           0        0.500434    2.930070    0.000141
     13          1           0        1.266453   -2.757431    0.000015
     14          1           0        3.708295   -2.260726    0.000318
     15          1           0        2.825368    1.952166   -0.000016
     16         17           0       -3.396957   -0.252766    0.000192
     17          1           0        4.489571    0.093354    0.000253
     18          1           0       -1.973031    2.244483    0.000134
 ---------------------------------------------------------------------

 SCF Done:  E(UB3LYP) =  -994.887486990     A.U. after   16 cycles

 The electronic state is 1-A.
 Alpha  occ. eigenvalues -- -101.58002 -19.15006 -19.14397 -10.30248 -10.29452
 Alpha  occ. eigenvalues --  -10.27806 -10.22318 -10.21790 -10.21561 -10.20500
 Alpha  occ. eigenvalues --  -10.20423 -10.20367 -10.20314  -9.49455  -7.25924
 Alpha  occ. eigenvalues --   -7.24966  -7.24863  -1.08664  -1.07663  -0.91420
 Alpha  occ. eigenvalues --   -0.89415  -0.82932  -0.78617  -0.77672  -0.70757
 Alpha  occ. eigenvalues --   -0.65956  -0.64290  -0.59978  -0.55940  -0.54097
 Alpha  occ. eigenvalues --   -0.51397  -0.49523  -0.47446  -0.46865  -0.46547
 Alpha  occ. eigenvalues --   -0.45813  -0.44748  -0.44463  -0.43212  -0.39650
 Alpha  occ. eigenvalues --   -0.39096  -0.37732  -0.37533  -0.34074  -0.30297
 Alpha  occ. eigenvalues --   -0.30226  -0.29002  -0.28529  -0.28431
 Alpha virt. eigenvalues --   -0.13726  -0.06351  -0.04348  -0.00665  -0.00071
 Alpha virt. eigenvalues --    0.00761   0.01377   0.01533   0.02710   0.03564
 Alpha virt. eigenvalues --    0.04129   0.04295   0.04977   0.05970   0.06548

  Beta  occ. eigenvalues -- -101.58002 -19.15006 -19.14397 -10.30248 -10.29452
  Beta  occ. eigenvalues --  -10.27806 -10.22318 -10.21790 -10.21561 -10.20500
  Beta  occ. eigenvalues --  -10.20423 -10.20367 -10.20314  -9.49455  -7.25924
  Beta  occ. eigenvalues --   -7.24966  -7.24863  -1.08664  -1.07663  -0.91420
  Beta  occ. eigenvalues --   -0.89415  -0.82932  -0.78617  -0.77672  -0.70757
  Beta  occ. eigenvalues --   -0.65956  -0.64290  -0.59978  -0.55940  -0.54097
  Beta  occ. eigenvalues --   -0.51397  -0.49523  -0.47446  -0.46865  -0.46547
  Beta  occ. eigenvalues --   -0.45813  -0.44748  -0.44463  -0.43212  -0.39650
  Beta  occ. eigenvalues --   -0.39096  -0.37732  -0.37533  -0.34074  -0.30297
  Beta  occ. eigenvalues --   -0.30226  -0.29002  -0.28529  -0.28431
  Beta virt. eigenvalues --   -0.13726  -0.06351  -0.04348  -0.00665  -0.00071
  Beta virt. eigenvalues --    0.00761   0.01377   0.01533   0.02710   0.03564
  Beta virt. eigenvalues --    0.04129   0.04295   0.04977   0.05970   0.06548

 Mulliken charges and spin densities:
               1          2
     1  C    0.061116  -0.000000
     2  C   -0.386462   0.000000
     3  C   -0.378350   0.000000
     4  C    0.282522  -0.000000
     5  C    0.351331   0.000000
     6  C    0.210328   0.000000
     7  C   -1.467129   0.000000
     8  C    1.053835  -0.000000
     9  C    0.245836   0.000000
    10  C   -0.923697  -0.000000
    11  O   -0.221588  -0.000000
    12  O   -0.276748   0.000000
    13  H    0.183258   0.000000
    14  H    0.218193   0.000000
    15  H    0.186902  -0.000000
    16  Cl   0.394464   0.000000
    17  H    0.214658  -0.000000
    18  H    0.251531  -0.000000
 Sum of Mulliken charges =  -0.00000   0.00000

 Dipole moment (field-independent basis, Debye):
    X=              3.5269    Y=             -0.5589    Z=             -0.0007  Tot=              3.5709
 Quadrupole moment (field-independent basis, Debye-Ang):
   XX=            -68.6603   YY=            -92.9674   ZZ=            -81.7284
   XY=            -10.8001   XZ=              0.0008   YZ=             -0.0023

 Normal termination of Gaussian 16 at Sun Jan 21 07:47:54 2024.
