 Gaussian 16, Revision A.03,
 Gaussian 16:  ES64L-G16RevA.03 25-Dec-2016

 --------------------------------------
 #P UB3LYP/6-311++G(d,p) nosym opt freq
 --------------------------------------

 --------
 Oxidized
 --------
 Symbolic Z-matrix:
 Charge =  0 Multiplicity = 1

 SCF Done:  E(UB3LYP) =  -994.878330262     A.U. after   17 cycles
 SCF Done:  E(UB3LYP) =  -994.878330124     A.U. after   10 cycles
 SCF Done:  E(UB3LYP) =  -994.878330559     A.U. after   10 cycles
 Optimization completed.
    -- Stationary point found.
 Normal termination of Gaussian 16 at Sun Jan  7 20:14:51 2024.

 ----------------------------------------------------------------------
 #P Geom=AllCheck Guess=TCheck SCRF=Check GenChk UB3LYP/6-311++G(d,p) F
 req
 ----------------------------------------------------------------------

 Structure from the checkpoint file:  "229.chk"
 --------
 Oxidized
 --------
 Charge =  0 Multiplicity = 1

                          Input orientation:
 ---------------------------------------------------------------------
 Center     Atomic      Atomic             Coordinates (Angstroms)
 Number     Number       Type             X           Y           Z
 ---------------------------------------------------------------------
      1          6           0        5.779622   -5.134674    1.238444
      2          6           0        6.791208   -5.041736    0.288169
      3          6           0        6.701860   -4.104533   -0.743553
      4          6           0        4.670167   -4.288602    1.161977
      5          6           0        4.580951   -3.345964    0.123732
      6          6           0        5.600208   -3.258760   -0.826156
      7          6           0        3.599826   -4.409880    2.194536
      8          6           0        2.435319   -3.469786    2.053593
      9          6           0        2.351242   -2.570421    1.062165
     10          6           0        3.403340   -2.437074    0.029675
     11          8           0        3.656000   -5.215799    3.099180
     12          8           0        3.289129   -1.605642   -0.855642
     13          1           0        5.831092   -5.854875    2.045547
     14          1           0        7.650592   -5.699364    0.350099
     15          1           0        5.510752   -2.524987   -1.617750
     16         17           0        1.191601   -3.611419    3.254995
     17          1           0        7.492121   -4.035139   -1.482201
     18          1           0        1.507757   -1.897160    0.969130
 ---------------------------------------------------------------------

 SCF Done:  E(UB3LYP) =  -994.878330559     A.U. after    1 cycles

 Alpha  occ. eigenvalues -- -101.57856 -19.14833 -19.14210 -10.30113 -10.29346
 Alpha  occ. eigenvalues --  -10.27981 -10.22556 -10.22313 -10.22093 -10.21309
 Alpha  occ. eigenvalues --  -10.21251 -10.21155 -10.21069  -9.49304  -7.25781
 Alpha  occ. eigenvalues --   -7.24815  -7.24703  -1.08418  -1.07427  -0.91533
 Alpha  occ. eigenvalues --   -0.89925  -0.83269  -0.79226  -0.78198  -0.71014
 Alpha  occ. eigenvalues --   -0.66546  -0.64765  -0.60417  -0.56240  -0.54610
 Alpha  occ. eigenvalues --   -0.51464  -0.50125  -0.47158  -0.47012  -0.46950
 Alpha  occ. eigenvalues --   -0.46430  -0.44759  -0.44713  -0.43064  -0.40105
 Alpha  occ. eigenvalues --   -0.39847  -0.38437  -0.37523  -0.33841  -0.30411
 Alpha  occ. eigenvalues --   -0.29934  -0.29139  -0.28957  -0.28782
 Alpha virt. eigenvalues --   -0.13797  -0.06871  -0.04955  -0.01416  -0.00266
 Alpha virt. eigenvalues --    0.00281   0.00812   0.01301   0.02161   0.03488
 Alpha virt. eigenvalues --    0.03688   0.03907   0.04495   0.05723   0.06392

  Beta  occ. eigenvalues -- -101.57856 -19.14833 -19.14210 -10.30113 -10.29346
  Beta  occ. eigenvalues --  -10.27981 -10.22556 -10.22313 -10.22093 -10.21309
  Beta  occ. eigenvalues --  -10.21251 -10.21155 -10.21069  -9.49304  -7.25781
  Beta  occ. eigenvalues --   -7.24815  -7.24703  -1.08418  -1.07427  -0.91533
  Beta  occ. eigenvalues --   -0.89925  -0.83269  -0.79226  -0.78198  -0.71014
  Beta  occ. eigenvalues --   -0.66546  -0.64765  -0.60417  -0.56240  -0.54610
  Beta  occ. eigenvalues --   -0.51464  -0.50125  -0.47158  -0.47012  -0.46950
  Beta  occ. eigenvalues --   -0.46430  -0.44759  -0.44713  -0.43064  -0.40105
  Beta  occ. eigenvalues --   -0.39847  -0.38437  -0.37523  -0.33841  -0.30411
  Beta  occ. eigenvalues --   -0.29934  -0.29139  -0.28957  -0.28782
  Beta virt. eigenvalues --   -0.13797  -0.06871  -0.04955  -0.01416  -0.00266
  Beta virt. eigenvalues --    0.00281   0.00812   0.01301   0.02161   0.03488
  Beta virt. eigenvalues --    0.03688   0.03907   0.04495   0.05723   0.06392

 Mulliken charges and spin densities:
               1          2
     1  C    0.031999  -0.000000
     2  C   -0.334428   0.000000
     3  C   -0.315944  -0.000000
     4  C    0.291050  -0.000000
     5  C    0.351970   0.000000
     6  C    0.177808   0.000000
     7  C   -1.483459  -0.000000
     8  C    1.021817   0.000000
     9  C    0.209368   0.000000
    10  C   -0.966587  -0.000000
    11  O   -0.160595  -0.000000
    12  O   -0.219510   0.000000
    13  H    0.180875  -0.000000
    14  H    0.187409   0.000000
    15  H    0.185389   0.000000
    16  Cl   0.425210  -0.000000
    17  H    0.184061  -0.000000
    18  H    0.233564   0.000000
 Sum of Mulliken charges =  -0.00000   0.00000

 Dipole moment (field-independent basis, Debye):
    X=              2.3830    Y=             -0.6204    Z=             -1.2497  Tot=              2.7614
 Quadrupole moment (field-independent basis, Debye-Ang):
   XX=            -52.3566   YY=            -80.8847   ZZ=            -89.9813
   XY=            -15.2165   XZ=             -6.5671   YZ=             11.5686

  Exact polarizability: 148.989 -25.691 114.092 -39.000 -35.871 140.342
 Approx polarizability: 216.122 -37.539 210.351 -49.504 -95.164 256.706

                      1                      2                      3
                      A                      A                      A
 Frequencies --     50.9623               118.5678               139.6112
 Red. masses --     11.8161                 4.6806                 8.6081
 Frc consts  --      0.0181                 0.0388                 0.0989
 IR Inten    --      4.3299                 0.1070                 4.7455

                      4                      5                      6
                      A                      A                      A
 Frequencies --    197.0110               208.7103               279.8973
 Red. masses --      4.9886                10.4482                 7.8229
 Frc consts  --      0.1141                 0.2682                 0.3611
 IR Inten    --      0.4049                 0.2911                 0.3672

                      7                      8                      9
                      A                      A                      A
 Frequencies --    332.1376               362.6901               379.8809
 Red. masses --     15.7013                 5.2778                11.0408
 Frc consts  --      1.0205                 0.4090                 0.9387
 IR Inten    --      1.0270                 0.0025                13.5069

                     10                     11                     12
                      A                      A                      A
 Frequencies --    430.3636               455.8631               479.5952
 Red. masses --      3.6546                 9.9870                 4.0543
 Frc consts  --      0.3988                 1.2228                 0.5494
 IR Inten    --      0.7364                 7.6429                 0.0557

                     13                     14                     15
                      A                      A                      A
 Frequencies --    496.7057               623.4824               664.7137
 Red. masses --      9.6836                 7.2712                 5.9888
 Frc consts  --      1.4076                 1.6653                 1.5591
 IR Inten    --      0.6612                27.6202                 0.1076

                     16                     17                     18
                      A                      A                      A
 Frequencies --    680.6425               714.6992               717.8172
 Red. masses --      3.7382                 6.6633                 3.3262
 Frc consts  --      1.0204                 2.0053                 1.0098
 IR Inten    --      5.5355                 3.2522                29.4390

                     19                     20                     21
                      A                      A                      A
 Frequencies --    790.4033               807.8999               808.0706
 Red. masses --      2.0649                 2.7830                 5.1560
 Frc consts  --      0.7601                 1.0702                 1.9836
 IR Inten    --     30.8911                13.8986                10.2108

                     22                     23                     24
                      A                      A                      A
 Frequencies --    860.2854               913.3968               916.9598
 Red. masses --      8.5839                 1.4611                 1.3810
 Frc consts  --      3.7430                 0.7182                 0.6841
 IR Inten    --    113.8700                19.3899                 0.6254

                     25                     26                     27
                      A                      A                      A
 Frequencies --   1002.6677              1020.7973              1045.3070
 Red. masses --      1.3831                 1.3312                 3.1811
 Frc consts  --      0.8193                 0.8173                 2.0479
 IR Inten    --      1.3250                 0.0048                 4.3549

                     28                     29                     30
                      A                      A                      A
 Frequencies --   1077.0995              1099.7728              1132.0065
 Red. masses --      3.5985                 2.9716                 1.7657
 Frc consts  --      2.4597                 2.1176                 1.3331
 IR Inten    --     39.7960                 3.4222                32.9733

                     31                     32                     33
                      A                      A                      A
 Frequencies --   1185.1429              1233.3449              1269.7794
 Red. masses --      1.1279                 2.1974                 2.1971
 Frc consts  --      0.9334                 1.9693                 2.0872
 IR Inten    --      4.2941                26.1580               158.8146

                     34                     35                     36
                      A                      A                      A
 Frequencies --   1308.4120              1326.1785              1359.6777
 Red. masses --      2.6100                 2.2012                 7.3869
 Frc consts  --      2.6326                 2.2810                 8.0461
 IR Inten    --    173.9242                12.9228                 7.3244

                     37                     38                     39
                      A                      A                      A
 Frequencies --   1482.1510              1505.8890              1611.0538
 Red. masses --      2.3514                 2.6017                 6.6411
 Frc consts  --      3.0434                 3.4761                10.1558
 IR Inten    --      0.5737                 3.0179                15.2099

                     40                     41                     42
                      A                      A                      A
 Frequencies --   1628.4009              1645.5333              1719.4566
 Red. masses --      5.8037                 8.7925                11.6066
 Frc consts  --      9.0672                14.0274                20.2180
 IR Inten    --     60.1655               113.2387               178.6478

                     43                     44                     45
                      A                      A                      A
 Frequencies --   1742.9848              3173.1994              3186.8976
 Red. masses --     12.8499                 1.0871                 1.0915
 Frc consts  --     23.0004                 6.4496                 6.5317
 IR Inten    --    242.4354                 2.8006                 6.5823

                     46                     47                     48
                      A                      A                      A
 Frequencies --   3199.0785              3200.2733              3203.2893
 Red. masses --      1.0931                 1.0929                 1.0954
 Frc consts  --      6.5914                 6.5946                 6.6221
 IR Inten    --      0.3244                 0.4276                 8.4131

 - Thermochemistry -
 -------------------
 Temperature   298.150 Kelvin.  Pressure   1.00000 Atm.
 Atom     1 has atomic number  6 and mass  12.00000

 Molecular mass:   191.99781 amu.
 Principal axes and moments of inertia in atomic units:
                           1         2         3
     Eigenvalues --  1403.153433266.569884669.72326
           X            0.80631  -0.35464   0.47338
           Y           -0.07030   0.73719   0.67202
           Z           -0.58730  -0.57514   0.56947
 This molecule is an asymmetric top.
 Rotational symmetry number  1.
 Warning -- assumption of classical behavior for rotation
           may cause significant error
 Rotational temperatures (Kelvin)      0.06173     0.02652     0.01855
 Rotational constants (GHZ):           1.28620     0.55249     0.38648
 Zero-point vibrational energy     321728.2 (Joules/Mol)
                                   76.89489 (Kcal/Mol)
 Warning -- explicit consideration of  13 degrees of freedom as
           vibrations may cause significant error
 Vibrational temperatures:     73.32   170.59   200.87   283.45   300.29
          (Kelvin)            402.71   477.87   521.83   546.56   619.20
                              655.89   690.03   714.65   897.05   956.37
                              979.29  1028.29  1032.78  1137.21  1162.39
                             1162.63  1237.76  1314.17  1319.30  1442.62
                             1468.70  1503.96  1549.71  1582.33  1628.70
                             1705.16  1774.51  1826.93  1882.51  1908.08
                             1956.27  2132.48  2166.64  2317.95  2342.91
                             2367.56  2473.91  2507.77  4565.53  4585.23
                             4602.76  4604.48  4608.82

 Zero-point correction=                           0.122540 (Hartree/Particle)
 Thermal correction to Energy=                    0.132469
 Thermal correction to Enthalpy=                  0.133413
 Thermal correction to Gibbs Free Energy=         0.086202
 Sum of electronic and zero-point Energies=           -994.755791
 Sum of electronic and thermal Energies=              -994.745862
 Sum of electronic and thermal Enthalpies=            -994.744918
 Sum of electronic and thermal Free Energies=         -994.792129

                     E (Thermal)             CV                S
                      KCal/Mol        Cal/Mol-Kelvin    Cal/Mol-Kelvin
 Total                   83.125             38.167             99.364
 Electronic               0.000              0.000              0.000
 Translational            0.889              2.981             41.662
 Rotational               0.889              2.981             31.438
 Vibrational             81.348             32.206             26.264
 Vibration     1          0.595              1.977              4.780
 Vibration     2          0.609              1.934              3.124
 Vibration     3          0.615              1.914              2.809
 Vibration     4          0.636              1.844              2.161
 Vibration     5          0.642              1.827              2.055
 Vibration     6          0.680              1.711              1.534
 Vibration     7          0.714              1.611              1.250
 Vibration     8          0.737              1.549              1.111
 Vibration     9          0.750              1.513              1.040
 Vibration    10          0.792              1.404              0.857
 Vibration    11          0.814              1.348              0.778
 Vibration    12          0.836              1.295              0.711
 Vibration    13          0.852              1.257              0.666

 Optimization completed.
    -- Stationary point found.
 Normal termination of Gaussian 16 at Sun Jan  7 20:22:13 2024.
