 Gaussian 16, Revision A.03,
 Gaussian 16:  ES64L-G16RevA.03 25-Dec-2016

 ----------------------------------------------------------------------
 #P UB3LYP/6-311++G(d,p) nosym opt freq SCRF=(PCM,Solvent=n,n-DiMethylF
 ormamide)
 ----------------------------------------------------------------------

 --------
 Oxidized
 --------
 Symbolic Z-matrix:
 Charge =  0 Multiplicity = 1

 SCF Done:  E(UB3LYP) =  -951.117043370     A.U. after   17 cycles
 SCF Done:  E(UB3LYP) =  -951.117186587     A.U. after   13 cycles
 SCF Done:  E(UB3LYP) =  -951.117221136     A.U. after   14 cycles
 SCF Done:  E(UB3LYP) =  -951.117235040     A.U. after   12 cycles
 SCF Done:  E(UB3LYP) =  -951.117243404     A.U. after   12 cycles
 SCF Done:  E(UB3LYP) =  -951.117249052     A.U. after   12 cycles
 SCF Done:  E(UB3LYP) =  -951.117251295     A.U. after   12 cycles
 SCF Done:  E(UB3LYP) =  -951.117252527     A.U. after   12 cycles
 SCF Done:  E(UB3LYP) =  -951.117252962     A.U. after   10 cycles
 Optimization completed.
    -- Stationary point found.
 Normal termination of Gaussian 16 at Sun Feb 11 16:13:25 2024.

 ----------------------------------------------------------------------
 #P Geom=AllCheck Guess=TCheck SCRF=Check GenChk UB3LYP/6-311++G(d,p) F
 req
 ----------------------------------------------------------------------

 Structure from the checkpoint file:  "301.chk"
 --------
 Oxidized
 --------
 Charge =  0 Multiplicity = 1

                          Input orientation:
 ---------------------------------------------------------------------
 Center     Atomic      Atomic             Coordinates (Angstroms)
 Number     Number       Type             X           Y           Z
 ---------------------------------------------------------------------
      1          6           0       -0.651609    2.897943    0.417821
      2          6           0       -1.663586    2.497013   -0.449746
      3          6           0       -1.443756    1.442071   -1.336364
      4          6           0        0.583269    2.245034    0.395101
      5          6           0        0.807855    1.181149   -0.497528
      6          6           0       -0.215103    0.782843   -1.356501
      7          6           0        1.658103    2.663903    1.306394
      8          6           0        2.966661    1.951760    1.233445
      9          6           0        3.211557    0.942762    0.348995
     10          6           0        2.117331    0.450044   -0.530900
     11          8           0        1.559545    3.569621    2.127921
     12          8           0        2.256884   -0.538769   -1.233064
     13          8           0        3.896219    2.408574    2.071238
     14          1           0       -0.806659    3.711289    1.115449
     15          1           0       -2.620514    3.004547   -0.435114
     16          1           0       -2.230645    1.131253   -2.013308
     17          1           0       -0.038977   -0.039013   -2.038434
     18          1           0        3.474183    3.121004    2.591417
     19          7           0        4.459953    0.304626    0.411951
     20          7           0        4.957547   -0.029726   -0.690458
     21          6           0        6.178264   -0.747154   -0.612829
     22          6           0        6.753480   -1.217199    0.579275
     23          6           0        6.805831   -0.990504   -1.840595
     24          6           0        8.010159   -1.688173   -1.881618
     25          6           0        8.583510   -2.151421   -0.698082
     26          6           0        7.951628   -1.916023    0.529090
     27          1           0        6.254305   -1.033948    1.521687
     28          1           0        6.338059   -0.624659   -2.747032
     29          1           0        8.496764   -1.872702   -2.832005
     30          1           0        9.518419   -2.699196   -0.726878
     31          1           0        8.398927   -2.284017    1.445322
 ---------------------------------------------------------------------

 SCF Done:  E(UB3LYP) =  -951.117252962     A.U. after    2 cycles

 Alpha  occ. eigenvalues --  -19.19118 -19.15513 -19.13811 -14.38329 -14.38015
 Alpha  occ. eigenvalues --  -10.30033 -10.29383 -10.28253 -10.23839 -10.22048
 Alpha  occ. eigenvalues --  -10.21788 -10.21731 -10.20657 -10.20456 -10.20341
 Alpha  occ. eigenvalues --  -10.20289 -10.19408 -10.19381 -10.19263 -10.19125
 Alpha  occ. eigenvalues --  -10.19033  -1.12113  -1.07700  -1.07457  -1.05387
 Alpha  occ. eigenvalues --   -0.90005  -0.88515  -0.85336  -0.80859  -0.78646
 Alpha  occ. eigenvalues --   -0.77337  -0.76622  -0.72264  -0.69299  -0.66564
 Alpha  occ. eigenvalues --   -0.64332  -0.62414  -0.61496  -0.59579  -0.58078
 Alpha  occ. eigenvalues --   -0.55983  -0.53963  -0.52315  -0.50494  -0.50405
 Alpha  occ. eigenvalues --   -0.48957  -0.47788  -0.47392  -0.47273  -0.45843
 Alpha  occ. eigenvalues --   -0.45508  -0.45295  -0.44295  -0.43763  -0.43063
 Alpha  occ. eigenvalues --   -0.42311  -0.41484  -0.40974  -0.38923  -0.38277
 Alpha  occ. eigenvalues --   -0.37853  -0.37725  -0.37264  -0.36241  -0.31203
 Alpha  occ. eigenvalues --   -0.30190  -0.29829  -0.28654  -0.28531  -0.27508
 Alpha  occ. eigenvalues --   -0.26105  -0.23841
 Alpha virt. eigenvalues --   -0.13625  -0.09837  -0.05923  -0.03012  -0.02700
 Alpha virt. eigenvalues --   -0.00932  -0.00161   0.00270   0.00338   0.01194
 Alpha virt. eigenvalues --    0.01527   0.01963   0.02545   0.02785   0.03423

  Beta  occ. eigenvalues --  -19.19118 -19.15513 -19.13811 -14.38329 -14.38015
  Beta  occ. eigenvalues --  -10.30033 -10.29383 -10.28253 -10.23839 -10.22048
  Beta  occ. eigenvalues --  -10.21788 -10.21731 -10.20657 -10.20456 -10.20341
  Beta  occ. eigenvalues --  -10.20289 -10.19408 -10.19381 -10.19263 -10.19125
  Beta  occ. eigenvalues --  -10.19033  -1.12113  -1.07700  -1.07457  -1.05387
  Beta  occ. eigenvalues --   -0.90005  -0.88515  -0.85336  -0.80859  -0.78646
  Beta  occ. eigenvalues --   -0.77337  -0.76622  -0.72264  -0.69299  -0.66564
  Beta  occ. eigenvalues --   -0.64332  -0.62414  -0.61496  -0.59579  -0.58078
  Beta  occ. eigenvalues --   -0.55983  -0.53963  -0.52315  -0.50494  -0.50405
  Beta  occ. eigenvalues --   -0.48957  -0.47788  -0.47392  -0.47273  -0.45843
  Beta  occ. eigenvalues --   -0.45508  -0.45295  -0.44295  -0.43763  -0.43063
  Beta  occ. eigenvalues --   -0.42311  -0.41484  -0.40974  -0.38923  -0.38277
  Beta  occ. eigenvalues --   -0.37853  -0.37725  -0.37264  -0.36241  -0.31203
  Beta  occ. eigenvalues --   -0.30190  -0.29829  -0.28654  -0.28531  -0.27508
  Beta  occ. eigenvalues --   -0.26105  -0.23841
  Beta virt. eigenvalues --   -0.13625  -0.09837  -0.05923  -0.03012  -0.02700
  Beta virt. eigenvalues --   -0.00932  -0.00161   0.00270   0.00338   0.01194
  Beta virt. eigenvalues --    0.01527   0.01963   0.02545   0.02785   0.03423

 Mulliken charges and spin densities:
               1          2
     1  C    0.168751   0.000000
     2  C   -0.318431  -0.000000
     3  C   -0.363165   0.000000
     4  C    0.746877  -0.000000
     5  C    0.218751  -0.000000
     6  C    0.226591   0.000000
     7  C   -0.607521  -0.000000
     8  C   -0.097948   0.000000
     9  C    0.246825  -0.000000
    10  C   -0.702732  -0.000000
    11  O   -0.303711   0.000000
    12  O   -0.236568   0.000000
    13  O   -0.197423   0.000000
    14  H    0.189171  -0.000000
    15  H    0.215422   0.000000
    16  H    0.211424  -0.000000
    17  H    0.189463  -0.000000
    18  H    0.314215  -0.000000
    19  N    0.060589   0.000000
    20  N    0.072784  -0.000000
    21  C   -0.315849   0.000000
    22  C    0.066323  -0.000000
    23  C   -0.068389   0.000000
    24  C   -0.115443   0.000000
    25  C   -0.340476  -0.000000
    26  C   -0.268429   0.000000
    27  H    0.197805   0.000000
    28  H    0.200596   0.000000
    29  H    0.210988  -0.000000
    30  H    0.186128   0.000000
    31  H    0.213385  -0.000000
 Sum of Mulliken charges =  -0.00000   0.00000

 Dipole moment (field-independent basis, Debye):
    X=             -2.1706    Y=              0.8548    Z=             -0.4403  Tot=              2.3741
 Quadrupole moment (field-independent basis, Debye-Ang):
   XX=            -93.6661   YY=           -118.4275   ZZ=           -116.6915
   XY=            -15.5192   XZ=              1.7143   YZ=             -3.7465

  Exact polarizability: 454.741-142.693 303.633 -12.058  95.287 293.386
 Approx polarizability: 458.390-136.803 369.587 -14.885 135.038 377.152

                      1                      2                      3
                      A                      A                      A
 Frequencies --     20.5871                33.4091                45.4482
 Red. masses --      4.0548                 6.7358                 6.3544
 Frc consts  --      0.0010                 0.0044                 0.0077
 IR Inten    --      0.8905                 4.0737                 3.5945

                      4                      5                      6
                      A                      A                      A
 Frequencies --     70.2087               106.7337               123.3555
 Red. masses --      9.6594                 5.0631                 7.3233
 Frc consts  --      0.0281                 0.0340                 0.0657
 IR Inten    --      3.2310                 0.1956                 5.1347

                      7                      8                      9
                      A                      A                      A
 Frequencies --    126.6289               167.9792               187.5453
 Red. masses --      6.3728                 6.8857                 7.1071
 Frc consts  --      0.0602                 0.1145                 0.1473
 IR Inten    --      0.2263                 1.1313                 4.5158

                     10                     11                     12
                      A                      A                      A
 Frequencies --    254.6136               266.4302               281.3976
 Red. masses --      6.6105                 6.3791                 6.3802
 Frc consts  --      0.2525                 0.2668                 0.2977
 IR Inten    --      3.5713                 5.8805                 9.1220

                     13                     14                     15
                      A                      A                      A
 Frequencies --    351.7364               353.5679               386.2488
 Red. masses --      6.1772                 6.1618                10.1059
 Frc consts  --      0.4503                 0.4538                 0.8883
 IR Inten    --      5.9392                30.9200                30.5530

                     16                     17                     18
                      A                      A                      A
 Frequencies --    412.0605               417.5337               418.9775
 Red. masses --     10.5505                 3.2151                 3.7756
 Frc consts  --      1.0555                 0.3302                 0.3905
 IR Inten    --     15.4155                 1.2713                 0.6017

                     19                     20                     21
                      A                      A                      A
 Frequencies --    444.1296               451.8482               473.5646
 Red. masses --      5.0448                 7.2705                 7.1949
 Frc consts  --      0.5863                 0.8746                 0.9507
 IR Inten    --      7.0048                22.5064                 7.1606

                     22                     23                     24
                      A                      A                      A
 Frequencies --    516.2051               526.8939               588.2116
 Red. masses --      5.4506                 5.1130                 6.2574
 Frc consts  --      0.8557                 0.8363                 1.2756
 IR Inten    --     11.2334                 2.3882                16.6151

                     25                     26                     27
                      A                      A                      A
 Frequencies --    612.1084               626.9315               643.2695
 Red. masses --      5.9873                 6.1361                 1.1673
 Frc consts  --      1.3217                 1.4210                 0.2846
 IR Inten    --     20.3007                 1.6840               126.8610

                     28                     29                     30
                      A                      A                      A
 Frequencies --    666.1425               694.2874               698.2348
 Red. masses --      6.9339                 2.1065                 4.7015
 Frc consts  --      1.8128                 0.5983                 1.3505
 IR Inten    --      8.0043                41.4002                38.1555

                     31                     32                     33
                      A                      A                      A
 Frequencies --    718.0192               730.7215               735.3283
 Red. masses --      4.8700                 3.2756                 4.2582
 Frc consts  --      1.4793                 1.0305                 1.3566
 IR Inten    --     11.0013                77.8447                31.6680

                     34                     35                     36
                      A                      A                      A
 Frequencies --    777.2262               788.4626               805.2375
 Red. masses --      4.5194                 2.1797                 1.9110
 Frc consts  --      1.6085                 0.7984                 0.7301
 IR Inten    --     12.6538                53.4233                35.3913

                     37                     38                     39
                      A                      A                      A
 Frequencies --    853.5017               862.3699               911.4400
 Red. masses --      1.2524                 6.6695                 1.4419
 Frc consts  --      0.5375                 2.9223                 0.7058
 IR Inten    --      0.0753                26.2877                 1.4031

                     40                     41                     42
                      A                      A                      A
 Frequencies --    914.7459               952.7413               979.9327
 Red. masses --      4.7679                 1.4230                 8.7770
 Frc consts  --      2.3506                 0.7610                 4.9658
 IR Inten    --      7.4721                10.6657               219.6648

                     43                     44                     45
                      A                      A                      A
 Frequencies --    999.2137              1000.8379              1012.5418
 Red. masses --      1.3868                 1.3738                 5.7072
 Frc consts  --      0.8158                 0.8108                 3.4474
 IR Inten    --      1.9439                 0.6376                 6.6494

                     46                     47                     48
                      A                      A                      A
 Frequencies --   1016.8125              1023.0547              1035.3090
 Red. masses --      1.3292                 1.3371                 2.1249
 Frc consts  --      0.8097                 0.8245                 1.3419
 IR Inten    --      0.2118                 0.0980                34.4471

                     49                     50                     51
                      A                      A                      A
 Frequencies --   1043.5338              1062.9093              1097.0320
 Red. masses --      4.3024                 2.2980                 1.4850
 Frc consts  --      2.7604                 1.5296                 1.0530
 IR Inten    --     52.2017                53.4826                11.3029

                     52                     53                     54
                      A                      A                      A
 Frequencies --   1112.8062              1159.2606              1176.9998
 Red. masses --      2.1195                 1.6915                 1.2314
 Frc consts  --      1.5464                 1.3394                 1.0051
 IR Inten    --      0.9356               282.0837                13.6279

                     55                     56                     57
                      A                      A                      A
 Frequencies --   1178.8647              1187.8305              1219.8694
 Red. masses --      1.1837                 1.8396                 2.5785
 Frc consts  --      0.9692                 1.5293                 2.2607
 IR Inten    --     22.5812                39.5184                68.2531

                     58                     59                     60
                      A                      A                      A
 Frequencies --   1232.8213              1286.5331              1298.7292
 Red. masses --      2.5369                 4.9566                 2.7755
 Frc consts  --      2.2717                 4.8336                 2.7583
 IR Inten    --     59.0426               320.8677               520.6995

                     61                     62                     63
                      A                      A                      A
 Frequencies --   1302.9185              1335.9443              1347.8777
 Red. masses --      1.8897                 1.6246                 4.5426
 Frc consts  --      1.8901                 1.7083                 4.8624
 IR Inten    --    385.7126                47.6891                29.1622

                     64                     65                     66
                      A                      A                      A
 Frequencies --   1360.1892              1370.0105              1477.3253
 Red. masses --      4.2764                 4.0761                 2.3986
 Frc consts  --      4.6615                 4.5075                 3.0844
 IR Inten    --    421.7633               842.8150                32.9126

                     67                     68                     69
                      A                      A                      A
 Frequencies --   1482.5842              1501.1602              1504.6370
 Red. masses --      2.3549                 2.4055                 2.6303
 Frc consts  --      3.0498                 3.1938                 3.5084
 IR Inten    --     10.8873                 7.8126                17.6127

                     70                     71                     72
                      A                      A                      A
 Frequencies --   1537.1708              1609.8733              1617.9510
 Red. masses --      6.0795                 6.5044                 5.8982
 Frc consts  --      8.4638                 9.9321                 9.0971
 IR Inten    --     56.8413                 2.4808                12.5631

                     73                     74                     75
                      A                      A                      A
 Frequencies --   1618.7726              1632.9455              1666.6012
 Red. masses --      5.9244                 6.0065                 7.0461
 Frc consts  --      9.1467                 9.4366                11.5308
 IR Inten    --    227.9647                 8.9355               225.8398

                     76                     77                     78
                      A                      A                      A
 Frequencies --   1685.1686              1696.5452              3171.9591
 Red. masses --     11.9239                12.4412                 1.0865
 Frc consts  --     19.9506                21.0982                 6.4410
 IR Inten    --    602.0319               279.4914                 1.3444

                     79                     80                     81
                      A                      A                      A
 Frequencies --   3180.6654              3182.1131              3188.3814
 Red. masses --      1.0892                 1.0877                 1.0927
 Frc consts  --      6.4925                 6.4891                 6.5444
 IR Inten    --      7.9155                 3.1015                20.4665

                     82                     83                     84
                      A                      A                      A
 Frequencies --   3193.7360              3197.3757              3204.3686
 Red. masses --      1.0912                 1.0971                 1.0938
 Frc consts  --      6.5576                 6.6082                 6.6171
 IR Inten    --      7.4428                29.4506                 5.0595

                     85                     86                     87
                      A                      A                      A
 Frequencies --   3207.7063              3208.4773              3593.8645
 Red. masses --      1.0932                 1.0952                 1.0643
 Frc consts  --      6.6272                 6.6425                 8.0994
 IR Inten    --      6.8686                15.3519               418.9437

 - Thermochemistry -
 -------------------
 Temperature   298.150 Kelvin.  Pressure   1.00000 Atm.
 Atom     1 has atomic number  6 and mass  12.00000

 Molecular mass:   278.06914 amu.
 Principal axes and moments of inertia in atomic units:
                           1         2         3
     Eigenvalues --  2290.48678********************
           X            0.89489   0.32925   0.30127
           Y           -0.43825   0.52081   0.73260
           Z           -0.08431   0.78762  -0.61036
 This molecule is an asymmetric top.
 Rotational symmetry number  1.
 Warning -- assumption of classical behavior for rotation
           may cause significant error
 Rotational temperatures (Kelvin)      0.03781     0.00727     0.00626
 Rotational constants (GHZ):           0.78793     0.15142     0.13045
 Zero-point vibrational energy     593451.2 (Joules/Mol)
                                  141.83825 (Kcal/Mol)
 Warning -- explicit consideration of  25 degrees of freedom as
           vibrations may cause significant error
 Vibrational temperatures:     29.62    48.07    65.39   101.01   153.57
          (Kelvin)            177.48   182.19   241.68   269.84   366.33
                              383.33   404.87   506.07   508.71   555.73
                              592.86   600.74   602.82   639.00   650.11
                              681.35   742.70   758.08   846.31   880.69
                              902.01   925.52   958.43   998.92  1004.60
                             1033.07  1051.35  1057.97  1118.26  1134.42
                             1158.56  1228.00  1240.76  1311.36  1316.12
                             1370.78  1409.90  1437.65  1439.98  1456.82
                             1462.97  1471.95  1489.58  1501.41  1529.29
                             1578.38  1601.08  1667.92  1693.44  1696.12
                             1709.02  1755.12  1773.75  1851.03  1868.58
                             1874.61  1922.13  1939.30  1957.01  1971.14
                             2125.54  2133.11  2159.83  2164.84  2211.65
                             2316.25  2327.87  2329.05  2349.44  2397.87
                             2424.58  2440.95  4563.74  4576.27  4578.35
                             4587.37  4595.07  4600.31  4610.37  4615.17
                             4616.28  5170.77

 Zero-point correction=                           0.226034 (Hartree/Particle)
 Thermal correction to Energy=                    0.242422
 Thermal correction to Enthalpy=                  0.243367
 Thermal correction to Gibbs Free Energy=         0.180088
 Sum of electronic and zero-point Energies=           -950.891219
 Sum of electronic and thermal Energies=              -950.874831
 Sum of electronic and thermal Enthalpies=            -950.873886
 Sum of electronic and thermal Free Energies=         -950.937165

                     E (Thermal)             CV                S
                      KCal/Mol        Cal/Mol-Kelvin    Cal/Mol-Kelvin
 Total                  152.122             64.061            133.180
 Electronic               0.000              0.000              0.000
 Translational            0.889              2.981             42.766
 Rotational               0.889              2.981             34.290
 Vibrational            150.345             58.100             56.124
 Vibration     1          0.593              1.986              6.577
 Vibration     2          0.594              1.983              5.616
 Vibration     3          0.595              1.979              5.006
 Vibration     4          0.598              1.968              4.147
 Vibration     5          0.606              1.944              3.327
 Vibration     6          0.610              1.930              3.047
 Vibration     7          0.611              1.927              2.997
 Vibration     8          0.625              1.882              2.458
 Vibration     9          0.632              1.857              2.252
 Vibration    10          0.665              1.755              1.698
 Vibration    11          0.672              1.735              1.619
 Vibration    12          0.681              1.708              1.525
 Vibration    13          0.728              1.572              1.158
 Vibration    14          0.730              1.568              1.150
 Vibration    15          0.755              1.500              1.015
 Vibration    16          0.776              1.444              0.919
 Vibration    17          0.781              1.432              0.900
 Vibration    18          0.782              1.429              0.895
 Vibration    19          0.804              1.374              0.814
 Vibration    20          0.811              1.357              0.790
 Vibration    21          0.830              1.309              0.728
 Vibration    22          0.871              1.214              0.619
 Vibration    23          0.882              1.190              0.594
 Vibration    24          0.945              1.057              0.470
 Vibration    25          0.971              1.006              0.429

                           ! Non-Optimized Parameters !
 Normal termination of Gaussian 16 at Sun Feb 11 17:52:20 2024.
