 Gaussian 16, Revision A.03,
 Gaussian 16:  ES64L-G16RevA.03 25-Dec-2016

 --------------------------------------
 #P UB3LYP/6-311++G(d,p) nosym opt freq
 --------------------------------------

 -------
 Radical
 -------
 Symbolic Z-matrix:
 Charge = -1 Multiplicity = 2

 SCF Done:  E(UB3LYP) =  -1109.88513076     A.U. after   23 cycles
 SCF Done:  E(UB3LYP) =  -1109.89795738     A.U. after   21 cycles
 SCF Done:  E(UB3LYP) =  -1109.90081363     A.U. after   21 cycles
 SCF Done:  E(UB3LYP) =  -1109.90147181     A.U. after   20 cycles
 SCF Done:  E(UB3LYP) =  -1109.90200331     A.U. after   21 cycles
 SCF Done:  E(UB3LYP) =  -1109.90273076     A.U. after   21 cycles
 SCF Done:  E(UB3LYP) =  -1109.90318952     A.U. after   20 cycles
 SCF Done:  E(UB3LYP) =  -1109.90340840     A.U. after   17 cycles
 SCF Done:  E(UB3LYP) =  -1109.90357789     A.U. after   16 cycles
 SCF Done:  E(UB3LYP) =  -1109.90371257     A.U. after   17 cycles
 SCF Done:  E(UB3LYP) =  -1109.90936927     A.U. after   21 cycles
 SCF Done:  E(UB3LYP) =  -1109.90950993     A.U. after   18 cycles
 SCF Done:  E(UB3LYP) =  -1109.90957501     A.U. after   16 cycles
 SCF Done:  E(UB3LYP) =  -1109.90958775     A.U. after   13 cycles
 SCF Done:  E(UB3LYP) =  -1109.90959143     A.U. after   14 cycles
 SCF Done:  E(UB3LYP) =  -1109.90959184     A.U. after   14 cycles
 SCF Done:  E(UB3LYP) =  -1109.90959292     A.U. after   13 cycles
 SCF Done:  E(UB3LYP) =  -1109.90959317     A.U. after   12 cycles
 SCF Done:  E(UB3LYP) =  -1109.90959324     A.U. after   10 cycles
 Optimization completed.
    -- Stationary point found.
 Normal termination of Gaussian 16 at Thu Dec 21 11:51:55 2023.

 ----------------------------------------------------------------------
 #P Geom=AllCheck Guess=TCheck SCRF=Check GenChk UB3LYP/6-311++G(d,p) F
 req
 ----------------------------------------------------------------------

 Structure from the checkpoint file:  "149-rad.chk"
 -------
 Radical
 -------
 Charge = -1 Multiplicity = 2

                          Input orientation:
 ---------------------------------------------------------------------
 Center     Atomic      Atomic             Coordinates (Angstroms)
 Number     Number       Type             X           Y           Z
 ---------------------------------------------------------------------
      1          6           0       -3.071099    3.547972    1.067199
      2          6           0       -3.987569    2.925024    1.890340
      3          6           0       -3.846009    1.553342    2.193372
      4          6           0       -1.981707    2.837363    0.515964
      5          6           0       -1.840894    1.457719    0.821946
      6          6           0       -2.789891    0.839012    1.665228
      7          6           0       -1.040324    3.555169   -0.353093
      8          6           0        0.080952    2.774224   -0.882948
      9          6           0        0.208908    1.374443   -0.585619
     10          6           0       -0.739882    0.665876    0.278452
     11          6           0        1.081063    3.333701   -1.727848
     12          6           0        2.105484    2.580088   -2.262081
     13          6           0        2.203276    1.207337   -1.965219
     14          6           0        1.270796    0.625397   -1.135323
     15          8           0       -1.218866    4.770968   -0.613132
     16          8           0       -0.612431   -0.556087    0.536095
     17          1           0       -2.654409   -0.215040    1.877947
     18          1           0        1.313738   -0.426059   -0.878334
     19          1           0       -3.155721    4.599222    0.818891
     20          8           0        1.042753    4.669189   -2.129615
     21          1           0        3.011504    0.619841   -2.388713
     22          1           0       -4.567217    1.063305    2.840632
     23          6           0        1.551689    5.638683   -1.318460
     24          6           0        1.397473    6.968944   -1.760810
     25          6           0        2.241852    5.387471   -0.132946
     26          6           0        2.791187    6.440291    0.599272
     27          6           0        1.959882    8.006449   -1.025404
     28          6           0        2.662117    7.752253    0.154272
     29          8           0        0.760220    7.254449   -2.943444
     30          6           0       -0.663638    7.033061   -2.938004
     31          1           0       -4.817235    3.489107    2.305912
     32          1           0        2.823094    3.072202   -2.908521
     33          1           0        2.347222    4.366433    0.210256
     34          1           0        3.322068    6.223996    1.520183
     35          1           0        1.834105    9.016561   -1.399693
     36          1           0        3.092193    8.572176    0.718923
     37          1           0       -0.971396    7.018926   -3.984673
     38          1           0       -1.162011    7.862712   -2.421524
     39          1           0       -0.921289    6.094851   -2.445831
 ---------------------------------------------------------------------

 SCF Done:  E(UB3LYP) =  -1109.90959324     A.U. after    1 cycles

 Alpha  occ. eigenvalues --  -19.05557 -19.03887 -18.95690 -18.95659 -10.13951
 Alpha  occ. eigenvalues --  -10.13000 -10.12905 -10.11163 -10.10719 -10.10707
 Alpha  occ. eigenvalues --  -10.08148 -10.08011 -10.07906 -10.07587 -10.07120
 Alpha  occ. eigenvalues --  -10.07115 -10.06917 -10.06770 -10.06720 -10.06515
 Alpha  occ. eigenvalues --  -10.06144 -10.06085 -10.06069 -10.05999 -10.05963
 Alpha  occ. eigenvalues --   -0.98079  -0.94834  -0.88537  -0.88263  -0.76163
 Alpha  occ. eigenvalues --   -0.75085  -0.74269  -0.67801  -0.66561  -0.65707
 Alpha  occ. eigenvalues --   -0.64001  -0.63335  -0.62987  -0.58596  -0.55960
 Alpha  occ. eigenvalues --   -0.54364  -0.52322  -0.51296  -0.50225  -0.47678
 Alpha  occ. eigenvalues --   -0.45780  -0.43561  -0.42590  -0.41962  -0.39634
 Alpha  occ. eigenvalues --   -0.39496  -0.37133  -0.36913  -0.36309  -0.35851
 Alpha  occ. eigenvalues --   -0.34967  -0.34872  -0.34239  -0.33179  -0.31501
 Alpha  occ. eigenvalues --   -0.31386  -0.30910  -0.30299  -0.29783  -0.29348
 Alpha  occ. eigenvalues --   -0.28873  -0.27790  -0.27332  -0.27049  -0.26155
 Alpha  occ. eigenvalues --   -0.25568  -0.25270  -0.24545  -0.23938  -0.23225
 Alpha  occ. eigenvalues --   -0.22639  -0.22412  -0.18306  -0.15625  -0.15243
 Alpha  occ. eigenvalues --   -0.14636  -0.14261  -0.14128  -0.12658  -0.12603
 Alpha  occ. eigenvalues --   -0.11483  -0.02696
 Alpha virt. eigenvalues --    0.05608   0.06986   0.07821   0.07910   0.08160
 Alpha virt. eigenvalues --    0.08397   0.08766   0.09301   0.09640   0.09893
 Alpha virt. eigenvalues --    0.10354   0.10450   0.10857   0.11633   0.11670

  Beta  occ. eigenvalues --  -19.05556 -19.03887 -18.95095 -18.95058 -10.13949
  Beta  occ. eigenvalues --  -10.13002 -10.12906 -10.11028 -10.10707 -10.10596
  Beta  occ. eigenvalues --  -10.08148 -10.08010 -10.07906 -10.07588 -10.07038
  Beta  occ. eigenvalues --  -10.07026 -10.06863 -10.06727 -10.06675 -10.06392
  Beta  occ. eigenvalues --  -10.06164 -10.06090 -10.06028 -10.05970 -10.05887
  Beta  occ. eigenvalues --   -0.98070  -0.94832  -0.87519  -0.87219  -0.76110
  Beta  occ. eigenvalues --   -0.74870  -0.74159  -0.67398  -0.66479  -0.65705
  Beta  occ. eigenvalues --   -0.63825  -0.63135  -0.62881  -0.58582  -0.55321
  Beta  occ. eigenvalues --   -0.54233  -0.52187  -0.51042  -0.50210  -0.47641
  Beta  occ. eigenvalues --   -0.45662  -0.43333  -0.42464  -0.41908  -0.39624
  Beta  occ. eigenvalues --   -0.39372  -0.37068  -0.36871  -0.36074  -0.35822
  Beta  occ. eigenvalues --   -0.34831  -0.34778  -0.34221  -0.33154  -0.31400
  Beta  occ. eigenvalues --   -0.31226  -0.30739  -0.29679  -0.29382  -0.28881
  Beta  occ. eigenvalues --   -0.28688  -0.27676  -0.27146  -0.26902  -0.25469
  Beta  occ. eigenvalues --   -0.25168  -0.24459  -0.23969  -0.23580  -0.23051
  Beta  occ. eigenvalues --   -0.22327  -0.21559  -0.18294  -0.15248  -0.14338
  Beta  occ. eigenvalues --   -0.13654  -0.13383  -0.13103  -0.12503  -0.12061
  Beta  occ. eigenvalues --   -0.11014
  Beta virt. eigenvalues --    0.03237   0.06454   0.06989   0.07819   0.08069
  Beta virt. eigenvalues --    0.08178   0.08578   0.09152   0.09457   0.09828
  Beta virt. eigenvalues --    0.09917   0.10444   0.10513   0.10896   0.11630

 Mulliken charges and spin densities:
               1          2
     1  C   -0.110577   0.017159
     2  C   -0.379505   0.037293
     3  C   -0.451766   0.032848
     4  C    0.243240   0.033172
     5  C    0.327918   0.042554
     6  C   -0.055610   0.014229
     7  C   -0.475058   0.060330
     8  C    0.324098   0.065943
     9  C    0.760497   0.089441
    10  C   -0.891196   0.054980
    11  C   -0.282495   0.012261
    12  C    0.284369   0.039734
    13  C   -0.408562   0.060910
    14  C   -0.074788   0.003620
    15  O   -0.309680   0.229289
    16  O   -0.361070   0.222079
    17  H    0.166385  -0.001138
    18  H    0.179656  -0.000876
    19  H    0.143274  -0.001052
    20  O   -0.033306  -0.002399
    21  H    0.145531  -0.004709
    22  H    0.124395  -0.002813
    23  C    0.396060  -0.002469
    24  C   -0.588625   0.014905
    25  C   -0.229419  -0.014533
    26  C   -0.365704   0.001689
    27  C    0.164143   0.001214
    28  C   -0.194537   0.001110
    29  O   -0.151171  -0.000126
    30  C   -0.275146   0.000882
    31  H    0.131554  -0.003079
    32  H    0.149651  -0.003274
    33  H    0.166499   0.000018
    34  H    0.160311  -0.000061
    35  H    0.165242  -0.000066
    36  H    0.127560   0.000212
    37  H    0.120977   0.000084
    38  H    0.098102  -0.000119
    39  H    0.258751   0.000760
 Sum of Mulliken charges =  -1.00000   1.00000

 Dipole moment (field-independent basis, Debye):
    X=              1.9472    Y=            -13.7831    Z=              2.0398  Tot=             14.0687
 Quadrupole moment (field-independent basis, Debye-Ang):
   XX=           -161.0963   YY=           -231.8347   ZZ=           -160.9872
   XY=             -5.7127   XZ=              7.5030   YZ=             20.4503

  Exact polarizability: 319.991  10.971 342.589 -76.241 -26.483 246.365
 Approx polarizability: 484.183 -28.314 566.950-109.558 -44.743 405.831

                      1                      2                      3
                      A                      A                      A
 Frequencies --     19.8326                38.3010                47.5794
 Red. masses --      5.5697                 6.8669                 5.7759
 Frc consts  --      0.0013                 0.0059                 0.0077
 IR Inten    --      0.3090                 0.0841                 2.1157

                      4                      5                      6
                      A                      A                      A
 Frequencies --     62.4333                92.3167               102.9882
 Red. masses --      5.9556                 3.1013                 4.2478
 Frc consts  --      0.0137                 0.0156                 0.0265
 IR Inten    --      5.0955                 3.1625                 1.4918

                      7                      8                      9
                      A                      A                      A
 Frequencies --    133.4332               138.8300               144.6840
 Red. masses --      4.5763                 3.6068                 1.1767
 Frc consts  --      0.0480                 0.0410                 0.0145
 IR Inten    --      0.0694                 2.8105                 1.0874

                     10                     11                     12
                      A                      A                      A
 Frequencies --    165.2378               184.2501               213.6003
 Red. masses --      6.9416                 4.6605                 5.9586
 Frc consts  --      0.1117                 0.0932                 0.1602
 IR Inten    --      1.9288                 5.3013                 5.8242

                     13                     14                     15
                      A                      A                      A
 Frequencies --    217.5870               238.9975               280.6086
 Red. masses --      4.7577                 5.0376                 5.4480
 Frc consts  --      0.1327                 0.1695                 0.2527
 IR Inten    --      0.1066                 0.7142                 0.1625

                     16                     17                     18
                      A                      A                      A
 Frequencies --    312.0211               350.4757               354.8855
 Red. masses --      7.8425                 4.5894                 5.8113
 Frc consts  --      0.4499                 0.3321                 0.4312
 IR Inten    --      1.6197                 3.3845                 0.6161

                     19                     20                     21
                      A                      A                      A
 Frequencies --    390.3263               400.5330               417.4613
 Red. masses --     12.2181                 8.5300                 6.1649
 Frc consts  --      1.0968                 0.8063                 0.6330
 IR Inten    --      6.7603                 1.7827                 0.0396

                     22                     23                     24
                      A                      A                      A
 Frequencies --    436.0447               458.9878               470.0693
 Red. masses --      3.6222                 5.6774                 5.8409
 Frc consts  --      0.4058                 0.7047                 0.7604
 IR Inten    --      0.6074                 2.3739                 0.8746

                     25                     26                     27
                      A                      A                      A
 Frequencies --    480.2711               496.5376               501.1625
 Red. masses --      5.3530                 6.8354                 4.0290
 Frc consts  --      0.7275                 0.9929                 0.5962
 IR Inten    --      2.2234                 0.9757                 0.2113

                     28                     29                     30
                      A                      A                      A
 Frequencies --    510.2105               559.1010               594.7376
 Red. masses --      5.7076                 5.0739                 4.7069
 Frc consts  --      0.8754                 0.9345                 0.9809
 IR Inten    --      1.5352                 4.3392                 3.1675

                     31                     32                     33
                      A                      A                      A
 Frequencies --    597.4294               613.7274               627.5778
 Red. masses --      5.7516                 6.2984                 5.7336
 Frc consts  --      1.2095                 1.3978                 1.3305
 IR Inten    --      2.9457                15.1893                 1.2814

                     34                     35                     36
                      A                      A                      A
 Frequencies --    656.5533               677.0448               696.7170
 Red. masses --      5.1835                 5.0654                 6.6924
 Frc consts  --      1.3165                 1.3680                 1.9140
 IR Inten    --      9.5236                 9.7331                 2.7862

                     37                     38                     39
                      A                      A                      A
 Frequencies --    707.7694               735.3302               742.9506
 Red. masses --      2.6922                 3.0586                 1.6461
 Frc consts  --      0.7946                 0.9744                 0.5353
 IR Inten    --     50.4848                 4.6011                46.1454

                     40                     41                     42
                      A                      A                      A
 Frequencies --    755.0709               765.4777               787.6927
 Red. masses --      2.1185                 2.0029                 2.3237
 Frc consts  --      0.7116                 0.6915                 0.8495
 IR Inten    --      5.4752                13.0627                13.6300

                     43                     44                     45
                      A                      A                      A
 Frequencies --    788.3694               797.6297               828.2587
 Red. masses --      2.9764                 5.6479                 3.4149
 Frc consts  --      1.0899                 2.1171                 1.3803
 IR Inten    --     29.8357                 0.7150                14.7382

                     46                     47                     48
                      A                      A                      A
 Frequencies --    840.7115               858.5518               874.3698
 Red. masses --      4.0281                 1.7633                 1.5066
 Frc consts  --      1.6774                 0.7658                 0.6787
 IR Inten    --      8.9752                 0.5854                 0.1142

                     49                     50                     51
                      A                      A                      A
 Frequencies --    895.6478               907.3933               928.9740
 Red. masses --      6.7209                 1.5291                 1.3927
 Frc consts  --      3.1765                 0.7418                 0.7081
 IR Inten    --     69.8945                 2.8376                 3.9639

                     52                     53                     54
                      A                      A                      A
 Frequencies --    935.2925               955.7925               983.9058
 Red. masses --      6.5525                 1.2545                 1.3256
 Frc consts  --      3.3772                 0.6752                 0.7561
 IR Inten    --      0.2020                 0.0406                 0.5154

                     55                     56                     57
                      A                      A                      A
 Frequencies --    987.8924               988.1037              1011.0164
 Red. masses --      1.2842                 1.3187                 7.8600
 Frc consts  --      0.7384                 0.7586                 4.7336
 IR Inten    --      0.4506                 2.0059                38.6515

                     58                     59                     60
                      A                      A                      A
 Frequencies --   1016.3905              1041.7561              1058.0942
 Red. masses --      5.8051                 2.0447                 1.9527
 Frc consts  --      3.5333                 1.3074                 1.2881
 IR Inten    --     47.2021                24.9156                32.3070

                     61                     62                     63
                      A                      A                      A
 Frequencies --   1079.3612              1111.1183              1120.8851
 Red. masses --      1.9365                 2.1217                 1.7959
 Frc consts  --      1.3292                 1.5433                 1.3294
 IR Inten    --     33.2295                11.6720                44.4368

                     64                     65                     66
                      A                      A                      A
 Frequencies --   1141.3319              1167.8423              1170.4881
 Red. masses --      1.4823                 1.2658                 1.1712
 Frc consts  --      1.1376                 1.0171                 0.9454
 IR Inten    --     25.0563                 8.8288                 1.4708

                     67                     68                     69
                      A                      A                      A
 Frequencies --   1173.3891              1184.0978              1195.7160
 Red. masses --      1.1310                 2.8649                 1.5887
 Frc consts  --      0.9175                 2.3667                 1.3383
 IR Inten    --      8.9311                 8.7462                22.9579

                     70                     71                     72
                      A                      A                      A
 Frequencies --   1202.9085              1220.6747              1228.0868
 Red. masses --      2.2535                 2.8931                 2.4783
 Frc consts  --      1.9212                 2.5399                 2.2023
 IR Inten    --     14.4512                12.2684                23.4700

                     73                     74                     75
                      A                      A                      A
 Frequencies --   1246.5163              1249.1604              1284.3626
 Red. masses --      3.0489                 1.9534                 3.1146
 Frc consts  --      2.7912                 1.7959                 3.0271
 IR Inten    --    314.7385                 8.0000               261.9410

                     76                     77                     78
                      A                      A                      A
 Frequencies --   1292.6919              1332.0170              1335.5809
 Red. masses --      1.7399                 4.5526                 6.4312
 Frc consts  --      1.7130                 4.7592                 6.7590
 IR Inten    --     53.5378                22.8287                17.6529

                     79                     80                     81
                      A                      A                      A
 Frequencies --   1352.6458              1365.2538              1408.5853
 Red. masses --      3.9227                10.7074                 3.5793
 Frc consts  --      4.2287                11.7587                 4.1842
 IR Inten    --     13.7511                 3.4154               278.6658

                     82                     83                     84
                      A                      A                      A
 Frequencies --   1437.1727              1468.9969              1481.7134
 Red. masses --      2.5953                 1.5971                 2.5456
 Frc consts  --      3.1584                 2.0305                 3.2929
 IR Inten    --     91.6125                12.0696                57.0962

                     85                     86                     87
                      A                      A                      A
 Frequencies --   1483.7899              1485.1142              1493.7817
 Red. masses --      1.9777                 1.9546                 1.1465
 Frc consts  --      2.5655                 2.5400                 1.5073
 IR Inten    --     19.2754                14.7269                25.7930

                     88                     89                     90
                      A                      A                      A
 Frequencies --   1509.0479              1523.2680              1531.8453
 Red. masses --      1.0862                 2.8550                 4.7646
 Frc consts  --      1.4573                 3.9031                 6.5873
 IR Inten    --     25.0425               231.2726               659.4644

                     91                     92                     93
                      A                      A                      A
 Frequencies --   1538.6261              1560.2306              1611.2352
 Red. masses --      6.0094                 5.7332                 6.7991
 Frc consts  --      8.3819                 8.2229                10.3997
 IR Inten    --     56.2847               107.6576                 5.8881

                     94                     95                     96
                      A                      A                      A
 Frequencies --   1616.8690              1622.6966              1630.4896
 Red. masses --      6.9056                 6.8752                 6.1584
 Frc consts  --     10.6366                10.6662                 9.6462
 IR Inten    --     12.1222                20.7749                 0.4443

                     97                     98                     99
                      A                      A                      A
 Frequencies --   1632.2559              2995.9494              3082.0942
 Red. masses --      6.3515                 1.0416                 1.0904
 Frc consts  --      9.9702                 5.5084                 6.1030
 IR Inten    --     39.9725               112.1932                57.0576

                    100                    101                    102
                      A                      A                      A
 Frequencies --   3131.1595              3136.9804              3151.8449
 Red. masses --      1.1085                 1.0849                 1.0866
 Frc consts  --      6.4029                 6.2903                 6.3600
 IR Inten    --     10.9963                17.2590                28.1786

                    103                    104                    105
                      A                      A                      A
 Frequencies --   3153.1307              3155.8237              3167.7374
 Red. masses --      1.0847                 1.0914                 1.0903
 Frc consts  --      6.3540                 6.4041                 6.4463
 IR Inten    --      2.1412                49.9863                27.9574

                    106                    107                    108
                      A                      A                      A
 Frequencies --   3180.2931              3180.5419              3185.2675
 Red. masses --      1.0920                 1.0954                 1.0918
 Frc consts  --      6.5072                 6.5285                 6.5264
 IR Inten    --     14.1182                35.2748                14.2362

                    109                    110                    111
                      A                      A                      A
 Frequencies --   3189.1797              3191.7348              3199.2323
 Red. masses --      1.0924                 1.0929                 1.0924
 Frc consts  --      6.5460                 6.5595                 6.5877
 IR Inten    --     26.3195                13.3364                 2.4076

 - Thermochemistry -
 -------------------
 Temperature   298.150 Kelvin.  Pressure   1.00000 Atm.
 Atom     1 has atomic number  6 and mass  12.00000

 Molecular mass:   330.08921 amu.
 Principal axes and moments of inertia in atomic units:
                           1         2         3
     Eigenvalues --  4824.27564********************
           X            0.51625   0.70589   0.48499
           Y            0.78672  -0.61465   0.05719
           Z           -0.33847  -0.35203   0.87265
 This molecule is an asymmetric top.
 Rotational symmetry number  1.
 Warning -- assumption of classical behavior for rotation
           may cause significant error
 Rotational temperatures (Kelvin)      0.01795     0.00762     0.00630
 Rotational constants (GHZ):           0.37410     0.15880     0.13133
 Zero-point vibrational energy     768396.2 (Joules/Mol)
                                  183.65110 (Kcal/Mol)
 Warning -- explicit consideration of  32 degrees of freedom as
           vibrations may cause significant error
 Vibrational temperatures:     28.53    55.11    68.46    89.83   132.82
          (Kelvin)            148.18   191.98   199.75   208.17   237.74
                              265.09   307.32   313.06   343.86   403.73
                              448.93   504.26   510.60   561.59   576.28
                              600.63   627.37   660.38   676.32   691.00
                              714.41   721.06   734.08   804.42   855.69
                              859.57   883.02   902.94   944.63   974.12
                             1002.42  1018.32  1057.98  1068.94  1086.38
                             1101.35  1133.31  1134.29  1147.61  1191.68
                             1209.60  1235.26  1258.02  1288.64  1305.54
                             1336.59  1345.68  1375.17  1415.62  1421.36
                             1421.66  1454.63  1462.36  1498.85  1522.36
                             1552.96  1598.65  1612.70  1642.12  1680.26
                             1684.07  1688.25  1703.65  1720.37  1730.72
                             1756.28  1766.94  1793.46  1797.26  1847.91
                             1859.90  1916.48  1921.60  1946.16  1964.30
                             2026.64  2067.77  2113.56  2131.86  2134.84
                             2136.75  2149.22  2171.18  2191.64  2203.98
                             2213.74  2244.82  2318.21  2326.31  2334.70
                             2345.91  2348.45  4310.50  4434.45  4505.04
                             4513.42  4534.80  4536.65  4540.53  4557.67
                             4575.73  4576.09  4582.89  4588.52  4592.19
                             4602.98

 Zero-point correction=                           0.292667 (Hartree/Particle)
 Thermal correction to Energy=                    0.312381
 Thermal correction to Enthalpy=                  0.313325
 Thermal correction to Gibbs Free Energy=         0.242925
 Sum of electronic and zero-point Energies=          -1109.616927
 Sum of electronic and thermal Energies=             -1109.597212
 Sum of electronic and thermal Enthalpies=           -1109.596268
 Sum of electronic and thermal Free Energies=        -1109.666668

                     E (Thermal)             CV                S
                      KCal/Mol        Cal/Mol-Kelvin    Cal/Mol-Kelvin
 Total                  196.022             78.489            148.168
 Electronic               0.000              0.000              1.377
 Translational            0.889              2.981             43.278
 Rotational               0.889              2.981             34.976
 Vibrational            194.244             72.527             68.538
 Vibration     1          0.593              1.986              6.651
 Vibration     2          0.594              1.982              5.345
 Vibration     3          0.595              1.978              4.916
 Vibration     4          0.597              1.972              4.379
 Vibration     5          0.602              1.955              3.610
 Vibration     6          0.605              1.947              3.397
 Vibration     7          0.613              1.920              2.896
 Vibration     8          0.614              1.915              2.820
 Vibration     9          0.616              1.908              2.741
 Vibration    10          0.624              1.885              2.489
 Vibration    11          0.631              1.861              2.285
 Vibration    12          0.644              1.820              2.013
 Vibration    13          0.646              1.814              1.979
 Vibration    14          0.657              1.781              1.810
 Vibration    15          0.680              1.709              1.530
 Vibration    16          0.700              1.651              1.352
 Vibration    17          0.727              1.574              1.164
 Vibration    18          0.731              1.565              1.144
 Vibration    19          0.758              1.491              0.999
 Vibration    20          0.766              1.469              0.961
 Vibration    21          0.780              1.432              0.901
 Vibration    22          0.796              1.392              0.839
 Vibration    23          0.817              1.341              0.769
 Vibration    24          0.827              1.316              0.737
 Vibration    25          0.837              1.294              0.709
 Vibration    26          0.852              1.258              0.667
 Vibration    27          0.857              1.247              0.655
 Vibration    28          0.865              1.227              0.633
 Vibration    29          0.915              1.120              0.526
 Vibration    30          0.952              1.043              0.459
 Vibration    31          0.955              1.037              0.454
 Vibration    32          0.973              1.003              0.427

 Optimization completed.
    -- Stationary point found.
 Normal termination of Gaussian 16 at Thu Dec 21 13:27:30 2023.
