 Q-Chem 5.4, Q-Chem, Inc., Pleasanton, CA (2021)
 Q-Chem 5.4.0 for Intel X86 EM64T Linux

User input:
--------------------------------------------------------------
$molecule
-2 1
C                  2.6521810000      1.4395060000      0.8661480000
C                  2.3289120000      0.5215050000     -0.3337490000
C                  3.5879860000     -0.2414300000     -0.7696240000
C                  1.1182260000     -0.3520010000     -0.0384690000
C                  1.2334400000     -1.7029160000      0.2950740000
C                  0.1184020000     -2.5595620000      0.5795080000
O                  0.2426840000     -3.8082220000      0.8982180000
C                 -1.1497760000     -1.8989970000      0.4728310000
C                 -1.3066070000     -0.5529660000      0.1361520000
C                 -2.7139040000      0.0264010000      0.0539950000
C                 -2.9437010000      1.1520070000      1.0842380000
C                 -3.0554910000      0.5207620000     -1.3672330000
C                 -0.1718880000      0.2954750000     -0.1306440000
O                 -0.2946340000      1.5527800000     -0.4457450000
H                  3.4741770000      2.1354820000      0.6318550000
H                  2.9529180000      0.8403840000      1.7348850000
H                  1.7646300000      2.0189870000      1.1274680000
H                  2.0283540000      1.1903810000     -1.1518200000
H                  4.3864200000      0.4542450000     -1.0579760000
H                  3.3803980000     -0.8969860000     -1.6217840000
H                  3.9798660000     -0.8715500000      0.0374710000
H                  2.2138130000     -2.1709440000      0.3591350000
H                 -2.0340870000     -2.5068120000      0.6739010000
H                 -3.4095860000     -0.7905420000      0.2965140000
H                 -2.2272310000      1.9556720000      0.8967350000
H                 -3.9683850000      1.5519830000      1.0197640000
H                 -2.7867890000      0.7759030000      2.1012030000
H                 -4.0772640000      0.9301370000     -1.4155840000
H                 -2.9834570000     -0.3039650000     -2.0849440000
H                 -2.3396050000      1.2952850000     -1.6543770000
$end
$rem
MAX_SCF_CYCLES=200
BASIS  =  6-311++G(d,p)
GUI  =  2
JOB_TYPE  =  SP
METHOD  =  B3LYP
SOLVENT_METHOD = PCM
$end
$pcm
theory = CPCM
$end
$solvent
dielectric 37.219
opticaldielectric 1.43
$end

--------------------------------------------------------------

             Standard Nuclear Orientation (Angstroms)
    I     Atom           X                Y                Z
 ----------------------------------------------------------------
    1      C       2.6521810000     1.4395060000     0.8661480000
    2      C       2.3289120000     0.5215050000    -0.3337490000
    3      C       3.5879860000    -0.2414300000    -0.7696240000
    4      C       1.1182260000    -0.3520010000    -0.0384690000
    5      C       1.2334400000    -1.7029160000     0.2950740000
    6      C       0.1184020000    -2.5595620000     0.5795080000
    7      O       0.2426840000    -3.8082220000     0.8982180000
    8      C      -1.1497760000    -1.8989970000     0.4728310000
    9      C      -1.3066070000    -0.5529660000     0.1361520000
   10      C      -2.7139040000     0.0264010000     0.0539950000
   11      C      -2.9437010000     1.1520070000     1.0842380000
   12      C      -3.0554910000     0.5207620000    -1.3672330000
   13      C      -0.1718880000     0.2954750000    -0.1306440000
   14      O      -0.2946340000     1.5527800000    -0.4457450000
   15      H       3.4741770000     2.1354820000     0.6318550000
   16      H       2.9529180000     0.8403840000     1.7348850000
   17      H       1.7646300000     2.0189870000     1.1274680000
   18      H       2.0283540000     1.1903810000    -1.1518200000
   19      H       4.3864200000     0.4542450000    -1.0579760000
   20      H       3.3803980000    -0.8969860000    -1.6217840000
   21      H       3.9798660000    -0.8715500000     0.0374710000
   22      H       2.2138130000    -2.1709440000     0.3591350000
   23      H      -2.0340870000    -2.5068120000     0.6739010000
   24      H      -3.4095860000    -0.7905420000     0.2965140000
   25      H      -2.2272310000     1.9556720000     0.8967350000
   26      H      -3.9683850000     1.5519830000     1.0197640000
   27      H      -2.7867890000     0.7759030000     2.1012030000
   28      H      -4.0772640000     0.9301370000    -1.4155840000
   29      H      -2.9834570000    -0.3039650000    -2.0849440000
   30      H      -2.3396050000     1.2952850000    -1.6543770000
 ----------------------------------------------------------------

    9    -617.7713178391      7.74e-06  Convergence criterion met
 Total energy in the final basis set =     -617.7713178391

                    Orbital Energies (a.u.)
 --------------------------------------------------------------

 Alpha MOs
 -- Occupied --
-19.0113 -19.0024 -10.1600 -10.1548 -10.1477 -10.1468 -10.1388 -10.1365
-10.1326 -10.1326 -10.1200 -10.1191 -10.1099 -10.1097  -0.9239  -0.9165
 -0.7882  -0.7776  -0.7392  -0.6791  -0.6633  -0.6583  -0.6331  -0.5817
 -0.5657  -0.5098  -0.4976  -0.4481  -0.4253  -0.4236  -0.4100  -0.4083
 -0.3995  -0.3865  -0.3783  -0.3672  -0.3644  -0.3566  -0.3397  -0.3360
 -0.3334  -0.3180  -0.3169  -0.3158  -0.3045  -0.2972  -0.2929  -0.2860
 -0.2157  -0.1991  -0.1914  -0.1797  -0.1088

          Ground-State Mulliken Net Atomic Charges

     Atom                 Charge (a.u.)
  ----------------------------------------
      1 C                    -0.710687
      2 C                     0.228751
      3 C                    -0.570480
      4 C                     1.045465
      5 C                    -0.228102
      6 C                    -0.673659
      7 O                    -0.769083
      8 C                    -0.230806
      9 C                     0.609775
     10 C                     0.287912
     11 C                    -0.671362
     12 C                    -0.681560
     13 C                    -1.200333
     14 O                    -0.695980
     15 H                     0.124186
     16 H                     0.137252
     17 H                     0.171882
     18 H                     0.154822
     19 H                     0.158481
     20 H                     0.130978
     21 H                     0.136706
     22 H                     0.121611
     23 H                     0.123017
     24 H                     0.152501
     25 H                     0.174501
     26 H                     0.129084
     27 H                     0.120835
     28 H                     0.129113
     29 H                     0.120164
     30 H                     0.175016
  ----------------------------------------
  Sum of atomic charges =    -2.000000

                    Cartesian Multipole Moments
 -----------------------------------------------------------------
    Charge (ESU x 10^10)
                -9.6064
    Dipole Moment (Debye)
         X       0.2617      Y      11.5296      Z      -2.4746
       Tot      11.7951
    Quadrupole Moments (Debye-Ang)
        XX    -103.3392     XY       6.0945     YY    -170.8249
        XZ      -1.8873     YZ      16.7404     ZZ    -103.1731

 Total job time:  40.47s(wall), 299.19s(cpu)
        *  Thank you very much for using Q-Chem.  Have a nice day.  *
