 Gaussian 16, Revision A.03,
 Gaussian 16:  ES64L-G16RevA.03 25-Dec-2016

 --------------------------------------
 #P UB3LYP/6-311++G(d,p) nosym opt freq
 --------------------------------------

 -------
 Reduced
 -------
 Symbolic Z-matrix:
 Charge = -2 Multiplicity = 1

 SCF Done:  E(UB3LYP) =  -617.490800938     A.U. after   42 cycles
 SCF Done:  E(UB3LYP) =  -617.490800948     A.U. after   50 cycles
 SCF Done:  E(UB3LYP) =  -617.490800947     A.U. after   42 cycles
 Optimization completed.
    -- Stationary point found.
 Normal termination of Gaussian 16 at Sat Jan  6 06:14:09 2024.

 ----------------------------------------------------------------------
 #P Geom=AllCheck Guess=TCheck SCRF=Check GenChk UB3LYP/6-311++G(d,p) F
 req
 ----------------------------------------------------------------------

 Structure from the checkpoint file:  "047-an.chk"
 -------
 Reduced
 -------
 Charge = -2 Multiplicity = 1

                          Input orientation:
 ---------------------------------------------------------------------
 Center     Atomic      Atomic             Coordinates (Angstroms)
 Number     Number       Type             X           Y           Z
 ---------------------------------------------------------------------
      1          6           0        2.652181    1.439506    0.866148
      2          6           0        2.328912    0.521505   -0.333749
      3          6           0        3.587986   -0.241430   -0.769624
      4          6           0        1.118226   -0.352001   -0.038469
      5          6           0        1.233440   -1.702916    0.295074
      6          6           0        0.118402   -2.559562    0.579508
      7          8           0        0.242684   -3.808222    0.898218
      8          6           0       -1.149776   -1.898997    0.472831
      9          6           0       -1.306607   -0.552966    0.136152
     10          6           0       -2.713904    0.026401    0.053995
     11          6           0       -2.943701    1.152007    1.084238
     12          6           0       -3.055491    0.520762   -1.367233
     13          6           0       -0.171888    0.295475   -0.130644
     14          8           0       -0.294634    1.552780   -0.445745
     15          1           0        3.474177    2.135482    0.631855
     16          1           0        2.952918    0.840384    1.734885
     17          1           0        1.764630    2.018987    1.127468
     18          1           0        2.028354    1.190381   -1.151820
     19          1           0        4.386420    0.454245   -1.057976
     20          1           0        3.380398   -0.896986   -1.621784
     21          1           0        3.979866   -0.871550    0.037471
     22          1           0        2.213813   -2.170944    0.359135
     23          1           0       -2.034087   -2.506812    0.673901
     24          1           0       -3.409586   -0.790542    0.296514
     25          1           0       -2.227231    1.955672    0.896735
     26          1           0       -3.968385    1.551983    1.019764
     27          1           0       -2.786789    0.775903    2.101203
     28          1           0       -4.077264    0.930137   -1.415584
     29          1           0       -2.983457   -0.303965   -2.084944
     30          1           0       -2.339605    1.295285   -1.654377
 ---------------------------------------------------------------------

 SCF Done:  E(UB3LYP) =  -617.490800947     A.U. after   10 cycles

 Alpha  occ. eigenvalues --  -18.77027 -18.76450  -9.93857  -9.92935  -9.92895
 Alpha  occ. eigenvalues --   -9.92884  -9.92579  -9.92498  -9.92248  -9.92009
 Alpha  occ. eigenvalues --   -9.89064  -9.88902  -9.87884  -9.87495  -0.68252
 Alpha  occ. eigenvalues --   -0.67302  -0.56624  -0.56023  -0.51444  -0.45373
 Alpha  occ. eigenvalues --   -0.45224  -0.44939  -0.40106  -0.35725  -0.34808
 Alpha  occ. eigenvalues --   -0.28552  -0.27114  -0.22806  -0.20946  -0.20395
 Alpha  occ. eigenvalues --   -0.19541  -0.18268  -0.17976  -0.17605  -0.15823
 Alpha  occ. eigenvalues --   -0.15579  -0.15252  -0.12148  -0.11685  -0.11081
 Alpha  occ. eigenvalues --   -0.10456  -0.10164  -0.09612  -0.09033  -0.08500
 Alpha  occ. eigenvalues --   -0.06585  -0.06272  -0.05164   0.02930   0.03549
 Alpha  occ. eigenvalues --    0.05488   0.06175   0.13737
 Alpha virt. eigenvalues --    0.15462   0.15795   0.17827   0.17998   0.19010
 Alpha virt. eigenvalues --    0.19409   0.19745   0.20999   0.21567   0.21766
 Alpha virt. eigenvalues --    0.22251   0.22456   0.22744   0.23500   0.24570

  Beta  occ. eigenvalues --  -18.77027 -18.76450  -9.93857  -9.92935  -9.92895
  Beta  occ. eigenvalues --   -9.92884  -9.92579  -9.92498  -9.92248  -9.92009
  Beta  occ. eigenvalues --   -9.89064  -9.88902  -9.87884  -9.87495  -0.68252
  Beta  occ. eigenvalues --   -0.67302  -0.56624  -0.56023  -0.51444  -0.45373
  Beta  occ. eigenvalues --   -0.45224  -0.44939  -0.40106  -0.35725  -0.34808
  Beta  occ. eigenvalues --   -0.28552  -0.27114  -0.22806  -0.20946  -0.20395
  Beta  occ. eigenvalues --   -0.19541  -0.18268  -0.17976  -0.17605  -0.15823
  Beta  occ. eigenvalues --   -0.15579  -0.15252  -0.12148  -0.11685  -0.11081
  Beta  occ. eigenvalues --   -0.10456  -0.10164  -0.09612  -0.09033  -0.08500
  Beta  occ. eigenvalues --   -0.06585  -0.06272  -0.05164   0.02930   0.03549
  Beta  occ. eigenvalues --    0.05488   0.06175   0.13737
  Beta virt. eigenvalues --    0.15462   0.15795   0.17827   0.17998   0.19010
  Beta virt. eigenvalues --    0.19409   0.19745   0.20999   0.21567   0.21766
  Beta virt. eigenvalues --    0.22251   0.22456   0.22744   0.23500   0.24570

 Mulliken charges and spin densities:
               1          2
     1  C    0.265296   0.000000
     2  C   -2.194539  -0.000000
     3  C    0.329436  -0.000000
     4  C    3.118593   0.000000
     5  C    0.197909  -0.000000
     6  C   -1.213454   0.000000
     7  O   -0.541405  -0.000000
     8  C   -0.158978   0.000000
     9  C    1.189634  -0.000000
    10  C    0.275740   0.000000
    11  C   -0.646156   0.000000
    12  C   -0.664444  -0.000000
    13  C   -1.700960   0.000000
    14  O   -0.492464  -0.000000
    15  H   -0.607306  -0.000000
    16  H    0.066547   0.000000
    17  H    0.243424  -0.000000
    18  H    0.135447   0.000000
    19  H   -0.737378   0.000000
    20  H    0.081429  -0.000000
    21  H    0.069393   0.000000
    22  H    0.113493  -0.000000
    23  H    0.066387   0.000000
    24  H    0.115133  -0.000000
    25  H    0.205371  -0.000000
    26  H    0.055469  -0.000000
    27  H    0.090219  -0.000000
    28  H    0.054208   0.000000
    29  H    0.088852   0.000000
    30  H    0.195102  -0.000000
 Sum of Mulliken charges =  -2.00000   0.00000

 Dipole moment (field-independent basis, Debye):
    X=             -6.4084    Y=              5.6317    Z=             -1.1569  Tot=              8.6094
 Quadrupole moment (field-independent basis, Debye-Ang):
   XX=           -163.0298   YY=           -170.2825   ZZ=           -110.2466
   XY=             -9.6475   XZ=              2.8876   YZ=             13.5240

  Exact polarizability:1279.100 324.909 663.301-227.775  86.438 495.266
 Approx polarizability:3603.3931729.8221479.218-533.024-241.455 471.966

                      1                      2                      3
                      A                      A                      A
 Frequencies --     43.8933                68.2882                77.0391
 Red. masses --      2.7968                 2.8745                 4.2842
 Frc consts  --      0.0032                 0.0079                 0.0150
 IR Inten    --      4.4453                 0.7017                 0.3029

                      4                      5                      6
                      A                      A                      A
 Frequencies --    142.5677               156.3928               163.6795
 Red. masses --      3.4645                 3.8017                 4.6356
 Frc consts  --      0.0415                 0.0548                 0.0732
 IR Inten    --      9.0671                13.0803                 2.8237

                      7                      8                      9
                      A                      A                      A
 Frequencies --    212.7879               238.1545               252.5246
 Red. masses --      2.8689                 1.0277                 1.1405
 Frc consts  --      0.0765                 0.0343                 0.0428
 IR Inten    --      0.8998                 0.4201                 0.8098

                     10                     11                     12
                      A                      A                      A
 Frequencies --    260.3225               273.4326               279.6491
 Red. masses --      1.4412                 1.5157                 2.3808
 Frc consts  --      0.0575                 0.0668                 0.1097
 IR Inten    --      3.0032                15.6396                 2.9159

                     13                     14                     15
                      A                      A                      A
 Frequencies --    283.9160               297.7183               325.0926
 Red. masses --      1.5945                 3.5462                 3.5458
 Frc consts  --      0.0757                 0.1852                 0.2208
 IR Inten    --     20.0268                 2.9746                 3.2298

                     16                     17                     18
                      A                      A                      A
 Frequencies --    395.0874               412.4296               431.7803
 Red. masses --      4.1190                 3.3293                 3.7742
 Frc consts  --      0.3788                 0.3337                 0.4146
 IR Inten    --      2.1700                56.4335                80.5620

                     19                     20                     21
                      A                      A                      A
 Frequencies --    452.4928               460.8876               519.6602
 Red. masses --      3.2761                 5.7257                 3.5604
 Frc consts  --      0.3952                 0.7166                 0.5665
 IR Inten    --    127.6687               600.6741                30.7520

                     22                     23                     24
                      A                      A                      A
 Frequencies --    553.5919               617.3822               635.7114
 Red. masses --      3.8150                 3.6991                 2.2725
 Frc consts  --      0.6889                 0.8307                 0.5411
 IR Inten    --     31.2450                 9.6147                 2.4649

                     25                     26                     27
                      A                      A                      A
 Frequencies --    677.4720               783.3636               806.6225
 Red. masses --      3.5667                 6.8861                 4.9751
 Frc consts  --      0.9645                 2.4897                 1.9072
 IR Inten    --      3.4113                11.1280                39.8518

                     28                     29                     30
                      A                      A                      A
 Frequencies --    817.4120               824.9960               843.3367
 Red. masses --      3.4973                 1.4071                 1.9353
 Frc consts  --      1.3768                 0.5643                 0.8110
 IR Inten    --     19.9833                 6.5324                17.4303

                     31                     32                     33
                      A                      A                      A
 Frequencies --    859.7980               917.5974               918.9906
 Red. masses --      2.7625                 1.2475                 1.1577
 Frc consts  --      1.2032                 0.6189                 0.5761
 IR Inten    --     35.4499                48.7174                 3.2587

                     34                     35                     36
                      A                      A                      A
 Frequencies --    933.8666               943.6989               953.3393
 Red. masses --      2.0608                 1.5997                 1.6139
 Frc consts  --      1.0589                 0.8394                 0.8642
 IR Inten    --     34.6709                 0.5611                49.2175

                     37                     38                     39
                      A                      A                      A
 Frequencies --    971.0983              1058.4115              1092.4999
 Red. masses --      2.7607                 1.7183                 1.6486
 Frc consts  --      1.5339                 1.1341                 1.1593
 IR Inten    --    102.9451               197.8759               395.3929

                     40                     41                     42
                      A                      A                      A
 Frequencies --   1112.7878              1115.8448              1138.4553
 Red. masses --      2.3090                 2.2212                 2.1730
 Frc consts  --      1.6846                 1.6295                 1.6593
 IR Inten    --      4.1894                16.0314               134.2074

                     43                     44                     45
                      A                      A                      A
 Frequencies --   1164.1338              1191.1059              1202.2983
 Red. masses --      2.0795                 1.9797                 2.1013
 Frc consts  --      1.6604                 1.6549                 1.7896
 IR Inten    --     68.1811               108.4812                10.1590

                     46                     47                     48
                      A                      A                      A
 Frequencies --   1232.6796              1280.0105              1327.0965
 Red. masses --      1.8204                 2.3960                 1.6668
 Frc consts  --      1.6298                 2.3130                 1.7296
 IR Inten    --     41.8747                77.3095                36.6457

                     49                     50                     51
                      A                      A                      A
 Frequencies --   1331.4721              1339.1176              1343.0139
 Red. masses --      1.5414                 1.2380                 1.7794
 Frc consts  --      1.6100                 1.3080                 1.8909
 IR Inten    --    561.3015                 0.7180               681.9137

                     52                     53                     54
                      A                      A                      A
 Frequencies --   1347.6324              1355.1788              1362.3218
 Red. masses --      2.6166                 1.2632                 1.2710
 Frc consts  --      2.7998                 1.3668                 1.3898
 IR Inten    --   1318.2700                17.4942               136.6244

                     55                     56                     57
                      A                      A                      A
 Frequencies --   1379.7883              1388.2811              1423.2844
 Red. masses --      1.5494                 1.2725                 4.7197
 Frc consts  --      1.7380                 1.4450                 5.6331
 IR Inten    --    164.3779               122.3148               129.9854

                     58                     59                     60
                      A                      A                      A
 Frequencies --   1447.7462              1465.0323              1472.7279
 Red. masses --      3.1734                 1.0407                 1.1862
 Frc consts  --      3.9188                 1.3161                 1.5159
 IR Inten    --    446.8057                 0.0389                30.6263

                     61                     62                     63
                      A                      A                      A
 Frequencies --   1478.6522              1483.3218              1486.5822
 Red. masses --      1.0789                 1.5267                 1.7853
 Frc consts  --      1.3899                 1.9791                 2.3245
 IR Inten    --    152.0047                90.6683                36.5855

                     64                     65                     66
                      A                      A                      A
 Frequencies --   1493.7172              1503.0207              1505.4717
 Red. masses --      1.0581                 1.0546                 1.0698
 Frc consts  --      1.3910                 1.4036                 1.4286
 IR Inten    --     37.7593                 0.0973                 7.5618

                     67                     68                     69
                      A                      A                      A
 Frequencies --   1518.5459              1583.4353              2935.8926
 Red. masses --      1.0670                 5.6451                 1.0555
 Frc consts  --      1.4496                 8.3391                 5.3605
 IR Inten    --      3.4462              3061.1876               129.2916

                     70                     71                     72
                      A                      A                      A
 Frequencies --   2942.7394              2946.1552              2962.6958
 Red. masses --      1.0524                 1.0642                 1.0695
 Frc consts  --      5.3693                 5.4426                 5.5311
 IR Inten    --    108.3944               367.1875               858.6379

                     73                     74                     75
                      A                      A                      A
 Frequencies --   2979.3851              2986.6820              3020.4357
 Red. masses --      1.0817                 1.0379                 1.0874
 Frc consts  --      5.6574                 5.4549                 5.8447
 IR Inten    --     53.0176                68.8786                19.0381

                     76                     77                     78
                      A                      A                      A
 Frequencies --   3028.2255              3033.7355              3036.8882
 Red. masses --      1.0782                 1.0817                 1.0959
 Frc consts  --      5.8253                 5.8655                 5.9551
 IR Inten    --     43.4533                44.5503               188.9868

                     79                     80                     81
                      A                      A                      A
 Frequencies --   3058.6437              3074.9000              3082.5085
 Red. masses --      1.0995                 1.0868                 1.1000
 Frc consts  --      6.0607                 6.0543                 6.1581
 IR Inten    --     23.0288               352.0899                 5.7317

                     82                     83                     84
                      A                      A                      A
 Frequencies --   3087.0510              3096.8976              3116.7278
 Red. masses --      1.0992                 1.0953                 1.0861
 Frc consts  --      6.1716                 6.1891                 6.2159
 IR Inten    --     17.6562                 3.3450               106.1459

 - Thermochemistry -
 -------------------
 Temperature   298.150 Kelvin.  Pressure   1.00000 Atm.
 Atom     1 has atomic number  6 and mass  12.00000

 Molecular mass:   192.11503 amu.
 Principal axes and moments of inertia in atomic units:
                           1         2         3
     Eigenvalues --  2099.690673325.374554778.90474
           X            0.99411   0.10758   0.01301
           Y           -0.10820   0.97897   0.17293
           Z            0.00587  -0.17332   0.98485
 This molecule is an asymmetric top.
 Rotational symmetry number  1.
 Warning -- assumption of classical behavior for rotation
           may cause significant error
 Rotational temperatures (Kelvin)      0.04125     0.02605     0.01812
 Rotational constants (GHZ):           0.85953     0.54272     0.37765
 Zero-point vibrational energy     650884.0 (Joules/Mol)
                                  155.56501 (Kcal/Mol)
 Warning -- explicit consideration of  23 degrees of freedom as
           vibrations may cause significant error
 Vibrational temperatures:     63.15    98.25   110.84   205.12   225.01
          (Kelvin)            235.50   306.15   342.65   363.33   374.55
                              393.41   402.35   408.49   428.35   467.74
                              568.44   593.39   621.24   651.04   663.11
                              747.68   796.50   888.28   914.65   974.73
                             1127.09  1160.55  1176.07  1186.99  1213.37
                             1237.06  1320.22  1322.22  1343.63  1357.77
                             1371.64  1397.19  1522.82  1571.86  1601.05
                             1605.45  1637.98  1674.93  1713.74  1729.84
                             1773.55  1841.65  1909.40  1915.69  1926.69
                             1932.30  1938.94  1949.80  1960.08  1985.21
                             1997.43  2047.79  2082.98  2107.85  2118.93
                             2127.45  2134.17  2138.86  2149.13  2162.51
                             2166.04  2184.85  2278.21  4224.09  4233.95
                             4238.86  4262.66  4286.67  4297.17  4345.73
                             4356.94  4364.87  4369.40  4400.71  4424.10
                             4435.04  4441.58  4455.74  4484.28

 Zero-point correction=                           0.247909 (Hartree/Particle)
 Thermal correction to Energy=                    0.262508
 Thermal correction to Enthalpy=                  0.263452
 Thermal correction to Gibbs Free Energy=         0.207144
 Sum of electronic and zero-point Energies=           -617.242892
 Sum of electronic and thermal Energies=              -617.228293
 Sum of electronic and thermal Enthalpies=            -617.227349
 Sum of electronic and thermal Free Energies=         -617.283656

                     E (Thermal)             CV                S
                      KCal/Mol        Cal/Mol-Kelvin    Cal/Mol-Kelvin
 Total                  164.726             56.119            118.510
 Electronic               0.000              0.000              0.000
 Translational            0.889              2.981             41.664
 Rotational               0.889              2.981             31.879
 Vibrational            162.949             50.158             44.967
 Vibration     1          0.595              1.980              5.075
 Vibration     2          0.598              1.969              4.202
 Vibration     3          0.599              1.964              3.965
 Vibration     4          0.616              1.911              2.769
 Vibration     5          0.620              1.896              2.593
 Vibration     6          0.623              1.887              2.507
 Vibration     7          0.644              1.821              2.020
 Vibration     8          0.656              1.782              1.817
 Vibration     9          0.664              1.759              1.713
 Vibration    10          0.668              1.745              1.660
 Vibration    11          0.676              1.722              1.574
 Vibration    12          0.680              1.711              1.536
 Vibration    13          0.682              1.703              1.510
 Vibration    14          0.691              1.678              1.430
 Vibration    15          0.709              1.625              1.284
 Vibration    16          0.762              1.481              0.981
 Vibration    17          0.776              1.443              0.918
 Vibration    18          0.793              1.401              0.853
 Vibration    19          0.811              1.355              0.788
 Vibration    20          0.819              1.337              0.764
 Vibration    21          0.875              1.206              0.611
 Vibration    22          0.909              1.132              0.537
 Vibration    23          0.977              0.995              0.421

 Optimization completed.
    -- Stationary point found.
 Normal termination of Gaussian 16 at Sat Jan  6 06:45:46 2024.
