 Q-Chem 5.4, Q-Chem, Inc., Pleasanton, CA (2021)
 Q-Chem 5.4.0 for Intel X86 EM64T Linux

User input:
--------------------------------------------------------------
$molecule
-1 2
O                  4.6096990000      1.5042680000     -1.4117710000
C                  3.4997010000      0.9532340000     -0.8163250000
C                  2.2353340000      1.1970690000     -1.3156810000
C                  1.1064300000      0.6243340000     -0.6943250000
C                 -0.2227840000      0.8772200000     -1.2147870000
O                 -0.4186450000      1.6190180000     -2.2424890000
C                 -1.3363840000      0.2588920000     -0.5298590000
C                 -2.6508650000      0.4835040000     -1.0099000000
O                 -2.8856130000      1.2621180000     -2.0931450000
C                 -3.7588400000     -0.0851260000     -0.3909060000
O                 -5.0144790000      0.1558980000     -0.8852820000
C                 -3.5755210000     -0.9028350000      0.7381880000
O                 -4.7053670000     -1.4406400000      1.3125430000
C                 -2.3035090000     -1.1400250000      1.2295540000
C                 -1.1709240000     -0.5721360000      0.6148430000
C                  0.1537180000     -0.8263380000      1.1363900000
O                  0.3470820000     -1.5701750000      2.1671450000
C                  1.2663540000     -0.2094360000      0.4529400000
C                  2.5778250000     -0.4397700000      0.9408590000
O                  2.8137030000     -1.2180920000      2.0241980000
C                  3.6687600000      0.1343150000      0.3126000000
O                  4.9526210000     -0.0819230000      0.7781310000
H                  5.3807520000      1.2102370000     -0.9106540000
H                  2.0997590000      1.8269570000     -2.1847950000
H                 -1.9516150000      1.5674530000     -2.3801530000
H                 -4.8844430000      0.7351960000     -1.6502920000
H                 -4.4251640000     -1.9707650000      2.0655450000
H                 -2.1519540000     -1.7697620000      2.1004940000
H                  1.8760440000     -1.5220510000      2.3078950000
H                  4.8683280000     -0.6606430000      1.5490390000
$end

$rem
BASIS  =  6-311++G(d,p)
GUI  =  2
JOB_TYPE  =  SP
METHOD  =  B3LYP
SCF_CONVERGENCE  = 8
SOLVENT_METHOD = sm12
$end

$smx
solvent dimethylformamide
charges CM5
$end

--------------------------------------------------------------

             Standard Nuclear Orientation (Angstroms)
    I     Atom           X                Y                Z
 ----------------------------------------------------------------
    1      O       4.6096990000     1.5042680000    -1.4117710000
    2      C       3.4997010000     0.9532340000    -0.8163250000
    3      C       2.2353340000     1.1970690000    -1.3156810000
    4      C       1.1064300000     0.6243340000    -0.6943250000
    5      C      -0.2227840000     0.8772200000    -1.2147870000
    6      O      -0.4186450000     1.6190180000    -2.2424890000
    7      C      -1.3363840000     0.2588920000    -0.5298590000
    8      C      -2.6508650000     0.4835040000    -1.0099000000
    9      O      -2.8856130000     1.2621180000    -2.0931450000
   10      C      -3.7588400000    -0.0851260000    -0.3909060000
   11      O      -5.0144790000     0.1558980000    -0.8852820000
   12      C      -3.5755210000    -0.9028350000     0.7381880000
   13      O      -4.7053670000    -1.4406400000     1.3125430000
   14      C      -2.3035090000    -1.1400250000     1.2295540000
   15      C      -1.1709240000    -0.5721360000     0.6148430000
   16      C       0.1537180000    -0.8263380000     1.1363900000
   17      O       0.3470820000    -1.5701750000     2.1671450000
   18      C       1.2663540000    -0.2094360000     0.4529400000
   19      C       2.5778250000    -0.4397700000     0.9408590000
   20      O       2.8137030000    -1.2180920000     2.0241980000
   21      C       3.6687600000     0.1343150000     0.3126000000
   22      O       4.9526210000    -0.0819230000     0.7781310000
   23      H       5.3807520000     1.2102370000    -0.9106540000
   24      H       2.0997590000     1.8269570000    -2.1847950000
   25      H      -1.9516150000     1.5674530000    -2.3801530000
   26      H      -4.8844430000     0.7351960000    -1.6502920000
   27      H      -4.4251640000    -1.9707650000     2.0655450000
   28      H      -2.1519540000    -1.7697620000     2.1004940000
   29      H       1.8760440000    -1.5220510000     2.3078950000
   30      H       4.8683280000    -0.6606430000     1.5490390000
 ----------------------------------------------------------------

   17   -1140.5468972735      6.27e-09  Convergence criterion met
 Total energy in the final basis set =    -1140.6410360501

                    Orbital Energies (a.u.)
 --------------------------------------------------------------

 Alpha MOs
 -- Occupied --
-19.1688 -19.1624 -19.1620 -19.1572 -19.1407 -19.1399 -19.0923 -19.0920
-10.2442 -10.2437 -10.2410 -10.2392 -10.2360 -10.2357 -10.2347 -10.2333
-10.1829 -10.1821 -10.1804 -10.1799 -10.1743 -10.1716  -1.0896  -1.0827
 -1.0670  -1.0664  -1.0509  -1.0485  -1.0067  -1.0050  -0.8685  -0.8523
 -0.7911  -0.7568  -0.7467  -0.7443  -0.6820  -0.6653  -0.6451  -0.6368
 -0.6013  -0.5764  -0.5602  -0.5568  -0.5420  -0.5342  -0.5126  -0.4958
 -0.4922  -0.4797  -0.4594  -0.4588  -0.4495  -0.4438  -0.4298  -0.4246
 -0.4227  -0.4161  -0.4151  -0.4061  -0.3975  -0.3927  -0.3845  -0.3788
 -0.3782  -0.3733  -0.3711  -0.3672  -0.3601  -0.3554  -0.3175  -0.3142
 -0.2660  -0.2545  -0.2492  -0.2378  -0.2250  -0.2211  -0.1456

 Beta MOs
 -- Occupied --
-19.1685 -19.1622 -19.1619 -19.1568 -19.1404 -19.1396 -19.0876 -19.0872
-10.2442 -10.2435 -10.2407 -10.2389 -10.2340 -10.2336 -10.2333 -10.2326
-10.1824 -10.1816 -10.1804 -10.1798 -10.1734 -10.1707  -1.0889  -1.0820
 -1.0664  -1.0657  -1.0498  -1.0472  -0.9990  -0.9971  -0.8660  -0.8511
 -0.7876  -0.7532  -0.7450  -0.7430  -0.6754  -0.6639  -0.6435  -0.6356
 -0.5995  -0.5750  -0.5597  -0.5555  -0.5408  -0.5331  -0.5113  -0.4941
 -0.4907  -0.4790  -0.4578  -0.4540  -0.4466  -0.4414  -0.4285  -0.4219
 -0.4210  -0.4135  -0.4072  -0.4000  -0.3964  -0.3885  -0.3838  -0.3774
 -0.3727  -0.3700  -0.3696  -0.3577  -0.3555  -0.3535  -0.3135  -0.2994
 -0.2620  -0.2506  -0.2379  -0.2267  -0.2194  -0.2157

          Ground-State Mulliken Net Atomic Charges

     Atom                 Charge (a.u.)    Spin (a.u.)
  --------------------------------------------------------
      1 O                    -0.188422       0.004054
      2 C                     0.476720       0.007284
      3 C                    -0.464353       0.083456
      4 C                    -0.315479       0.019738
      5 C                    -1.703284       0.121935
      6 O                    -0.374964       0.175534
      7 C                    -0.343570      -0.010382
      8 C                    -0.056965       0.039481
      9 O                    -0.410062       0.009326
     10 C                     0.248478       0.055551
     11 O                    -0.249524       0.009050
     12 C                     0.892750      -0.002547
     13 O                    -0.189106       0.003707
     14 C                     0.633171       0.093758
     15 C                    -0.137903       0.013948
     16 C                    -1.523509       0.127136
     17 O                    -0.353659       0.173546
     18 C                    -0.592071      -0.014443
     19 C                     0.276841       0.041169
     20 O                    -0.384726       0.009344
     21 C                     1.497624       0.052427
     22 O                    -0.231491       0.006780
     23 H                     0.342961      -0.000219
     24 H                     0.152173      -0.005170
     25 H                     0.388744      -0.003929
     26 H                     0.320401      -0.000306
     27 H                     0.357672      -0.000332
     28 H                     0.208265      -0.005771
     29 H                     0.373418      -0.003945
     30 H                     0.349870      -0.000181
  --------------------------------------------------------
  Sum of atomic charges =    -1.000000

                    Cartesian Multipole Moments
 -----------------------------------------------------------------
    Charge (ESU x 10^10)
                -4.8032
    Dipole Moment (Debye)
         X       1.8421      Y      -1.5799      Z       2.3807
       Tot       3.3996
    Quadrupole Moments (Debye-Ang)
        XX    -165.9971     XY      -1.2784     YY    -138.1227
        XZ      -2.9419     YZ       9.1402     ZZ    -143.9691

 Total job time:  968.74s(wall), 7474.05s(cpu)
        *  Thank you very much for using Q-Chem.  Have a nice day.  *
