 Q-Chem 5.4, Q-Chem, Inc., Pleasanton, CA (2021)
 Q-Chem 5.4.0 for Intel X86 EM64T Linux

User input:
--------------------------------------------------------------
$molecule
-1 2
C                 -3.1122970000     -3.2085940000     -0.8264440000
C                 -2.1109130000     -2.1476330000     -0.9525590000
C                 -2.4860540000     -0.8235650000     -0.8203650000
C                 -3.8331430000     -0.3862530000     -0.5364410000
C                 -4.8107030000     -1.4490800000     -0.4162500000
C                 -4.4660370000     -2.7639010000     -0.5573420000
O                 -2.8321610000     -4.4363580000     -0.9274600000
O                 -4.1378110000      0.8361620000     -0.4121300000
C                 -0.6893160000     -2.4783720000     -1.1735300000
C                 -0.0794400000     -3.4438610000     -2.0693460000
C                  0.3565610000     -1.8201540000     -0.5715510000
C                  1.3308840000     -3.2931680000     -1.9664460000
N                  1.5705740000     -2.2917670000     -1.0496280000
C                 -0.5832080000     -4.4007000000     -2.9655460000
C                  0.3036700000     -5.1604000000     -3.7165430000
C                  1.6976490000     -4.9952370000     -3.5939250000
C                  2.2285410000     -4.0598980000     -2.7149650000
H                 -1.7502640000     -0.0350250000     -0.9514650000
H                 -5.8363190000     -1.1528180000     -0.2122000000
H                 -5.2080000000     -3.5524070000     -0.4633230000
H                  0.3254500000     -1.0406730000      0.1735300000
H                  2.4747680000     -2.0161430000     -0.7085640000
H                 -1.6510950000     -4.5611320000     -3.0237720000
H                 -0.0819280000     -5.9075640000     -4.4025350000
H                  2.3657710000     -5.6093920000     -4.1892220000
H                  3.3018590000     -3.9281860000     -2.6157270000
$end
$rem
MAX_SCF_CYCLES=200
BASIS  =  6-311++G(d,p)
GUI  =  2
JOB_TYPE  =  SP
METHOD  =  B3LYP
SOLVENT_METHOD = COSMO
$end
$solvent
dielectric 37.219
opticaldielectric 1.43
$end

--------------------------------------------------------------

             Standard Nuclear Orientation (Angstroms)
    I     Atom           X                Y                Z
 ----------------------------------------------------------------
    1      C       1.4767893983    -1.2458662796    -0.5453484427
    2      C       1.1261538162     0.1117303202    -0.1230934096
    3      C       2.1044623286     0.9588773441     0.3633389768
    4      C       3.5011067427     0.6070888412     0.4734871796
    5      C       3.8295194717    -0.7399929358     0.0525519974
    6      C       2.8772386972    -1.5998134582    -0.4179008290
    7      O       0.6319077269    -2.0640912406    -1.0066159626
    8      O       4.3713228101     1.4135899468     0.9149101172
    9      C      -0.2586127698     0.6058164644    -0.2552103421
   10      C      -1.5189974344    -0.0399968514     0.0625312333
   11      C      -0.5865814632     1.8773908451    -0.6614411652
   12      C      -2.5547163105     0.9093576233    -0.1572938480
   13      N      -1.9583752913     2.0733168055    -0.5936273384
   14      C      -1.8731347618    -1.3144200224     0.5346857039
   15      C      -3.2104575464    -1.6031284645     0.7711352249
   16      C      -4.2192888019    -0.6464734246     0.5418710202
   17      C      -3.9032607190     0.6220381786     0.0725304130
   18      H       1.8378894418     1.9527751763     0.7118722763
   19      H       4.8712753157    -1.0395581668     0.1319320230
   20      H       3.1360952938    -2.6074069702    -0.7322874615
   21      H       0.0647671456     2.6678924159    -0.9999030934
   22      H      -2.4428967318     2.8961942549    -0.9066316642
   23      H      -1.1041421379    -2.0637032592     0.6640546109
   24      H      -3.4885470534    -2.5900449858     1.1263631667
   25      H      -5.2567696841    -0.9044788158     0.7290033967
   26      H      -4.6762127319     1.3634739807    -0.1064273970
 ----------------------------------------------------------------

   11    -744.3564881615      7.58e-06  Convergence criterion met
 Total energy in the final basis set =     -744.3564881615
    5    -744.4521218979      5.81e-06  Convergence criterion met
 Total energy in the final basis set =     -744.4521218979

                    Orbital Energies (a.u.)
 --------------------------------------------------------------

 Alpha MOs
 -- Occupied --
-19.0805 -19.0800 -14.3533 -10.2232 -10.2210 -10.2051 -10.2019 -10.1802
-10.1731 -10.1717 -10.1705 -10.1691 -10.1664 -10.1641 -10.1638 -10.1633
-10.1601  -1.0031  -1.0000  -0.9789  -0.8423  -0.8298  -0.7918  -0.7469
 -0.7356  -0.7139  -0.6834  -0.6258  -0.6174  -0.5931  -0.5788  -0.5483
 -0.5316  -0.4846  -0.4758  -0.4717  -0.4666  -0.4469  -0.4333  -0.4297
 -0.4231  -0.4096  -0.4082  -0.4064  -0.3961  -0.3802  -0.3747  -0.3609
 -0.3576  -0.3404  -0.3379  -0.2981  -0.2801  -0.2585  -0.2472  -0.2419
 -0.2295  -0.2070  -0.1643

 Beta MOs
 -- Occupied --
-19.0738 -19.0730 -14.3532 -10.2218 -10.2196 -10.2051 -10.2016 -10.1790
-10.1730 -10.1717 -10.1706 -10.1691 -10.1664 -10.1638 -10.1630 -10.1622
-10.1592  -0.9911  -0.9880  -0.9786  -0.8422  -0.8248  -0.7897  -0.7453
 -0.7355  -0.7128  -0.6732  -0.6248  -0.6150  -0.5925  -0.5756  -0.5470
 -0.5301  -0.4837  -0.4750  -0.4687  -0.4642  -0.4442  -0.4310  -0.4292
 -0.4224  -0.4080  -0.4011  -0.3982  -0.3871  -0.3738  -0.3592  -0.3568
 -0.3486  -0.3400  -0.3367  -0.2920  -0.2534  -0.2520  -0.2407  -0.2358
 -0.2289  -0.2032

          Ground-State Mulliken Net Atomic Charges

     Atom                 Charge (a.u.)    Spin (a.u.)
  --------------------------------------------------------
      1 C                    -1.098040       0.059014
      2 C                     1.167749       0.109716
      3 C                    -0.589920       0.014701
      4 C                    -0.342931       0.144279
      5 C                    -0.061390       0.077613
      6 C                     0.026294       0.105699
      7 O                    -0.487329       0.252772
      8 O                    -0.559403       0.228070
      9 C                     0.430034       0.021129
     10 C                     1.205421      -0.052758
     11 C                    -0.231940       0.024475
     12 C                     0.103930      -0.010609
     13 N                    -0.137883       0.004056
     14 C                    -0.958707       0.041019
     15 C                    -0.570526       0.004569
     16 C                    -0.303894       0.000755
     17 C                    -0.561290      -0.002082
     18 H                     0.195974      -0.006912
     19 H                     0.205708      -0.006438
     20 H                     0.206956      -0.007382
     21 H                     0.226154      -0.001768
     22 H                     0.363200      -0.000153
     23 H                     0.169725       0.000374
     24 H                     0.202556      -0.000188
     25 H                     0.198484       0.000065
     26 H                     0.201069      -0.000015
  --------------------------------------------------------
  Sum of atomic charges =    -1.000000

                    Cartesian Multipole Moments
 -----------------------------------------------------------------
    Charge (ESU x 10^10)
                -4.8032
    Dipole Moment (Debye)
         X     -12.6761      Y       3.9752      Z      -1.1626
       Tot      13.3356
    Quadrupole Moments (Debye-Ang)
        XX    -146.2059     XY     -24.7918     YY    -103.8466
        XZ      -8.3690     YZ     -15.1504     ZZ    -110.6034

 Total job time:  82.55s(wall), 629.04s(cpu)
        *  Thank you very much for using Q-Chem.  Have a nice day.  *
