 Q-Chem 5.4, Q-Chem, Inc., Pleasanton, CA (2021)
 Q-Chem 5.4.0 for Intel X86 EM64T Linux

User input:
--------------------------------------------------------------
$molecule
0 1
N                  3.5795880000     -1.2794230000     -0.0276780000
C                  2.8899850000     -0.1152570000     -0.1432880000
C                  3.5939200000      1.0962910000     -0.3383910000
C                  2.9258600000      2.2975520000     -0.4550120000
C                  1.5298250000      2.3513540000     -0.3833820000
C                  0.8092980000      1.1808940000     -0.1937110000
C                 -0.6817410000      1.2911750000     -0.1251760000
O                 -1.2099400000      2.4039200000     -0.2354340000
C                 -1.4645420000      0.0698850000      0.0711240000
C                 -2.8899630000      0.1153330000      0.1438670000
N                 -3.5794580000      1.2796740000      0.0293770000
C                 -3.5939340000     -1.0963230000      0.3382020000
C                 -2.9259040000     -2.2976310000      0.4544350000
C                 -1.5298470000     -2.3514000000      0.3831150000
C                 -0.8093000000     -1.1808720000      0.1939560000
C                  0.6817670000     -1.2911470000      0.1256460000
O                  1.2099500000     -2.4038900000      0.2358560000
C                  1.4645750000     -0.0698170000     -0.0705430000
H                  3.0577910000     -2.1378340000      0.0983540000
H                  4.5819220000     -1.2816990000     -0.1025850000
H                  4.6773510000      1.0652420000     -0.3945670000
H                  3.4929260000      3.2099200000     -0.6038620000
H                  0.9942520000      3.2863960000     -0.4728690000
H                 -4.5820060000      1.2815790000      0.1013770000
H                 -3.0577210000      2.1378990000     -0.0981690000
H                 -4.6773740000     -1.0653000000      0.3942000000
H                 -3.4930090000     -3.2100630000      0.6027350000
H                 -0.9942720000     -3.2864580000      0.4724240000
$end

$rem
BASIS  =  6-311++G(d,p)
GUI  =  2
JOB_TYPE  =  SP
METHOD  =  B3LYP
SCF_CONVERGENCE  = 8
SOLVENT_METHOD = sm12
$end

$smx
solvent dimethylformamide
charges CM5
$end

--------------------------------------------------------------

             Standard Nuclear Orientation (Angstroms)
    I     Atom           X                Y                Z
 ----------------------------------------------------------------
    1      N       3.5795880000    -1.2794230000    -0.0276780000
    2      C       2.8899850000    -0.1152570000    -0.1432880000
    3      C       3.5939200000     1.0962910000    -0.3383910000
    4      C       2.9258600000     2.2975520000    -0.4550120000
    5      C       1.5298250000     2.3513540000    -0.3833820000
    6      C       0.8092980000     1.1808940000    -0.1937110000
    7      C      -0.6817410000     1.2911750000    -0.1251760000
    8      O      -1.2099400000     2.4039200000    -0.2354340000
    9      C      -1.4645420000     0.0698850000     0.0711240000
   10      C      -2.8899630000     0.1153330000     0.1438670000
   11      N      -3.5794580000     1.2796740000     0.0293770000
   12      C      -3.5939340000    -1.0963230000     0.3382020000
   13      C      -2.9259040000    -2.2976310000     0.4544350000
   14      C      -1.5298470000    -2.3514000000     0.3831150000
   15      C      -0.8093000000    -1.1808720000     0.1939560000
   16      C       0.6817670000    -1.2911470000     0.1256460000
   17      O       1.2099500000    -2.4038900000     0.2358560000
   18      C       1.4645750000    -0.0698170000    -0.0705430000
   19      H       3.0577910000    -2.1378340000     0.0983540000
   20      H       4.5819220000    -1.2816990000    -0.1025850000
   21      H       4.6773510000     1.0652420000    -0.3945670000
   22      H       3.4929260000     3.2099200000    -0.6038620000
   23      H       0.9942520000     3.2863960000    -0.4728690000
   24      H      -4.5820060000     1.2815790000     0.1013770000
   25      H      -3.0577210000     2.1378990000    -0.0981690000
   26      H      -4.6773740000    -1.0653000000     0.3942000000
   27      H      -3.4930090000    -3.2100630000     0.6027350000
   28      H      -0.9942720000    -3.2864580000     0.4724240000
 ----------------------------------------------------------------

   15    -799.7194245054      1.87e-09  Convergence criterion met
 Total energy in the final basis set =     -799.7451249816

                    Orbital Energies (a.u.)
 --------------------------------------------------------------

 Alpha MOs
 -- Occupied --
-19.1168 -19.1168 -14.3302 -14.3302 -10.2708 -10.2708 -10.2439 -10.2439
-10.2010 -10.2010 -10.1956 -10.1955 -10.1933 -10.1933 -10.1879 -10.1879
-10.1806 -10.1806  -1.0515  -1.0498  -0.9402  -0.9394  -0.8722  -0.8563
 -0.8047  -0.7654  -0.7561  -0.7477  -0.6814  -0.6615  -0.6489  -0.6102
 -0.5859  -0.5801  -0.5530  -0.5324  -0.5233  -0.5079  -0.4941  -0.4847
 -0.4716  -0.4621  -0.4615  -0.4509  -0.4453  -0.4305  -0.4223  -0.4158
 -0.3994  -0.3879  -0.3852  -0.3792  -0.3783  -0.3659  -0.3319  -0.3254
 -0.2832  -0.2781  -0.2713  -0.2657  -0.2254  -0.2189

          Ground-State Mulliken Net Atomic Charges

     Atom                 Charge (a.u.)
  ----------------------------------------
      1 N                    -0.308285
      2 C                     0.147941
      3 C                     1.373638
      4 C                     0.299746
      5 C                    -0.255849
      6 C                     0.009450
      7 C                    -1.765540
      8 O                    -0.273100
      9 C                    -0.761059
     10 C                     0.148171
     11 N                    -0.308568
     12 C                     1.373739
     13 C                     0.299868
     14 C                    -0.255914
     15 C                     0.009811
     16 C                    -1.765657
     17 O                    -0.273093
     18 C                    -0.760263
     19 H                     0.294661
     20 H                     0.438709
     21 H                     0.313374
     22 H                     0.320492
     23 H                     0.165154
     24 H                     0.438798
     25 H                     0.294757
     26 H                     0.313380
     27 H                     0.320492
     28 H                     0.165147
  ----------------------------------------
  Sum of atomic charges =     0.000000

                    Cartesian Multipole Moments
 -----------------------------------------------------------------
    Charge (ESU x 10^10)
                 0.0000
    Dipole Moment (Debye)
         X      -0.0009      Y      -0.0008      Z      -0.0067
       Tot       0.0068
    Quadrupole Moments (Debye-Ang)
        XX     -60.8446     XY       4.2530     YY    -105.5919
        XZ      -3.5975     YZ      -0.6282     ZZ    -109.3142

 Total job time:  623.54s(wall), 4874.57s(cpu)
        *  Thank you very much for using Q-Chem.  Have a nice day.  *
