 Q-Chem 5.4, Q-Chem, Inc., Pleasanton, CA (2021)
 Q-Chem 5.4.0 for Intel X86 EM64T Linux

User input:
--------------------------------------------------------------
$molecule
-1 2
C                  1.3858470000      1.1975660000     -2.9767240000
C                  0.1020590000      1.5734970000     -3.5325700000
C                 -1.0175550000      0.8248040000     -3.3279770000
C                 -1.0111360000     -0.3959850000     -2.5472520000
C                  0.2722850000     -0.8104810000     -1.9876070000
O                  2.4011860000      1.9341110000     -3.0947520000
O                 -2.0677690000     -1.0676910000     -2.3703990000
H                  0.0751520000      2.4972040000     -4.1035770000
C                  1.4172640000     -0.0563290000     -2.2245590000
C                  2.7426140000     -0.4617910000     -1.6837760000
C                  3.9219880000     -0.4808910000     -2.6300720000
C                  5.2008580000     -0.0336220000     -2.2389890000
C                  3.7454240000     -1.0590060000     -3.8899050000
C                  6.2581460000     -0.1870210000     -3.1388810000
C                  6.0805330000     -0.7839610000     -4.3875770000
C                  4.8163790000     -1.2244130000     -4.7655910000
O                  2.9036490000     -0.8465120000     -0.5303400000
C                  5.4369530000      0.6497330000     -0.9138860000
H                  2.7510050000     -1.3781340000     -4.1813700000
H                  7.2423340000      0.1763300000     -2.8567980000
H                  6.9248700000     -0.8926510000     -5.0610640000
H                  4.6590670000     -1.6813100000     -5.7370240000
C                  0.2637880000     -2.0891980000     -1.1910840000
H                 -1.9782900000      1.1211880000     -3.7401160000
H                  0.0222130000     -1.8874160000     -0.1409980000
H                  1.2298630000     -2.5942820000     -1.2014160000
H                 -0.5174610000     -2.7470790000     -1.5761260000
H                  4.7288060000      1.4711880000     -0.7758090000
H                  6.4511420000      1.0561080000     -0.8699250000
H                  5.2929150000     -0.0390560000     -0.0795450000
$end
$rem
MAX_SCF_CYCLES=200
BASIS  =  6-311++G(d,p)
GUI  =  2
JOB_TYPE  =  SP
METHOD  =  B3LYP
SOLVENT_METHOD = COSMO
$end
$solvent
dielectric 37.219
opticaldielectric 1.43
$end

--------------------------------------------------------------

             Standard Nuclear Orientation (Angstroms)
    I     Atom           X                Y                Z
 ----------------------------------------------------------------
    1      C      -0.9641920669     1.1330673710     0.9347437186
    2      C      -2.1960915639     1.8944341596     0.9009093590
    3      C      -3.3281594599     1.4058043729     0.3216009582
    4      C      -3.3871174648     0.0991168925    -0.3020899059
    5      C      -2.1558597261    -0.6858504170    -0.2989871241
    6      O       0.0565802247     1.5496034711     1.5445502756
    7      O      -4.4541573022    -0.3298456126    -0.8277860019
    8      H      -2.1751409461     2.8680492696     1.3822016732
    9      C      -0.9957535079    -0.1688044229     0.2690669248
   10      C       0.2788840656    -0.9360655912     0.2718354370
   11      C       1.5350544185    -0.2312203715    -0.1885917802
   12      C       2.7751197442    -0.4171687371     0.4565168474
   13      C       1.4678716766     0.5404180558    -1.3516186948
   14      C       3.9058484081     0.1861503775    -0.0990490931
   15      C       3.8366900771     0.9384844505    -1.2722225712
   16      C       2.6101575902     1.1159339372    -1.9039722230
   17      O       0.3409515410    -2.1263532169     0.5611797335
   18      C       2.8958844437    -1.1925578926     1.7460130322
   19      H       0.5025067036     0.6895000205    -1.8222658139
   20      H       4.8617674439     0.0691471082     0.4036932060
   21      H       4.7357875504     1.3894288163    -1.6803599713
   22      H       2.5372795823     1.7065657770    -2.8111804864
   23      C      -2.2309585780    -2.0354836593    -0.9641852361
   24      H      -4.2504111441     1.9803082939     0.3110725756
   25      H      -2.5619133935    -2.7989183694    -0.2504686138
   26      H      -1.2669056733    -2.3637311866    -1.3532521463
   27      H      -2.9754821154    -2.0019862382    -1.7616671337
   28      H       2.1774538330    -0.8233968102     2.4828327533
   29      H       3.9020498296    -1.0876572516     2.1610788217
   30      H       2.6817442815    -2.2520977139     1.5949451858
 ----------------------------------------------------------------

   10    -804.7693845211      7.91e-06  Convergence criterion met
 Total energy in the final basis set =     -804.7693845211
    4    -804.8543110135      8.39e-06  Convergence criterion met
 Total energy in the final basis set =     -804.8543110135

                    Orbital Energies (a.u.)
 --------------------------------------------------------------

 Alpha MOs
 -- Occupied --
-19.1164 -19.0860 -19.0849 -10.2651 -10.2311 -10.2255 -10.1877 -10.1877
-10.1819 -10.1768 -10.1766 -10.1744 -10.1733 -10.1723 -10.1700 -10.1681
-10.1579 -10.1548  -1.0478  -1.0094  -1.0068  -0.8640  -0.8340  -0.7765
 -0.7741  -0.7605  -0.7173  -0.6860  -0.6687  -0.6392  -0.6100  -0.5877
 -0.5649  -0.5436  -0.5023  -0.4915  -0.4763  -0.4693  -0.4593  -0.4467
 -0.4372  -0.4241  -0.4207  -0.4169  -0.4100  -0.4086  -0.4025  -0.3939
 -0.3876  -0.3812  -0.3767  -0.3670  -0.3611  -0.3550  -0.3540  -0.3419
 -0.2878  -0.2719  -0.2621  -0.2564  -0.2523  -0.2462  -0.2365  -0.1701

 Beta MOs
 -- Occupied --
-19.1160 -19.0787 -19.0787 -10.2651 -10.2300 -10.2240 -10.1877 -10.1856
-10.1819 -10.1768 -10.1766 -10.1738 -10.1733 -10.1722 -10.1693 -10.1668
-10.1579 -10.1550  -1.0470  -0.9984  -0.9942  -0.8640  -0.8280  -0.7749
 -0.7734  -0.7593  -0.7135  -0.6857  -0.6612  -0.6377  -0.6087  -0.5868
 -0.5610  -0.5423  -0.5007  -0.4893  -0.4751  -0.4676  -0.4575  -0.4449
 -0.4344  -0.4177  -0.4168  -0.4151  -0.4096  -0.4054  -0.3993  -0.3864
 -0.3805  -0.3796  -0.3654  -0.3609  -0.3555  -0.3539  -0.3478  -0.3415
 -0.2709  -0.2601  -0.2550  -0.2503  -0.2495  -0.2421  -0.2320

          Ground-State Mulliken Net Atomic Charges

     Atom                 Charge (a.u.)    Spin (a.u.)
  --------------------------------------------------------
      1 C                    -0.802300       0.091515
      2 C                    -0.323119       0.075819
      3 C                     0.053868       0.056023
      4 C                    -0.614263       0.090577
      5 C                     0.529348       0.140639
      6 O                    -0.418312       0.223744
      7 O                    -0.511394       0.258046
      8 H                     0.214775      -0.008026
      9 C                     1.005894       0.049867
     10 C                    -0.992259       0.012512
     11 C                     1.197828       0.000749
     12 C                     0.301472       0.000075
     13 C                    -0.435520      -0.003158
     14 C                    -0.281946      -0.004147
     15 C                    -0.312144       0.000482
     16 C                    -0.459260      -0.000768
     17 O                    -0.289267       0.011739
     18 C                    -0.441056      -0.002018
     19 H                     0.203237      -0.000111
     20 H                     0.185946      -0.000018
     21 H                     0.205268       0.000056
     22 H                     0.215142      -0.000049
     23 C                    -0.545812      -0.001224
     24 H                     0.213447      -0.005054
     25 H                     0.210020       0.009952
     26 H                     0.174493       0.001928
     27 H                     0.162182       0.000864
     28 H                     0.193028      -0.000169
     29 H                     0.163109       0.000227
     30 H                     0.197595      -0.000073
  --------------------------------------------------------
  Sum of atomic charges =    -1.000000

                    Cartesian Multipole Moments
 -----------------------------------------------------------------
    Charge (ESU x 10^10)
                -4.8032
    Dipole Moment (Debye)
         X       9.3581      Y       0.9672      Z      -2.3238
       Tot       9.6907
    Quadrupole Moments (Debye-Ang)
        XX    -148.1385     XY      -4.1969     YY    -120.6273
        XZ      -9.7226     YZ      -6.7575     ZZ    -113.4095

 Total job time:  105.42s(wall), 782.40s(cpu)
        *  Thank you very much for using Q-Chem.  Have a nice day.  *
