 Gaussian 16, Revision A.03,
 Gaussian 16:  ES64L-G16RevA.03 25-Dec-2016

 ----------------------------------------------------------------
 #P UB3LYP/6-311++G(d,p) SCRF=(PCM,Solvent=n,n-DiMethylFormamide)
 ----------------------------------------------------------------

 ------------------
 Radical PCM in DMF
 ------------------
 Symbolic Z-matrix:
 Charge = -2 Multiplicity = 2

                         Standard orientation:
 ---------------------------------------------------------------------
 Center     Atomic      Atomic             Coordinates (Angstroms)
 Number     Number       Type             X           Y           Z
 ---------------------------------------------------------------------
      1          6           0        3.736827   -1.853164    0.000096
      2          6           0        5.055433   -1.442766    0.000013
      3          6           0        5.362982   -0.060316   -0.000071
      4          6           0        2.676712   -0.919519    0.000086
      5          6           0        2.986905    0.473910    0.000002
      6          6           0        4.344379    0.870847   -0.000075
      7          6           0        1.299516   -1.390739    0.000052
      8          6           0        0.245921   -0.395011    0.000135
      9          6           0        0.567303    1.006774    0.000097
     10          6           0        1.937317    1.473482    0.000061
     11          6           0       -1.121233   -0.813102    0.000112
     12          6           0       -2.145482    0.151671    0.000033
     13          6           0       -0.496518    1.944896    0.000035
     14          6           0       -1.817676    1.506531    0.000008
     15          8           0        1.051128   -2.645387   -0.000069
     16          8           0        2.224889    2.725329   -0.000282
     17          8           0       -1.423470   -2.119567   -0.000089
     18          1           0        3.471557   -2.904295    0.000096
     19          1           0        5.856029   -2.177635    0.000009
     20          1           0        6.400000    0.265177   -0.000093
     21          1           0       -0.545832   -2.596977   -0.000094
     22          8           0       -0.246006    3.282470    0.000138
     23          1           0       -2.623045    2.230033    0.000029
     24          1           0        0.754022    3.350557    0.000440
     25          1           0        4.550444    1.935233   -0.000059
     26         16           0       -3.936200   -0.290452   -0.000016
     27          8           0       -4.158683   -1.062654   -1.249518
     28          8           0       -4.158968   -1.061860    1.249931
     29          8           0       -4.623677    1.034692   -0.000557
 ---------------------------------------------------------------------

 SCF Done:  E(UB3LYP) =  -1463.08030861     A.U. after   20 cycles

 The electronic state is 2-A.
 Alpha  occ. eigenvalues --  -89.04044 -19.13309 -19.12968 -19.09265 -19.09132
 Alpha  occ. eigenvalues --  -19.08454 -19.08453 -19.08315 -10.24162 -10.23809
 Alpha  occ. eigenvalues --  -10.23566 -10.23212 -10.19104 -10.18245 -10.18093
 Alpha  occ. eigenvalues --  -10.18013 -10.17964 -10.17765 -10.17715 -10.17476
 Alpha  occ. eigenvalues --  -10.17474 -10.17117  -8.09885  -6.06158  -6.06148
 Alpha  occ. eigenvalues --   -6.06072  -1.10236  -1.06110  -1.05118  -1.00934
 Alpha  occ. eigenvalues --   -1.00422  -0.96733  -0.96447  -0.86656  -0.84992
 Alpha  occ. eigenvalues --   -0.79537  -0.75758  -0.74985  -0.73771  -0.68318
 Alpha  occ. eigenvalues --   -0.65176  -0.63816  -0.60805  -0.58776  -0.57318
 Alpha  occ. eigenvalues --   -0.54310  -0.53065  -0.51611  -0.50978  -0.48560
 Alpha  occ. eigenvalues --   -0.47356  -0.46275  -0.44848  -0.44788  -0.43993
 Alpha  occ. eigenvalues --   -0.43687  -0.42807  -0.42546  -0.42514  -0.41783
 Alpha  occ. eigenvalues --   -0.40633  -0.40417  -0.40029  -0.37666  -0.37273
 Alpha  occ. eigenvalues --   -0.36194  -0.35767  -0.35265  -0.34058  -0.32889
 Alpha  occ. eigenvalues --   -0.32696  -0.31534  -0.29697  -0.29055  -0.28583
 Alpha  occ. eigenvalues --   -0.27028  -0.26405  -0.26211  -0.25214  -0.24965
 Alpha  occ. eigenvalues --   -0.24899  -0.21636  -0.14819
 Alpha virt. eigenvalues --   -0.05474  -0.02916  -0.00070   0.00420   0.00936
 Alpha virt. eigenvalues --    0.01367   0.02207   0.02774   0.04168   0.04337
 Alpha virt. eigenvalues --    0.04448   0.04683   0.04789   0.05314   0.06223

  Beta  occ. eigenvalues --  -89.04046 -19.13264 -19.12908 -19.08817 -19.08655
  Beta  occ. eigenvalues --  -19.08443 -19.08442 -19.08319 -10.24115 -10.23612
  Beta  occ. eigenvalues --  -10.23348 -10.23154 -10.18991 -10.18246 -10.18091
  Beta  occ. eigenvalues --  -10.17946 -10.17901 -10.17724 -10.17667 -10.17471
  Beta  occ. eigenvalues --  -10.17460 -10.17005  -8.09887  -6.06159  -6.06149
  Beta  occ. eigenvalues --   -6.06076  -1.10227  -1.05960  -1.04919  -1.00183
  Beta  occ. eigenvalues --   -0.99629  -0.96711  -0.96445  -0.86404  -0.84836
  Beta  occ. eigenvalues --   -0.79152  -0.75505  -0.74824  -0.73500  -0.67705
  Beta  occ. eigenvalues --   -0.64964  -0.63565  -0.60694  -0.58684  -0.57158
  Beta  occ. eigenvalues --   -0.54110  -0.52944  -0.51469  -0.50828  -0.48461
  Beta  occ. eigenvalues --   -0.47170  -0.46109  -0.44752  -0.44702  -0.43572
  Beta  occ. eigenvalues --   -0.43270  -0.42748  -0.42390  -0.42103  -0.41584
  Beta  occ. eigenvalues --   -0.40285  -0.39761  -0.39187  -0.37544  -0.36071
  Beta  occ. eigenvalues --   -0.35696  -0.35626  -0.34330  -0.33942  -0.32875
  Beta  occ. eigenvalues --   -0.32675  -0.31090  -0.29129  -0.29011  -0.28501
  Beta  occ. eigenvalues --   -0.26016  -0.25568  -0.25485  -0.24977  -0.24705
  Beta  occ. eigenvalues --   -0.24611  -0.20523
  Beta virt. eigenvalues --   -0.09456  -0.04345  -0.01912  -0.00052   0.00939
  Beta virt. eigenvalues --    0.00945   0.01384   0.02226   0.02778   0.04187
  Beta virt. eigenvalues --    0.04471   0.04535   0.04801   0.05425   0.05514

 Mulliken charges and spin densities:
               1          2
     1  C   -0.032482   0.026359
     2  C   -0.435623   0.041455
     3  C   -0.492671   0.029370
     4  C    0.211543   0.037384
     5  C    0.103204   0.013418
     6  C   -0.010431   0.039917
     7  C   -0.323362   0.110295
     8  C    0.355314  -0.021017
     9  C    0.796534  -0.009485
    10  C   -0.328767   0.122382
    11  C   -0.535592   0.046483
    12  C   -0.266422   0.079856
    13  C   -0.418358   0.048539
    14  C   -0.181855   0.079140
    15  O   -0.481812   0.163035
    16  O   -0.492630   0.173791
    17  O   -0.359429   0.016018
    18  H    0.169687  -0.000658
    19  H    0.189415  -0.003304
    20  H    0.186806  -0.002573
    21  H    0.388730  -0.003623
    22  O   -0.406930   0.019161
    23  H    0.239063  -0.006986
    24  H    0.364321  -0.003975
    25  H    0.174813  -0.001235
    26  S    0.719264  -0.002271
    27  O   -0.381821   0.004388
    28  O   -0.381771   0.004386
    29  O   -0.368739  -0.000248
 Sum of Mulliken charges =  -2.00000   1.00000

 Dipole moment (field-independent basis, Debye):
    X=             20.3851    Y=              0.6488    Z=              0.0018  Tot=             20.3955
 Quadrupole moment (field-independent basis, Debye-Ang):
   XX=           -250.3546   YY=           -182.2704   ZZ=           -149.4356
   XY=            -16.3051   XZ=              0.0009   YZ=              0.0034

 Normal termination of Gaussian 16 at Tue Jan 16 06:44:57 2024.
