 Gaussian 16, Revision A.03,
 Gaussian 16:  ES64L-G16RevA.03 25-Dec-2016

 --------------------------------------
 #P UB3LYP/6-311++G(d,p) nosym opt freq
 --------------------------------------

 --------
 Oxidized
 --------
 Symbolic Z-matrix:
 Charge =  0 Multiplicity = 1

 SCF Done:  E(UB3LYP) =  -939.691103092     A.U. after   16 cycles
 SCF Done:  E(UB3LYP) =  -939.716011525     A.U. after   14 cycles
 SCF Done:  E(UB3LYP) =  -939.720969643     A.U. after   13 cycles
 SCF Done:  E(UB3LYP) =  -939.722163690     A.U. after   13 cycles
 SCF Done:  E(UB3LYP) =  -939.722779330     A.U. after   12 cycles
 SCF Done:  E(UB3LYP) =  -939.723332172     A.U. after   12 cycles
 SCF Done:  E(UB3LYP) =  -939.723518820     A.U. after   12 cycles
 SCF Done:  E(UB3LYP) =  -939.723651965     A.U. after   12 cycles
 SCF Done:  E(UB3LYP) =  -939.723694356     A.U. after   11 cycles
 SCF Done:  E(UB3LYP) =  -939.723729843     A.U. after   12 cycles
 SCF Done:  E(UB3LYP) =  -939.724888745     A.U. after   13 cycles
 SCF Done:  E(UB3LYP) =  -939.724744434     A.U. after   13 cycles
 SCF Done:  E(UB3LYP) =  -939.724992490     A.U. after   13 cycles
 SCF Done:  E(UB3LYP) =  -939.725006969     A.U. after   12 cycles
 SCF Done:  E(UB3LYP) =  -939.725015013     A.U. after   12 cycles
 SCF Done:  E(UB3LYP) =  -939.725017512     A.U. after   10 cycles
 SCF Done:  E(UB3LYP) =  -939.725017693     A.U. after    9 cycles
 SCF Done:  E(UB3LYP) =  -939.725017906     A.U. after    8 cycles
 SCF Done:  E(UB3LYP) =  -939.725017950     A.U. after    8 cycles
 Optimization completed.
    -- Stationary point found.
 Normal termination of Gaussian 16 at Thu Dec 21 21:59:53 2023.

 ----------------------------------------------------------------------
 #P Geom=AllCheck Guess=TCheck SCRF=Check GenChk UB3LYP/6-311++G(d,p) F
 req
 ----------------------------------------------------------------------

 Structure from the checkpoint file:  "213.chk"
 --------
 Oxidized
 --------
 Charge =  0 Multiplicity = 1

                          Input orientation:
 ---------------------------------------------------------------------
 Center     Atomic      Atomic             Coordinates (Angstroms)
 Number     Number       Type             X           Y           Z
 ---------------------------------------------------------------------
      1          8           0        3.435675    2.672976    0.813164
      2          6           0        3.069580    1.525325    0.590338
      3          6           0        4.070539    0.422853    0.429827
      4          6           0        5.431462    0.720477    0.541537
      5          6           0        6.382654   -0.282899    0.394678
      6          6           0        5.982610   -1.596416    0.134001
      7          6           0        4.631691   -1.902287    0.021236
      8          6           0        3.668105   -0.898922    0.168000
      9          6           0        2.224792   -1.257129    0.044803
     10          8           0        1.874859   -2.405051   -0.181887
     11          6           0        1.227951   -0.155640    0.213389
     12          6           0       -0.120566   -0.467847    0.099948
     13          6           0       -1.118937    0.522095    0.241231
     14          6           0       -0.683568    1.849548    0.499458
     15          6           0        0.660190    2.151685    0.604678
     16          6           0        1.645930    1.165395    0.466794
     17          7           0       -2.452785    0.212596    0.134757
     18          6           0       -2.916233   -1.180500    0.163252
     19          6           0       -4.328160   -1.264540    0.747886
     20          6           0       -5.352710   -0.460615   -0.078545
     21          6           0       -4.678317    0.728550   -0.791617
     22          6           0       -3.469320    1.259942   -0.017645
     23          1           0        5.718035    1.745251    0.743141
     24          1           0        7.436892   -0.045057    0.482559
     25          1           0        6.725753   -2.377545    0.019811
     26          1           0        4.297793   -2.912727   -0.179959
     27          1           0       -0.371208   -1.494156   -0.126715
     28          1           0       -1.407013    2.639957    0.645208
     29          1           0        0.976911    3.166983    0.811455
     30          1           0       -2.889140   -1.626929   -0.841732
     31          1           0       -2.235812   -1.760116    0.789006
     32          1           0       -4.293059   -0.885225    1.774174
     33          1           0       -4.621493   -2.315439    0.814976
     34          1           0       -5.830153   -1.104629   -0.822622
     35          1           0       -6.150743   -0.105265    0.579782
     36          1           0       -4.337085    0.425185   -1.786480
     37          1           0       -5.389180    1.545298   -0.942513
     38          1           0       -3.784659    1.651755    0.961319
     39          1           0       -3.031283    2.093062   -0.570805
 ---------------------------------------------------------------------

 SCF Done:  E(UB3LYP) =  -939.725017950     A.U. after    1 cycles

 Alpha  occ. eigenvalues --  -19.11691 -19.10573 -14.35038 -10.26878 -10.25982
 Alpha  occ. eigenvalues --  -10.23687 -10.22183 -10.21946 -10.19756 -10.19700
 Alpha  occ. eigenvalues --  -10.19678 -10.19247 -10.19170 -10.18907 -10.18850
 Alpha  occ. eigenvalues --  -10.18734 -10.18720 -10.18710 -10.18564 -10.18503
 Alpha  occ. eigenvalues --  -10.18380 -10.18233  -1.05057  -1.03884  -0.97240
 Alpha  occ. eigenvalues --   -0.88150  -0.86925  -0.82516  -0.79466  -0.78419
 Alpha  occ. eigenvalues --   -0.76854  -0.76457  -0.75451  -0.69094  -0.67774
 Alpha  occ. eigenvalues --   -0.66232  -0.64617  -0.62467  -0.60569  -0.57606
 Alpha  occ. eigenvalues --   -0.57057  -0.55507  -0.54710  -0.52134  -0.51686
 Alpha  occ. eigenvalues --   -0.49172  -0.48566  -0.47902  -0.46216  -0.45870
 Alpha  occ. eigenvalues --   -0.44592  -0.44261  -0.44169  -0.43939  -0.43690
 Alpha  occ. eigenvalues --   -0.43613  -0.43033  -0.42148  -0.40567  -0.40097
 Alpha  occ. eigenvalues --   -0.40023  -0.38943  -0.38599  -0.37409  -0.36912
 Alpha  occ. eigenvalues --   -0.36409  -0.35630  -0.34739  -0.34557  -0.33709
 Alpha  occ. eigenvalues --   -0.29977  -0.27515  -0.27053  -0.27022  -0.26679
 Alpha  occ. eigenvalues --   -0.25630  -0.21346
 Alpha virt. eigenvalues --   -0.10173  -0.06044  -0.02394  -0.02136  -0.01454
 Alpha virt. eigenvalues --   -0.00270  -0.00241  -0.00014   0.00414   0.01763
 Alpha virt. eigenvalues --    0.02097   0.02291   0.02756   0.03001   0.03568

  Beta  occ. eigenvalues --  -19.11691 -19.10573 -14.35038 -10.26878 -10.25982
  Beta  occ. eigenvalues --  -10.23687 -10.22183 -10.21946 -10.19756 -10.19700
  Beta  occ. eigenvalues --  -10.19678 -10.19247 -10.19170 -10.18907 -10.18850
  Beta  occ. eigenvalues --  -10.18734 -10.18720 -10.18710 -10.18564 -10.18503
  Beta  occ. eigenvalues --  -10.18380 -10.18233  -1.05057  -1.03884  -0.97240
  Beta  occ. eigenvalues --   -0.88150  -0.86925  -0.82516  -0.79466  -0.78419
  Beta  occ. eigenvalues --   -0.76854  -0.76457  -0.75451  -0.69094  -0.67774
  Beta  occ. eigenvalues --   -0.66232  -0.64617  -0.62467  -0.60569  -0.57606
  Beta  occ. eigenvalues --   -0.57057  -0.55507  -0.54710  -0.52134  -0.51686
  Beta  occ. eigenvalues --   -0.49172  -0.48566  -0.47902  -0.46216  -0.45870
  Beta  occ. eigenvalues --   -0.44592  -0.44261  -0.44169  -0.43939  -0.43690
  Beta  occ. eigenvalues --   -0.43613  -0.43033  -0.42148  -0.40567  -0.40097
  Beta  occ. eigenvalues --   -0.40023  -0.38943  -0.38599  -0.37409  -0.36912
  Beta  occ. eigenvalues --   -0.36409  -0.35630  -0.34739  -0.34557  -0.33709
  Beta  occ. eigenvalues --   -0.29977  -0.27515  -0.27053  -0.27022  -0.26679
  Beta  occ. eigenvalues --   -0.25630  -0.21346
  Beta virt. eigenvalues --   -0.10173  -0.06044  -0.02394  -0.02136  -0.01454
  Beta virt. eigenvalues --   -0.00270  -0.00241  -0.00014   0.00414   0.01763
  Beta virt. eigenvalues --    0.02097   0.02291   0.02756   0.03001   0.03568

 Mulliken charges and spin densities:
               1          2
     1  O   -0.232681  -0.000000
     2  C   -0.818432   0.000000
     3  C    0.051052   0.000000
     4  C    0.140118  -0.000000
     5  C   -0.383881   0.000000
     6  C   -0.385644  -0.000000
     7  C    0.069346  -0.000000
     8  C    0.465580   0.000000
     9  C   -0.860379   0.000000
    10  O   -0.213246  -0.000000
    11  C    0.525113  -0.000000
    12  C    0.138570  -0.000000
    13  C   -0.728329   0.000000
    14  C    0.082755  -0.000000
    15  C    0.204289  -0.000000
    16  C    0.297717  -0.000000
    17  N    0.343355   0.000000
    18  C   -0.249578   0.000000
    19  C   -0.302433  -0.000000
    20  C   -0.556310   0.000000
    21  C   -0.282688  -0.000000
    22  C   -0.243280   0.000000
    23  H    0.183736  -0.000000
    24  H    0.172343   0.000000
    25  H    0.173364  -0.000000
    26  H    0.179023   0.000000
    27  H    0.178387  -0.000000
    28  H    0.186954  -0.000000
    29  H    0.196639  -0.000000
    30  H    0.171977   0.000000
    31  H    0.170362   0.000000
    32  H    0.171719   0.000000
    33  H    0.175219   0.000000
    34  H    0.156171  -0.000000
    35  H    0.157474  -0.000000
    36  H    0.172569   0.000000
    37  H    0.174423   0.000000
    38  H    0.167380   0.000000
    39  H    0.151245   0.000000
 Sum of Mulliken charges =  -0.00000  -0.00000

 Dipole moment (field-independent basis, Debye):
    X=             -4.4121    Y=             -0.7431    Z=             -0.2917  Tot=              4.4838
 Quadrupole moment (field-independent basis, Debye-Ang):
   XX=           -101.7668   YY=           -137.2540   ZZ=           -132.4677
   XY=             -9.9683   XZ=             -1.2531   YZ=             -2.2849

  Exact polarizability: 404.045  -0.919 237.999  11.265  16.402 133.998
 Approx polarizability: 540.638  29.683 440.269  18.581  42.757 219.831

                      1                      2                      3
                      A                      A                      A
 Frequencies --     23.4142                40.8311                54.3972
 Red. masses --      4.4813                 4.6938                 3.3498
 Frc consts  --      0.0014                 0.0046                 0.0058
 IR Inten    --      1.1512                 3.4754                 0.1473

                      4                      5                      6
                      A                      A                      A
 Frequencies --     76.7116               101.9413               115.1567
 Red. masses --      4.0781                 3.2814                 4.1513
 Frc consts  --      0.0141                 0.0201                 0.0324
 IR Inten    --      0.8220                 0.7637                 0.2095

                      7                      8                      9
                      A                      A                      A
 Frequencies --    127.2376               154.2314               197.2676
 Red. masses --      3.8414                 5.7834                 4.7170
 Frc consts  --      0.0366                 0.0811                 0.1081
 IR Inten    --      1.9236                 1.3770                 0.4536

                     10                     11                     12
                      A                      A                      A
 Frequencies --    219.7058               230.2112               260.0164
 Red. masses --      5.4577                 4.9741                 2.6421
 Frc consts  --      0.1552                 0.1553                 0.1052
 IR Inten    --      0.3563                 0.9326                 1.5309

                     13                     14                     15
                      A                      A                      A
 Frequencies --    272.6823               288.1093               309.1543
 Red. masses --      1.8393                 5.7686                 3.8311
 Frc consts  --      0.0806                 0.2821                 0.2157
 IR Inten    --      0.8294                 0.5587                 0.9974

                     16                     17                     18
                      A                      A                      A
 Frequencies --    383.6386               406.4762               419.2321
 Red. masses --      8.8052                 8.1880                 3.5113
 Frc consts  --      0.7635                 0.7971                 0.3636
 IR Inten    --     15.5217                16.7677                 1.2877

                     19                     20                     21
                      A                      A                      A
 Frequencies --    429.4401               450.5366               455.7769
 Red. masses --      6.7977                 3.4981                 4.0945
 Frc consts  --      0.7386                 0.4183                 0.5011
 IR Inten    --      0.9119                 0.8389                 0.5613

                     22                     23                     24
                      A                      A                      A
 Frequencies --    467.2216               472.9860               483.7194
 Red. masses --      2.9452                 5.8126                 7.3419
 Frc consts  --      0.3788                 0.7662                 1.0121
 IR Inten    --      0.3979                 0.2940                 2.1560

                     25                     26                     27
                      A                      A                      A
 Frequencies --    545.7108               565.1171               614.4853
 Red. masses --      2.6973                 4.4844                 2.6529
 Frc consts  --      0.4733                 0.8438                 0.5902
 IR Inten    --      1.4107                 5.6301                 4.0535

                     28                     29                     30
                      A                      A                      A
 Frequencies --    649.6918               671.2089               679.5272
 Red. masses --      6.8237                 4.7202                 3.8862
 Frc consts  --      1.6970                 1.2529                 1.0573
 IR Inten    --     10.9188                 2.7450                 9.0347

                     31                     32                     33
                      A                      A                      A
 Frequencies --    701.0645               722.0928               726.4818
 Red. masses --      6.5999                 5.6991                 3.5660
 Frc consts  --      1.9112                 1.7508                 1.1089
 IR Inten    --      0.3878                 0.3401                16.2849

                     34                     35                     36
                      A                      A                      A
 Frequencies --    736.7021               778.1366               798.5799
 Red. masses --      2.3746                 1.3234                 3.8009
 Frc consts  --      0.7593                 0.4721                 1.4281
 IR Inten    --     58.4301                 1.2874                 0.3016

                     37                     38                     39
                      A                      A                      A
 Frequencies --    808.6375               814.3310               841.3618
 Red. masses --      1.9814                 5.5410                 1.9729
 Frc consts  --      0.7634                 2.1649                 0.8229
 IR Inten    --      3.7778                 4.7258                18.0260

                     40                     41                     42
                      A                      A                      A
 Frequencies --    849.7135               886.4321               901.6829
 Red. masses --      2.7016                 1.4621                 1.5756
 Frc consts  --      1.1493                 0.6769                 0.7547
 IR Inten    --      8.9342                 1.1051                11.0639

                     43                     44                     45
                      A                      A                      A
 Frequencies --    915.9639               924.0928               927.4992
 Red. masses --      1.4222                 2.1718                 4.1302
 Frc consts  --      0.7030                 1.0927                 2.0934
 IR Inten    --      0.1632                 1.4762                77.6072

                     46                     47                     48
                      A                      A                      A
 Frequencies --    941.7379               994.3751               997.0922
 Red. masses --      7.0166                 1.3323                 1.6007
 Frc consts  --      3.6664                 0.7762                 0.9376
 IR Inten    --     49.5719                 1.5166                 0.5382

                     49                     50                     51
                      A                      A                      A
 Frequencies --   1001.5023              1006.8750              1015.6651
 Red. masses --      1.3913                 2.6098                 1.3198
 Frc consts  --      0.8222                 1.5588                 0.8022
 IR Inten    --      2.6767                13.7252                 0.0349

                     52                     53                     54
                      A                      A                      A
 Frequencies --   1032.7099              1051.3418              1057.5860
 Red. masses --      2.2617                 1.9240                 1.9056
 Frc consts  --      1.4212                 1.2530                 1.2558
 IR Inten    --     38.0884                 9.2344                 0.0960

                     55                     56                     57
                      A                      A                      A
 Frequencies --   1102.4490              1110.4931              1123.4983
 Red. masses --      1.7902                 2.5107                 2.7082
 Frc consts  --      1.2820                 1.8242                 2.0140
 IR Inten    --      0.8725                 0.9981                46.5892

                     58                     59                     60
                      A                      A                      A
 Frequencies --   1131.9344              1157.3968              1175.0848
 Red. masses --      2.1717                 2.4575                 1.3783
 Frc consts  --      1.6395                 1.9396                 1.1213
 IR Inten    --      6.7018                19.4292                 1.0955

                     61                     62                     63
                      A                      A                      A
 Frequencies --   1185.1513              1199.5224              1206.3339
 Red. masses --      1.3142                 2.1534                 1.2785
 Frc consts  --      1.0876                 1.8256                 1.0962
 IR Inten    --     21.3542                10.9782                40.5549

                     64                     65                     66
                      A                      A                      A
 Frequencies --   1243.1187              1264.6812              1265.8940
 Red. masses --      1.8058                 1.8738                 1.2003
 Frc consts  --      1.6442                 1.7658                 1.1333
 IR Inten    --     33.5939                29.1656                 4.0820

                     67                     68                     69
                      A                      A                      A
 Frequencies --   1282.2856              1292.1304              1301.0649
 Red. masses --      1.4091                 1.4499                 1.4191
 Frc consts  --      1.3651                 1.4263                 1.4153
 IR Inten    --     57.3650                 5.7023                11.6361

                     70                     71                     72
                      A                      A                      A
 Frequencies --   1303.7782              1326.4318              1352.0638
 Red. masses --      2.3774                 2.5022                 3.7362
 Frc consts  --      2.3810                 2.5938                 4.0242
 IR Inten    --    751.2050               178.1025                93.1287

                     73                     74                     75
                      A                      A                      A
 Frequencies --   1358.4858              1363.2770              1374.9317
 Red. masses --      2.6974                 1.9335                 1.2988
 Frc consts  --      2.9329                 2.1172                 1.4466
 IR Inten    --      8.6986                 6.7952                 5.6335

                     76                     77                     78
                      A                      A                      A
 Frequencies --   1391.4168              1400.2935              1402.1317
 Red. masses --      1.4237                 1.6656                 1.6417
 Frc consts  --      1.6240                 1.9243                 1.9016
 IR Inten    --     19.3007                89.8824                14.5727

                     79                     80                     81
                      A                      A                      A
 Frequencies --   1416.2750              1471.5518              1481.9941
 Red. masses --      2.0713                 3.6276                 2.6451
 Frc consts  --      2.4479                 4.6284                 3.4228
 IR Inten    --    330.6789                48.3811                10.0247

                     82                     83                     84
                      A                      A                      A
 Frequencies --   1486.7305              1494.1463              1503.1888
 Red. masses --      1.0813                 1.0854                 2.6212
 Frc consts  --      1.4082                 1.4276                 3.4897
 IR Inten    --      1.1086                 8.6760                 0.3883

                     85                     86                     87
                      A                      A                      A
 Frequencies --   1505.6983              1518.5762              1521.8332
 Red. masses --      1.1076                 1.0890                 1.1742
 Frc consts  --      1.4795                 1.4797                 1.6023
 IR Inten    --     54.2670                 2.4341                67.0086

                     88                     89                     90
                      A                      A                      A
 Frequencies --   1536.6711              1578.5649              1610.8908
 Red. masses --      2.8105                 6.9030                 6.6600
 Frc consts  --      3.9102                10.1347                10.1825
 IR Inten    --     43.6550                 4.7571               101.6642

                     91                     92                     93
                      A                      A                      A
 Frequencies --   1625.4243              1632.8462              1701.9394
 Red. masses --      6.1084                 5.7316                12.1402
 Frc consts  --      9.5084                 9.0036                20.7188
 IR Inten    --    485.3138               184.9657                84.7330

                     94                     95                     96
                      A                      A                      A
 Frequencies --   1722.8635              2960.9663              2969.9987
 Red. masses --     11.9535                 1.0732                 1.0737
 Frc consts  --     20.9048                 5.5435                 5.5799
 IR Inten    --    223.1148                78.8162                42.8710

                     97                     98                     99
                      A                      A                      A
 Frequencies --   3028.1905              3030.4310              3038.1763
 Red. masses --      1.0604                 1.0665                 1.0649
 Frc consts  --      5.7291                 5.7705                 5.7914
 IR Inten    --     15.0085                32.5429                38.8243

                    100                    101                    102
                      A                      A                      A
 Frequencies --   3057.1092              3070.4583              3073.5058
 Red. masses --      1.0982                 1.0908                 1.0991
 Frc consts  --      6.0472                 6.0591                 6.1170
 IR Inten    --     16.4815                26.6085                40.7621

                    103                    104                    105
                      A                      A                      A
 Frequencies --   3079.8002              3083.7730              3167.2414
 Red. masses --      1.0892                 1.1050                 1.0868
 Frc consts  --      6.0870                 6.1912                 6.4233
 IR Inten    --     16.9229                60.2382                 4.0512

                    106                    107                    108
                      A                      A                      A
 Frequencies --   3182.0979              3189.0696              3198.6220
 Red. masses --      1.0918                 1.0881                 1.0923
 Frc consts  --      6.5138                 6.5199                 6.5847
 IR Inten    --     14.5184                 0.4715                 0.7606

                    109                    110                    111
                      A                      A                      A
 Frequencies --   3201.1588              3207.4265              3219.1868
 Red. masses --      1.0946                 1.0926                 1.0889
 Frc consts  --      6.6089                 6.6225                 6.6486
 IR Inten    --     15.8416                12.0806                 7.5024

 - Thermochemistry -
 -------------------
 Temperature   298.150 Kelvin.  Pressure   1.00000 Atm.
 Atom     1 has atomic number  8 and mass  15.99491

 Molecular mass:   291.12593 amu.
 Principal axes and moments of inertia in atomic units:
                           1         2         3
     Eigenvalues --  2246.92125********************
           X            0.99899   0.02297  -0.03872
           Y           -0.02751   0.99226  -0.12107
           Z            0.03564   0.12201   0.99189
 This molecule is an asymmetric top.
 Rotational symmetry number  1.
 Warning -- assumption of classical behavior for rotation
           may cause significant error
 Rotational temperatures (Kelvin)      0.03855     0.00644     0.00561
 Rotational constants (GHZ):           0.80321     0.13426     0.11685
 Zero-point vibrational energy     834262.2 (Joules/Mol)
                                  199.39345 (Kcal/Mol)
 Warning -- explicit consideration of  27 degrees of freedom as
           vibrations may cause significant error
 Vibrational temperatures:     33.69    58.75    78.27   110.37   146.67
          (Kelvin)            165.68   183.07   221.90   283.82   316.11
                              331.22   374.11   392.33   414.53   444.80
                              551.97   584.83   603.18   617.87   648.22
                              655.76   672.23   680.52   695.96   785.16
                              813.08   884.11   934.76   965.72   977.69
                             1008.68  1038.93  1045.25  1059.95  1119.56
                             1148.98  1163.45  1171.64  1210.53  1222.55
                             1275.38  1297.32  1317.87  1329.56  1334.46
                             1354.95  1430.68  1434.59  1440.94  1448.67
                             1461.32  1485.84  1512.65  1521.63  1586.18
                             1597.75  1616.46  1628.60  1665.24  1690.68
                             1705.17  1725.85  1735.65  1788.57  1819.59
                             1821.34  1844.92  1859.09  1871.94  1875.85
                             1908.44  1945.32  1954.56  1961.45  1978.22
                             2001.94  2014.71  2017.35  2037.70  2117.23
                             2132.26  2139.07  2149.74  2162.75  2166.36
                             2184.89  2189.58  2210.93  2271.20  2317.71
                             2338.62  2349.30  2448.71  2478.82  4260.17
                             4273.17  4356.89  4360.11  4371.26  4398.50
                             4417.70  4422.09  4431.15  4436.86  4556.95
                             4578.33  4588.36  4602.10  4605.75  4614.77
                             4631.69

 Zero-point correction=                           0.317754 (Hartree/Particle)
 Thermal correction to Energy=                    0.335284
 Thermal correction to Enthalpy=                  0.336228
 Thermal correction to Gibbs Free Energy=         0.271307
 Sum of electronic and zero-point Energies=           -939.407264
 Sum of electronic and thermal Energies=              -939.389734
 Sum of electronic and thermal Enthalpies=            -939.388790
 Sum of electronic and thermal Free Energies=         -939.453710

                     E (Thermal)             CV                S
                      KCal/Mol        Cal/Mol-Kelvin    Cal/Mol-Kelvin
 Total                  210.394             70.088            136.637
 Electronic               0.000              0.000              0.000
 Translational            0.889              2.981             42.903
 Rotational               0.889              2.981             34.499
 Vibrational            208.616             64.126             59.234
 Vibration     1          0.593              1.985              6.321
 Vibration     2          0.594              1.981              5.218
 Vibration     3          0.596              1.976              4.651
 Vibration     4          0.599              1.965              3.973
 Vibration     5          0.604              1.948              3.417
 Vibration     6          0.608              1.937              3.180
 Vibration     7          0.611              1.926              2.987
 Vibration     8          0.620              1.898              2.619
 Vibration     9          0.637              1.844              2.158
 Vibration    10          0.647              1.811              1.962
 Vibration    11          0.652              1.795              1.877
 Vibration    12          0.668              1.746              1.662
 Vibration    13          0.676              1.724              1.579
 Vibration    14          0.685              1.696              1.485
 Vibration    15          0.699              1.656              1.367
 Vibration    16          0.753              1.505              1.025
 Vibration    17          0.771              1.456              0.939
 Vibration    18          0.782              1.428              0.895
 Vibration    19          0.791              1.406              0.860
 Vibration    20          0.809              1.360              0.794
 Vibration    21          0.814              1.348              0.778
 Vibration    22          0.824              1.323              0.745
 Vibration    23          0.830              1.310              0.729
 Vibration    24          0.840              1.286              0.700
 Vibration    25          0.901              1.149              0.553
 Vibration    26          0.921              1.107              0.514
 Vibration    27          0.974              1.001              0.425

 Optimization completed.
    -- Stationary point found.
 Normal termination of Gaussian 16 at Thu Dec 21 23:11:53 2023.
