 Q-Chem 5.4, Q-Chem, Inc., Pleasanton, CA (2021)
 Q-Chem 5.4.0 for Intel X86 EM64T Linux

User input:
--------------------------------------------------------------
$molecule
-1 2
C                 -2.5849110000     -0.6663070000     -0.2172430000
C                 -1.2439050000     -0.0059420000     -0.0324400000
C                 -1.1269060000      1.3267160000      0.2752490000
C                  0.1478940000      1.9875720000      0.4583360000
O                  0.2394810000      3.2186830000      0.7419370000
C                  1.3105360000      1.1411030000      0.2937610000
C                  1.2290190000     -0.1942830000     -0.0135740000
C                  2.4571730000     -1.0503870000     -0.1785630000
C                 -0.0627320000     -0.8431210000     -0.1942090000
O                 -0.1544200000     -2.0756240000     -0.4783910000
H                 -2.7145890000     -1.4961300000      0.4862810000
H                 -3.3987670000      0.0505610000     -0.0734570000
H                 -2.6719470000     -1.1059580000     -1.2170050000
H                 -2.0128730000      1.9468370000      0.3947800000
H                  2.2782950000      1.6200250000      0.4273870000
H                  3.3679380000     -0.4647100000     -0.0223240000
H                  2.4914320000     -1.5000930000     -1.1770500000
H                  2.4492810000     -1.8889430000      0.5265250000
$end

$rem
BASIS  =  6-311++G(d,p)
GUI  =  2
JOB_TYPE  =  SP
METHOD  =  B3LYP
SCF_CONVERGENCE  = 8
SOLVENT_METHOD = sm12
$end

$smx
solvent dimethylformamide
charges CM5
$end

--------------------------------------------------------------

             Standard Nuclear Orientation (Angstroms)
    I     Atom           X                Y                Z
 ----------------------------------------------------------------
    1      C      -2.5849110000    -0.6663070000    -0.2172430000
    2      C      -1.2439050000    -0.0059420000    -0.0324400000
    3      C      -1.1269060000     1.3267160000     0.2752490000
    4      C       0.1478940000     1.9875720000     0.4583360000
    5      O       0.2394810000     3.2186830000     0.7419370000
    6      C       1.3105360000     1.1411030000     0.2937610000
    7      C       1.2290190000    -0.1942830000    -0.0135740000
    8      C       2.4571730000    -1.0503870000    -0.1785630000
    9      C      -0.0627320000    -0.8431210000    -0.1942090000
   10      O      -0.1544200000    -2.0756240000    -0.4783910000
   11      H      -2.7145890000    -1.4961300000     0.4862810000
   12      H      -3.3987670000     0.0505610000    -0.0734570000
   13      H      -2.6719470000    -1.1059580000    -1.2170050000
   14      H      -2.0128730000     1.9468370000     0.3947800000
   15      H       2.2782950000     1.6200250000     0.4273870000
   16      H       3.3679380000    -0.4647100000    -0.0223240000
   17      H       2.4914320000    -1.5000930000    -1.1770500000
   18      H       2.4492810000    -1.8889430000     0.5265250000
 ----------------------------------------------------------------

   16    -460.2973538219      7.91e-09  Convergence criterion met
 Total energy in the final basis set =     -460.3838562288

                    Orbital Energies (a.u.)
 --------------------------------------------------------------

 Alpha MOs
 -- Occupied --
-19.0771 -19.0752 -10.2200 -10.2178 -10.1786 -10.1785 -10.1693 -10.1692
-10.1652 -10.1652  -0.9973  -0.9933  -0.8320  -0.7864  -0.7240  -0.6836
 -0.6623  -0.5757  -0.5595  -0.4902  -0.4671  -0.4372  -0.4305  -0.4144
 -0.4085  -0.4077  -0.3983  -0.3858  -0.3820  -0.3625  -0.3612  -0.3548
 -0.2789  -0.2545  -0.2415  -0.2356  -0.1624

 Beta MOs
 -- Occupied --
-19.0698 -19.0679 -10.2190 -10.2164 -10.1774 -10.1774 -10.1693 -10.1693
-10.1642 -10.1642  -0.9847  -0.9805  -0.8261  -0.7843  -0.7203  -0.6817
 -0.6537  -0.5722  -0.5556  -0.4883  -0.4626  -0.4293  -0.4269  -0.4132
 -0.4077  -0.4062  -0.3918  -0.3811  -0.3685  -0.3576  -0.3528  -0.3359
 -0.2468  -0.2449  -0.2346  -0.2290

          Ground-State Mulliken Net Atomic Charges

     Atom                 Charge (a.u.)    Spin (a.u.)
  --------------------------------------------------------
      1 C                     0.651999       0.007152
      2 C                     0.976932       0.088375
      3 C                    -0.960622       0.068209
      4 C                    -1.034545       0.106731
      5 O                    -0.390328       0.257025
      6 C                    -0.959664       0.068197
      7 C                     0.980579       0.088492
      8 C                     0.653026       0.007182
      9 C                    -2.096859       0.034492
     10 O                    -0.308117       0.272691
     11 H                     0.190922       0.004595
     12 H                     0.250947      -0.000225
     13 H                     0.190743       0.004590
     14 H                     0.111035      -0.008231
     15 H                     0.111399      -0.008232
     16 H                     0.251058      -0.000226
     17 H                     0.190737       0.004580
     18 H                     0.190759       0.004604
  --------------------------------------------------------
  Sum of atomic charges =    -1.000000

                    Cartesian Multipole Moments
 -----------------------------------------------------------------
    Charge (ESU x 10^10)
                -4.8032
    Dipole Moment (Debye)
         X      -0.2692      Y      -3.6312      Z      -0.8384
       Tot       3.7364
    Quadrupole Moments (Debye-Ang)
        XX     -63.2250     XY      -2.8982     YY    -101.9415
        XZ      -0.6404     YZ      -8.7355     ZZ     -66.0763

 Total job time:  196.12s(wall), 1444.96s(cpu)
        *  Thank you very much for using Q-Chem.  Have a nice day.  *
