 Gaussian 16, Revision A.03,
 Gaussian 16:  ES64L-G16RevA.03 25-Dec-2016

 ----------------------------------------------------------------------
 #P UB3LYP/6-311++G(d,p) nosym opt freq SCRF=(PCM,Solvent=n,n-DiMethylF
 ormamide)
 ----------------------------------------------------------------------

 -------
 Reduced
 -------
 Symbolic Z-matrix:
 Charge = -2 Multiplicity = 1

 SCF Done:  E(UB3LYP) =  -534.529471085     A.U. after   17 cycles
 SCF Done:  E(UB3LYP) =  -534.530417213     A.U. after   14 cycles
 SCF Done:  E(UB3LYP) =  -534.530574764     A.U. after   14 cycles
 SCF Done:  E(UB3LYP) =  -534.530517786     A.U. after   14 cycles
 SCF Done:  E(UB3LYP) =  -534.530607195     A.U. after   12 cycles
 SCF Done:  E(UB3LYP) =  -534.530618488     A.U. after   12 cycles
 SCF Done:  E(UB3LYP) =  -534.530616159     A.U. after   12 cycles
 SCF Done:  E(UB3LYP) =  -534.530622986     A.U. after   11 cycles
 SCF Done:  E(UB3LYP) =  -534.530623780     A.U. after   10 cycles
 SCF Done:  E(UB3LYP) =  -534.530623908     A.U. after   10 cycles
 Optimization completed.
    -- Stationary point found.
 Normal termination of Gaussian 16 at Sat Feb 10 10:20:25 2024.

 ----------------------------------------------------------------------
 #P Geom=AllCheck Guess=TCheck SCRF=Check GenChk UB3LYP/6-311++G(d,p) F
 req
 ----------------------------------------------------------------------

 Structure from the checkpoint file:  "056-an.chk"
 -------
 Reduced
 -------
 Charge = -2 Multiplicity = 1

                          Input orientation:
 ---------------------------------------------------------------------
 Center     Atomic      Atomic             Coordinates (Angstroms)
 Number     Number       Type             X           Y           Z
 ---------------------------------------------------------------------
      1          6           0       -0.522341    1.158732   -0.342676
      2          6           0       -1.411606    0.102712   -0.764773
      3          6           0       -1.171466   -1.236440   -0.555655
      4          6           0        0.004288   -1.724518    0.115587
      5          6           0        0.881717   -0.713595    0.533540
      6          6           0        0.680044    0.696735    0.333959
      7          8           0       -0.840220    2.383300   -0.576262
      8          8           0        0.205885   -3.010815    0.301434
      9          6           0        1.697471    1.619765    0.820058
     10          6           0        2.898465    1.053807    1.589936
     11          8           0        1.680322    2.855880    0.659676
     12          1           0       -2.319189    0.416576   -1.276521
     13          1           0       -1.893206   -1.972650   -0.907546
     14          1           0        1.782417   -1.044152    1.038595
     15          1           0        3.499692    0.386211    0.965458
     16          1           0        2.588627    0.480634    2.468214
     17          1           0        3.521759    1.888385    1.911588
 ---------------------------------------------------------------------

 SCF Done:  E(UB3LYP) =  -534.530623908     A.U. after    1 cycles

 Alpha  occ. eigenvalues --  -19.06802 -19.02677 -19.01267 -10.22253 -10.18732
 Alpha  occ. eigenvalues --  -10.16946 -10.14735 -10.13812 -10.13372 -10.13127
 Alpha  occ. eigenvalues --  -10.12055  -0.99316  -0.94021  -0.91745  -0.78634
 Alpha  occ. eigenvalues --   -0.73530  -0.69157  -0.65354  -0.59105  -0.54627
 Alpha  occ. eigenvalues --   -0.48989  -0.44235  -0.43546  -0.42429  -0.41627
 Alpha  occ. eigenvalues --   -0.40147  -0.38407  -0.36098  -0.35920  -0.35612
 Alpha  occ. eigenvalues --   -0.33337  -0.32950  -0.31830  -0.31097  -0.23427
 Alpha  occ. eigenvalues --   -0.22874  -0.22400  -0.19430  -0.18701  -0.12751
 Alpha virt. eigenvalues --   -0.02562   0.00316   0.01376   0.02212   0.03604
 Alpha virt. eigenvalues --    0.03696   0.04404   0.04657   0.05755   0.06883
 Alpha virt. eigenvalues --    0.07228   0.07320   0.08082   0.08968   0.09465

  Beta  occ. eigenvalues --  -19.06802 -19.02677 -19.01267 -10.22253 -10.18732
  Beta  occ. eigenvalues --  -10.16946 -10.14735 -10.13812 -10.13372 -10.13127
  Beta  occ. eigenvalues --  -10.12055  -0.99316  -0.94021  -0.91745  -0.78634
  Beta  occ. eigenvalues --   -0.73530  -0.69157  -0.65354  -0.59105  -0.54627
  Beta  occ. eigenvalues --   -0.48989  -0.44235  -0.43546  -0.42429  -0.41627
  Beta  occ. eigenvalues --   -0.40147  -0.38407  -0.36098  -0.35920  -0.35612
  Beta  occ. eigenvalues --   -0.33337  -0.32950  -0.31830  -0.31097  -0.23427
  Beta  occ. eigenvalues --   -0.22874  -0.22400  -0.19430  -0.18701  -0.12751
  Beta virt. eigenvalues --   -0.02562   0.00316   0.01376   0.02212   0.03604
  Beta virt. eigenvalues --    0.03696   0.04404   0.04657   0.05755   0.06883
  Beta virt. eigenvalues --    0.07228   0.07320   0.08082   0.08968   0.09465

 Mulliken charges and spin densities:
               1          2
     1  C   -0.678257  -0.000000
     2  C    0.034893   0.000000
     3  C    0.064170  -0.000000
     4  C   -0.518484  -0.000000
     5  C   -1.022218   0.000000
     6  C    1.636883  -0.000000
     7  O   -0.625002   0.000000
     8  O   -0.757885  -0.000000
     9  C   -0.104432   0.000000
    10  C   -0.473409  -0.000000
    11  O   -0.453616  -0.000000
    12  H    0.145607   0.000000
    13  H    0.151745  -0.000000
    14  H    0.121933  -0.000000
    15  H    0.157121   0.000000
    16  H    0.153389   0.000000
    17  H    0.167561   0.000000
 Sum of Mulliken charges =  -2.00000   0.00000

 Dipole moment (field-independent basis, Debye):
    X=             -0.5898    Y=             -2.0741    Z=             -0.0847  Tot=              2.1580
 Quadrupole moment (field-independent basis, Debye-Ang):
   XX=            -77.2330   YY=           -150.2222   ZZ=            -73.3434
   XY=             -0.2581   XZ=             -2.4319   YZ=              5.2318

  Exact polarizability: 209.628  21.628 239.150  57.163   2.480 132.458
 Approx polarizability: 232.232  23.090 268.256  64.187   1.613 144.842

                      1                      2                      3
                      A                      A                      A
 Frequencies --     55.9281                95.7746               156.5077
 Red. masses --      4.3839                 6.3290                 6.6310
 Frc consts  --      0.0081                 0.0342                 0.0957
 IR Inten    --     14.3848                 6.7393                12.4391

                      4                      5                      6
                      A                      A                      A
 Frequencies --    170.9974               213.8872               333.9112
 Red. masses --      1.0577                 5.8870                 8.5570
 Frc consts  --      0.0182                 0.1587                 0.5621
 IR Inten    --      0.1190                 6.3332                 2.1599

                      7                      8                      9
                      A                      A                      A
 Frequencies --    337.2878               398.2624               425.8540
 Red. masses --      6.1367                 4.7198                 8.9387
 Frc consts  --      0.4113                 0.4411                 0.9551
 IR Inten    --      0.1689                39.8744                17.1336

                     10                     11                     12
                      A                      A                      A
 Frequencies --    435.6026               480.5422               533.6099
 Red. masses --      3.9126                11.1199                 4.0319
 Frc consts  --      0.4374                 1.5129                 0.6764
 IR Inten    --      0.8727                10.8618                 8.7577

                     13                     14                     15
                      A                      A                      A
 Frequencies --    535.9162               626.5810               634.7381
 Red. masses --      2.1860                 2.7081                 4.3675
 Frc consts  --      0.3699                 0.6264                 1.0367
 IR Inten    --     20.1359                 2.2565                35.2930

                     16                     17                     18
                      A                      A                      A
 Frequencies --    699.2793               735.2442               808.7100
 Red. masses --      6.3375                 2.2468                 5.6693
 Frc consts  --      1.8259                 0.7156                 2.1846
 IR Inten    --     21.5473                 0.3885               130.6595

                     19                     20                     21
                      A                      A                      A
 Frequencies --    817.8052               836.0872               911.8917
 Red. masses --      1.8271                 2.1910                 5.7678
 Frc consts  --      0.7199                 0.9024                 2.8258
 IR Inten    --     14.3803                88.2951                87.8613

                     22                     23                     24
                      A                      A                      A
 Frequencies --    941.4102               945.1337              1022.8199
 Red. masses --      2.3622                 1.3093                 1.8333
 Frc consts  --      1.2335                 0.6891                 1.1300
 IR Inten    --    177.6859                 3.4740                 3.5725

                     25                     26                     27
                      A                      A                      A
 Frequencies --   1041.5856              1124.1604              1174.6173
 Red. masses --      2.0108                 1.5102                 2.8828
 Frc consts  --      1.2853                 1.1244                 2.3434
 IR Inten    --    102.8126                 1.8688               722.2638

                     28                     29                     30
                      A                      A                      A
 Frequencies --   1229.4569              1261.1846              1326.5026
 Red. masses --      1.8474                 3.2764                 3.0233
 Frc consts  --      1.6453                 3.0704                 3.1344
 IR Inten    --    323.5876               354.3385               281.7727

                     31                     32                     33
                      A                      A                      A
 Frequencies --   1338.1316              1369.9074              1398.4436
 Red. masses --      3.9299                 1.4889                 8.0327
 Frc consts  --      4.1460                 1.6463                 9.2555
 IR Inten    --    272.8469                33.1551               533.2351

                     34                     35                     36
                      A                      A                      A
 Frequencies --   1446.9921              1464.2423              1471.0275
 Red. masses --      2.5247                 1.1264                 1.0500
 Frc consts  --      3.1146                 1.4229                 1.3387
 IR Inten    --    583.5873               164.5015                12.9177

                     37                     38                     39
                      A                      A                      A
 Frequencies --   1482.3026              1583.7167              1629.1236
 Red. masses --      4.1906                 6.3026                 7.1249
 Frc consts  --      5.4250                 9.3137                11.1413
 IR Inten    --    476.9158              1146.9428               152.2452

                     40                     41                     42
                      A                      A                      A
 Frequencies --   3025.0192              3081.9895              3107.6375
 Red. masses --      1.0367                 1.0998                 1.0840
 Frc consts  --      5.5895                 6.1547                 6.1681
 IR Inten    --     33.5651                28.5160                63.3270

                     43                     44                     45
                      A                      A                      A
 Frequencies --   3117.0296              3131.5145              3165.6092
 Red. masses --      1.1018                 1.0933                 1.0859
 Frc consts  --      6.3070                 6.3168                 6.4116
 IR Inten    --     44.9296               124.5007                47.7854

 - Thermochemistry -
 -------------------
 Temperature   298.150 Kelvin.  Pressure   1.00000 Atm.
 Atom     1 has atomic number  6 and mass  12.00000

 Molecular mass:   150.03169 amu.
 Principal axes and moments of inertia in atomic units:
                           1         2         3
     Eigenvalues --  1049.827311938.096642975.70417
           X            0.42498   0.76773  -0.47957
           Y            0.88835  -0.45547   0.05809
           Z            0.17383   0.45071   0.87558
 This molecule is an asymmetric top.
 Rotational symmetry number  1.
 Warning -- assumption of classical behavior for rotation
           may cause significant error
 Rotational temperatures (Kelvin)      0.08250     0.04469     0.02911
 Rotational constants (GHZ):           1.71908     0.93119     0.60649
 Zero-point vibrational energy     311770.6 (Joules/Mol)
                                   74.51496 (Kcal/Mol)
 Warning -- explicit consideration of  13 degrees of freedom as
           vibrations may cause significant error
 Vibrational temperatures:     80.47   137.80   225.18   246.03   307.74
          (Kelvin)            480.42   485.28   573.01   612.71   626.73
                              691.39   767.75   771.06   901.51   913.25
                             1006.11  1057.85  1163.55  1176.64  1202.94
                             1312.01  1354.48  1359.84  1471.61  1498.61
                             1617.42  1690.01  1768.91  1814.56  1908.54
                             1925.27  1970.99  2012.05  2081.90  2106.72
                             2116.48  2132.70  2278.62  2343.95  4352.33
                             4434.30  4471.20  4484.71  4505.55  4554.61

 Zero-point correction=                           0.118747 (Hartree/Particle)
 Thermal correction to Energy=                    0.128249
 Thermal correction to Enthalpy=                  0.129194
 Thermal correction to Gibbs Free Energy=         0.083539
 Sum of electronic and zero-point Energies=           -534.411877
 Sum of electronic and thermal Energies=              -534.402374
 Sum of electronic and thermal Enthalpies=            -534.401430
 Sum of electronic and thermal Free Energies=         -534.447084

                     E (Thermal)             CV                S
                      KCal/Mol        Cal/Mol-Kelvin    Cal/Mol-Kelvin
 Total                   80.478             35.817             96.087
 Electronic               0.000              0.000              0.000
 Translational            0.889              2.981             40.927
 Rotational               0.889              2.981             30.183
 Vibrational             78.700             29.855             24.977
 Vibration     1          0.596              1.975              4.596
 Vibration     2          0.603              1.952              3.539
 Vibration     3          0.620              1.895              2.592
 Vibration     4          0.626              1.878              2.424
 Vibration     5          0.644              1.820              2.010
 Vibration     6          0.715              1.608              1.241
 Vibration     7          0.718              1.601              1.225
 Vibration     8          0.765              1.474              0.969
 Vibration     9          0.788              1.414              0.872
 Vibration    10          0.796              1.393              0.841
 Vibration    11          0.837              1.293              0.709
 Vibration    12          0.889              1.176              0.579
 Vibration    13          0.891              1.171              0.574

 Optimization completed.
    -- Stationary point found.
 Normal termination of Gaussian 16 at Sat Feb 10 10:26:16 2024.
