 Gaussian 16, Revision A.03,
 Gaussian 16:  ES64L-G16RevA.03 25-Dec-2016

 ----------------------------------------------------------------
 #P UB3LYP/6-311++G(d,p) SCRF=(PCM,Solvent=n,n-DiMethylFormamide)
 ----------------------------------------------------------------

 -------
 Reduced
 -------
 Symbolic Z-matrix:
 Charge = -2 Multiplicity = 1

                         Standard orientation:
 ---------------------------------------------------------------------
 Center     Atomic      Atomic             Coordinates (Angstroms)
 Number     Number       Type             X           Y           Z
 ---------------------------------------------------------------------
      1          6           0        2.467784   -0.881084   -0.255397
      2          6           0        3.646207   -0.182427   -0.235922
      3          6           0        3.676324    1.230006   -0.180868
      4          6           0        1.222952   -0.206249   -0.214119
      5          6           0        1.225291    1.234433   -0.157049
      6          6           0        2.472654    1.902410   -0.138800
      7          6           0        0.000199   -0.989394   -0.246000
      8          6           0       -1.222616   -0.206359   -0.213719
      9          6           0       -1.225137    1.234319   -0.156487
     10          6           0        0.000041    2.016785   -0.127934
     11          6           0       -2.467381   -0.881324   -0.254838
     12          6           0       -3.645903   -0.182824   -0.234863
     13          6           0       -3.676189    1.229601   -0.179310
     14          6           0       -2.472581    1.902126   -0.137531
     15          8           0        0.000245   -2.262039   -0.302537
     16          8           0        0.000013    3.288893   -0.084305
     17          1           0        2.444069    2.985901   -0.094270
     18          1           0       -2.444123    2.985610   -0.092721
     19          1           0        2.455714   -1.963381   -0.313817
     20          1           0       -2.455202   -1.963599   -0.313628
     21          1           0       -4.620723    1.759075   -0.156880
     22          8           0       -4.845829   -0.933841   -0.395483
     23          6           0       -5.888470   -0.806013    0.446305
     24          6           0       -7.050259   -1.657571   -0.025256
     25          8           0       -5.930254   -0.092789    1.422225
     26          8           0        4.846318   -0.933266   -0.396164
     27          1           0       -6.709616   -2.538667   -0.569148
     28          1           0       -7.683329   -1.067596   -0.700428
     29          1           0       -7.659024   -1.946493    0.831274
     30          6           0        5.888020   -0.806115    0.446891
     31          6           0        7.050065   -1.657744   -0.023935
     32          8           0        5.928800   -0.093488    1.423271
     33          1           0        4.620823    1.759586   -0.159032
     34          1           0        6.709314   -2.541275   -0.563839
     35          1           0        7.660997   -1.942758    0.832342
     36          1           0        7.680764   -1.069625   -0.702913
 ---------------------------------------------------------------------

 SCF Done:  E(UB3LYP) =  -1145.09176903     A.U. after   18 cycles

 The electronic state is 1-A.
 Alpha  occ. eigenvalues --  -19.17504 -19.17502 -19.11714 -19.11712 -19.02356
 Alpha  occ. eigenvalues --  -19.02100 -10.31036 -10.31036 -10.21712 -10.21711
 Alpha  occ. eigenvalues --  -10.17857 -10.17615 -10.17615 -10.17549 -10.15669
 Alpha  occ. eigenvalues --  -10.15669 -10.15434 -10.15434 -10.15296 -10.15296
 Alpha  occ. eigenvalues --  -10.14139 -10.14138 -10.13868 -10.13867  -1.11195
 Alpha  occ. eigenvalues --   -1.11195  -1.03083  -1.03082  -0.94809  -0.94403
 Alpha  occ. eigenvalues --   -0.83923  -0.83485  -0.77416  -0.76243  -0.74477
 Alpha  occ. eigenvalues --   -0.73182  -0.72942  -0.71069  -0.65418  -0.63297
 Alpha  occ. eigenvalues --   -0.63065  -0.58665  -0.58006  -0.55688  -0.53168
 Alpha  occ. eigenvalues --   -0.50427  -0.50093  -0.49220  -0.48702  -0.48585
 Alpha  occ. eigenvalues --   -0.47924  -0.46997  -0.46676  -0.44283  -0.43938
 Alpha  occ. eigenvalues --   -0.41989  -0.41522  -0.41294  -0.41290  -0.40762
 Alpha  occ. eigenvalues --   -0.40243  -0.39467  -0.38740  -0.38394  -0.38007
 Alpha  occ. eigenvalues --   -0.37507  -0.36985  -0.36316  -0.35261  -0.33638
 Alpha  occ. eigenvalues --   -0.33455  -0.33369  -0.33010  -0.31501  -0.30817
 Alpha  occ. eigenvalues --   -0.29819  -0.28807  -0.28758  -0.24059  -0.23116
 Alpha  occ. eigenvalues --   -0.22639  -0.21802  -0.20572  -0.19791  -0.10545
 Alpha virt. eigenvalues --   -0.03270  -0.01346  -0.00392  -0.00132  -0.00089
 Alpha virt. eigenvalues --    0.00717   0.01000   0.01731   0.01869   0.02075
 Alpha virt. eigenvalues --    0.03310   0.03473   0.03715   0.04073   0.04624

  Beta  occ. eigenvalues --  -19.17504 -19.17502 -19.11714 -19.11712 -19.02356
  Beta  occ. eigenvalues --  -19.02100 -10.31036 -10.31036 -10.21712 -10.21711
  Beta  occ. eigenvalues --  -10.17857 -10.17615 -10.17615 -10.17549 -10.15669
  Beta  occ. eigenvalues --  -10.15669 -10.15434 -10.15434 -10.15296 -10.15296
  Beta  occ. eigenvalues --  -10.14139 -10.14138 -10.13868 -10.13867  -1.11195
  Beta  occ. eigenvalues --   -1.11195  -1.03083  -1.03082  -0.94809  -0.94403
  Beta  occ. eigenvalues --   -0.83923  -0.83485  -0.77416  -0.76243  -0.74477
  Beta  occ. eigenvalues --   -0.73182  -0.72942  -0.71069  -0.65418  -0.63297
  Beta  occ. eigenvalues --   -0.63065  -0.58665  -0.58006  -0.55688  -0.53168
  Beta  occ. eigenvalues --   -0.50427  -0.50093  -0.49220  -0.48702  -0.48585
  Beta  occ. eigenvalues --   -0.47924  -0.46997  -0.46676  -0.44283  -0.43938
  Beta  occ. eigenvalues --   -0.41989  -0.41522  -0.41294  -0.41290  -0.40762
  Beta  occ. eigenvalues --   -0.40243  -0.39467  -0.38740  -0.38394  -0.38007
  Beta  occ. eigenvalues --   -0.37507  -0.36985  -0.36316  -0.35261  -0.33638
  Beta  occ. eigenvalues --   -0.33455  -0.33369  -0.33010  -0.31501  -0.30817
  Beta  occ. eigenvalues --   -0.29819  -0.28807  -0.28758  -0.24059  -0.23116
  Beta  occ. eigenvalues --   -0.22639  -0.21802  -0.20572  -0.19791  -0.10545
  Beta virt. eigenvalues --   -0.03270  -0.01346  -0.00392  -0.00132  -0.00089
  Beta virt. eigenvalues --    0.00717   0.01000   0.01731   0.01869   0.02075
  Beta virt. eigenvalues --    0.03310   0.03473   0.03715   0.04073   0.04624

 Mulliken charges and spin densities:
               1          2
     1  C   -0.078127   0.000000
     2  C   -0.771929  -0.000000
     3  C   -0.066255  -0.000000
     4  C    0.416309  -0.000000
     5  C    0.374803  -0.000000
     6  C    0.056546  -0.000000
     7  C   -0.744682  -0.000000
     8  C    0.416456   0.000000
     9  C    0.375047   0.000000
    10  C   -0.521474  -0.000000
    11  C   -0.078368   0.000000
    12  C   -0.771877  -0.000000
    13  C   -0.066740   0.000000
    14  C    0.055698  -0.000000
    15  O   -0.636290   0.000000
    16  O   -0.625169   0.000000
    17  H    0.154651   0.000000
    18  H    0.154631   0.000000
    19  H    0.166097  -0.000000
    20  H    0.166061  -0.000000
    21  H    0.202490  -0.000000
    22  O   -0.039287   0.000000
    23  C    0.168564   0.000000
    24  C   -0.525537  -0.000000
    25  O   -0.334460  -0.000000
    26  O   -0.039330  -0.000000
    27  H    0.173054   0.000000
    28  H    0.193927   0.000000
    29  H    0.173794   0.000000
    30  C    0.168110  -0.000000
    31  C   -0.525504   0.000000
    32  O   -0.334393  -0.000000
    33  H    0.202443  -0.000000
    34  H    0.173079  -0.000000
    35  H    0.173741   0.000000
    36  H    0.193921  -0.000000
 Sum of Mulliken charges =  -2.00000   0.00000

 Dipole moment (field-independent basis, Debye):
    X=              0.0015    Y=             -6.3230    Z=             -2.7759  Tot=              6.9055
 Quadrupole moment (field-independent basis, Debye-Ang):
   XX=           -172.4774   YY=           -193.3286   ZZ=           -159.4279
   XY=              0.0062   XZ=              0.0053   YZ=             -3.8401

 Normal termination of Gaussian 16 at Sun Jan 14 01:34:47 2024.
