 Q-Chem 5.4, Q-Chem, Inc., Pleasanton, CA (2021)
 Q-Chem 5.4.0 for Intel X86 EM64T Linux

User input:
--------------------------------------------------------------
$molecule
-2 1
C                 -0.3928060000      1.1227740000     -0.3445440000
C                 -1.4317680000      0.1339260000     -0.5592240000
C                 -1.2600400000     -1.2154510000     -0.3567180000
C                 -0.0306030000     -1.8041760000      0.1124840000
C                  1.0075380000     -0.8685700000      0.3687190000
C                  0.8476850000      0.5573400000      0.1881330000
O                 -0.6306080000      2.3581630000     -0.5568120000
O                  0.0985550000     -3.0953980000      0.2411780000
C                  1.8755250000      1.4843380000      0.6558190000
C                  2.5288810000      1.2095250000      2.0338880000
O                  2.2265930000      2.5402580000      0.1086980000
H                 -2.3813780000      0.5253300000     -0.9258120000
H                 -2.0748200000     -1.9105070000     -0.5692600000
H                  2.1249110000      0.3378150000      2.5482620000
H                  2.3483630000      2.1053670000      2.6398960000
H                  3.6176260000      1.0985380000      1.9343760000
C                  2.3534740000     -1.4891420000      0.6721200000
H                  2.4148930000     -2.4463430000      0.1403610000
H                  2.5038410000     -1.7393270000      1.7386790000
H                  3.1875280000     -0.8462210000      0.3688370000
$end
$rem
MAX_SCF_CYCLES=200
BASIS  =  6-311++G(d,p)
GUI  =  2
JOB_TYPE  =  SP
METHOD  =  B3LYP
SOLVENT_METHOD = COSMO
$end
$solvent
dielectric 37.219
opticaldielectric 1.43
$end

--------------------------------------------------------------

             Standard Nuclear Orientation (Angstroms)
    I     Atom           X                Y                Z
 ----------------------------------------------------------------
    1      C       0.3329660695    -1.5836088032     0.0192426413
    2      C      -1.0424890607    -2.0049976713    -0.1648891414
    3      C      -2.1133555779    -1.1422762129    -0.1814439548
    4      C      -1.9918911079     0.2869440413    -0.0370873590
    5      C      -0.6570725822     0.7501030256     0.1128958309
    6      C       0.4895508638    -0.1311614770     0.1095547815
    7      O       1.2722405652    -2.4470516333     0.0240776520
    8      O      -3.0426780404     1.0586799034    -0.0093606660
    9      C       1.8442847162     0.4140356813     0.0652061639
   10      C       2.1139143472     1.6139854336    -0.8776039286
   11      O       2.8462657474    -0.0413817636     0.6363332423
   12      H      -1.1923482515    -3.0802618279    -0.2682923403
   13      H      -3.1283807879    -1.5292471038    -0.2915382142
   14      H       1.2438043200     1.9266404920    -1.4544973779
   15      H       2.9069757502     1.2903825752    -1.5622207078
   16      H       2.5021421216     2.4736520028    -0.3138318007
   17      C      -0.5351538053     2.2178362429     0.4587288900
   18      H      -1.4253485182     2.5083809887     1.0296148732
   19      H      -0.5226035632     2.8881366465    -0.4206406169
   20      H       0.3646095745     2.4351826134     1.0453808149
 ----------------------------------------------------------------

   12    -573.5591290023      6.30e-06  Convergence criterion met
 Total energy in the final basis set =     -573.5591290023
    6    -573.8580954270      4.70e-06  Convergence criterion met
 Total energy in the final basis set =     -573.8580954270

                    Orbital Energies (a.u.)
 --------------------------------------------------------------

 Alpha MOs
 -- Occupied --
-19.0831 -19.0329 -19.0224 -10.2332 -10.1920 -10.1720 -10.1476 -10.1382
-10.1377 -10.1371 -10.1364 -10.1315  -1.0088  -0.9525  -0.9325  -0.7919
 -0.7417  -0.7074  -0.6783  -0.6343  -0.5861  -0.5293  -0.4945  -0.4544
 -0.4421  -0.4261  -0.4197  -0.3984  -0.3966  -0.3854  -0.3706  -0.3663
 -0.3604  -0.3534  -0.3371  -0.3268  -0.3175  -0.3152  -0.2417  -0.2360
 -0.2161  -0.2059  -0.1978  -0.1303

          Ground-State Mulliken Net Atomic Charges

     Atom                 Charge (a.u.)
  ----------------------------------------
      1 C                    -0.873919
      2 C                    -0.007329
      3 C                    -0.012049
      4 C                    -0.544214
      5 C                     0.484759
      6 C                     0.647635
      7 O                    -0.673418
      8 O                    -0.766318
      9 C                     0.194251
     10 C                    -0.651071
     11 O                    -0.439839
     12 H                     0.160604
     13 H                     0.164882
     14 H                     0.159732
     15 H                     0.185733
     16 H                     0.180582
     17 C                    -0.678937
     18 H                     0.164048
     19 H                     0.155391
     20 H                     0.149476
  ----------------------------------------
  Sum of atomic charges =    -2.000000

                    Cartesian Multipole Moments
 -----------------------------------------------------------------
    Charge (ESU x 10^10)
                -9.6064
    Dipole Moment (Debye)
         X       2.5634      Y       5.8005      Z      -2.0434
       Tot       6.6627
    Quadrupole Moments (Debye-Ang)
        XX    -140.4863     XY      27.0597     YY    -104.1915
        XZ      -6.3821     YZ       0.5575     ZZ     -79.9567

 Total job time:  28.32s(wall), 201.87s(cpu)
        *  Thank you very much for using Q-Chem.  Have a nice day.  *
