 Gaussian 16, Revision A.03,
 Gaussian 16:  ES64L-G16RevA.03 25-Dec-2016

 --------------------------------------
 #P UB3LYP/6-311++G(d,p) nosym opt freq
 --------------------------------------

 -------
 Radical
 -------
 Symbolic Z-matrix:
 Charge = -1 Multiplicity = 2

 SCF Done:  E(UB3LYP) =  -799.767676787     A.U. after   22 cycles
 Optimization completed.
    -- Stationary point found.
 Normal termination of Gaussian 16 at Wed Dec 27 19:53:07 2023.

 ----------------------------------------------------------------------
 #P Geom=AllCheck Guess=TCheck SCRF=Check GenChk UB3LYP/6-311++G(d,p) F
 req
 ----------------------------------------------------------------------

 Structure from the checkpoint file:  "168-rad.chk"
 -------
 Radical
 -------
 Charge = -1 Multiplicity = 2

                          Input orientation:
 ---------------------------------------------------------------------
 Center     Atomic      Atomic             Coordinates (Angstroms)
 Number     Number       Type             X           Y           Z
 ---------------------------------------------------------------------
      1          7           0       -5.051543   -0.663173   -0.589200
      2          6           0       -3.739888   -0.216492   -0.282524
      3          6           0       -3.566060    1.021293    0.384794
      4          6           0       -2.297956    1.492236    0.650432
      5          6           0       -1.143853    0.776541    0.265176
      6          6           0        0.176147    1.322486    0.572389
      7          8           0        0.326425    2.417033    1.176510
      8          6           0        1.318020    0.516647    0.137285
      9          6           0        2.624160    0.980134    0.404749
     10          6           0        3.740428    0.258779    0.024199
     11          7           0        5.052437    0.752060    0.244970
     12          6           0        3.566655   -0.974161   -0.652115
     13          6           0        2.298535   -1.446531   -0.915026
     14          6           0        1.144413   -0.727431   -0.536334
     15          6           0       -0.175603   -1.275310   -0.840091
     16          8           0       -0.325994   -2.377037   -1.430767
     17          6           0       -1.317377   -0.465067   -0.412968
     18          6           0       -2.623704   -0.934554   -0.669147
     19          1           0       -5.726886   -0.431835    0.128550
     20          1           0       -5.087861   -1.654325   -0.789743
     21          1           0       -4.439513    1.598546    0.677888
     22          1           0       -2.149424    2.435564    1.163785
     23          1           0        2.716977    1.928405    0.925212
     24          1           0        5.722151    0.020955    0.448825
     25          1           0        5.085485    1.461558    0.965570
     26          1           0        4.440273   -1.539133   -0.967755
     27          1           0        2.150040   -2.390134   -1.427950
     28          1           0       -2.716484   -1.887052   -1.181906
 ---------------------------------------------------------------------

 SCF Done:  E(UB3LYP) =  -799.767676787     A.U. after    1 cycles

 Alpha  occ. eigenvalues --  -18.93770 -18.93769 -14.21719 -14.21719 -10.09489
 Alpha  occ. eigenvalues --  -10.09487 -10.08784 -10.08782 -10.05347 -10.05347
 Alpha  occ. eigenvalues --  -10.04953 -10.04953 -10.04471 -10.04470 -10.04134
 Alpha  occ. eigenvalues --  -10.04134 -10.03916 -10.03915  -0.86378  -0.86098
 Alpha  occ. eigenvalues --   -0.81160  -0.81151  -0.72648  -0.71526  -0.65060
 Alpha  occ. eigenvalues --   -0.62670  -0.62155  -0.60398  -0.53776  -0.52059
 Alpha  occ. eigenvalues --   -0.49171  -0.47861  -0.43756  -0.42424  -0.41109
 Alpha  occ. eigenvalues --   -0.40049  -0.38917  -0.37434  -0.34552  -0.33184
 Alpha  occ. eigenvalues --   -0.32767  -0.30252  -0.30080  -0.29503  -0.29233
 Alpha  occ. eigenvalues --   -0.27884  -0.27699  -0.26809  -0.26303  -0.25112
 Alpha  occ. eigenvalues --   -0.24158  -0.23090  -0.22904  -0.20790  -0.19584
 Alpha  occ. eigenvalues --   -0.17961  -0.13590  -0.12849  -0.10984  -0.10841
 Alpha  occ. eigenvalues --   -0.10030  -0.09596  -0.00547
 Alpha virt. eigenvalues --    0.06954   0.06973   0.07392   0.09489   0.09608
 Alpha virt. eigenvalues --    0.10650   0.11181   0.11604   0.12019   0.12802
 Alpha virt. eigenvalues --    0.13803   0.14224   0.14956   0.15821   0.15892

  Beta  occ. eigenvalues --  -18.93190 -18.93188 -14.21704 -14.21704 -10.09426
  Beta  occ. eigenvalues --  -10.09423 -10.08634 -10.08632 -10.05325 -10.05325
  Beta  occ. eigenvalues --  -10.04961 -10.04961 -10.04349 -10.04348 -10.04124
  Beta  occ. eigenvalues --  -10.04124 -10.03865 -10.03864  -0.85387  -0.85074
  Beta  occ. eigenvalues --   -0.81097  -0.81084  -0.72377  -0.71436  -0.64713
  Beta  occ. eigenvalues --   -0.62421  -0.62022  -0.60230  -0.53048  -0.51928
  Beta  occ. eigenvalues --   -0.48951  -0.47790  -0.43551  -0.42211  -0.41044
  Beta  occ. eigenvalues --   -0.40005  -0.38851  -0.37252  -0.34333  -0.33081
  Beta  occ. eigenvalues --   -0.32597  -0.30221  -0.30041  -0.29332  -0.28316
  Beta  occ. eigenvalues --   -0.27696  -0.27406  -0.26419  -0.25881  -0.24356
  Beta  occ. eigenvalues --   -0.22864  -0.22826  -0.21912  -0.20567  -0.19264
  Beta  occ. eigenvalues --   -0.16923  -0.12476  -0.12000  -0.10303  -0.09770
  Beta  occ. eigenvalues --   -0.09474  -0.09006
  Beta virt. eigenvalues --    0.05321   0.06957   0.06983   0.08198   0.09474
  Beta virt. eigenvalues --    0.09599   0.10823   0.11626   0.11903   0.12210
  Beta virt. eigenvalues --    0.12798   0.13857   0.14213   0.15042   0.15959

 Mulliken charges and spin densities:
               1          2
     1  N   -0.330174   0.006522
     2  C   -0.499015   0.036348
     3  C   -0.031345   0.020870
     4  C    0.117413   0.021459
     5  C    0.252312   0.019328
     6  C   -0.952811   0.075484
     7  O   -0.375366   0.216889
     8  C    0.532002   0.078959
     9  C   -0.084483   0.028601
    10  C   -0.498504   0.036294
    11  N   -0.330241   0.006540
    12  C   -0.032530   0.020850
    13  C    0.117545   0.021424
    14  C    0.251768   0.019270
    15  C   -0.953189   0.075420
    16  O   -0.375308   0.216795
    17  C    0.531536   0.079016
    18  C   -0.085953   0.028517
    19  H    0.217941   0.001991
    20  H    0.228380  -0.000141
    21  H    0.132060  -0.002311
    22  H    0.157913  -0.001260
    23  H    0.136793  -0.002575
    24  H    0.217943   0.001994
    25  H    0.228490  -0.000144
    26  H    0.132006  -0.002310
    27  H    0.157923  -0.001260
    28  H    0.136893  -0.002569
 Sum of Mulliken charges =  -1.00000   1.00000

 Dipole moment (field-independent basis, Debye):
    X=             -0.0096    Y=             -1.1633    Z=              2.5796  Tot=              2.8298
 Quadrupole moment (field-independent basis, Debye-Ang):
   XX=           -112.2145   YY=           -130.6857   ZZ=           -119.1577
   XY=             -0.4583   XZ=             -0.2553   YZ=             -9.1186

  Exact polarizability: 387.780   1.921 200.211   2.881  51.824 132.924
 Approx polarizability: 555.239  11.843 374.319   8.960 113.382 227.241

                      1                      2                      3
                      A                      A                      A
 Frequencies --     44.3673                97.6949               116.0369
 Red. masses --      6.5759                 4.2690                 5.5847
 Frc consts  --      0.0076                 0.0240                 0.0443
 IR Inten    --      7.0737                 0.5578                 1.5383

                      4                      5                      6
                      A                      A                      A
 Frequencies --    151.7382               168.0078               184.1783
 Red. masses --      7.1380                 4.6058                 4.9763
 Frc consts  --      0.0968                 0.0766                 0.0995
 IR Inten    --      1.7709                 6.9065                 2.8160

                      7                      8                      9
                      A                      A                      A
 Frequencies --    232.9176               239.6610               248.0129
 Red. masses --      1.6146                 1.0627                 1.9828
 Frc consts  --      0.0516                 0.0360                 0.0719
 IR Inten    --      0.0846                79.1907                 0.0902

                     10                     11                     12
                      A                      A                      A
 Frequencies --    274.5920               318.4880               320.5697
 Red. masses --      5.1733                 5.4013                 7.3036
 Frc consts  --      0.2298                 0.3228                 0.4422
 IR Inten    --      6.6442                 4.8695                 0.0350

                     13                     14                     15
                      A                      A                      A
 Frequencies --    359.8343               385.0464               390.4206
 Red. masses --      8.0446                 5.4239                 4.4346
 Frc consts  --      0.6137                 0.4738                 0.3983
 IR Inten    --      3.9586                 0.1455                 7.0374

                     16                     17                     18
                      A                      A                      A
 Frequencies --    429.1092               453.2523               464.3003
 Red. masses --      3.3252                 4.8529                 3.4636
 Frc consts  --      0.3608                 0.5874                 0.4399
 IR Inten    --      5.3536                 0.3546                 0.1825

                     19                     20                     21
                      A                      A                      A
 Frequencies --    478.9277               490.9919               547.2800
 Red. masses --      5.0793                11.1199                 6.2262
 Frc consts  --      0.6864                 1.5794                 1.0987
 IR Inten    --     21.4041                 0.0020                35.8243

                     22                     23                     24
                      A                      A                      A
 Frequencies --    561.6832               644.5351               651.3992
 Red. masses --      3.0230                 6.4099                 2.8180
 Frc consts  --      0.5619                 1.5689                 0.7045
 IR Inten    --     55.5515                 2.7812               131.2620

                     25                     26                     27
                      A                      A                      A
 Frequencies --    663.2051               704.9236               707.1027
 Red. masses --      6.6242                 2.0127                 4.7070
 Frc consts  --      1.7166                 0.5893                 1.3866
 IR Inten    --      4.6245                28.7430                 6.4747

                     28                     29                     30
                      A                      A                      A
 Frequencies --    710.8454               722.8182               744.1173
 Red. masses --      2.3106                 4.1712                 2.3888
 Frc consts  --      0.6879                 1.2840                 0.7793
 IR Inten    --    426.5027                12.3487               117.5715

                     31                     32                     33
                      A                      A                      A
 Frequencies --    747.7508               785.8151               804.3940
 Red. masses --      3.4296                 2.1523                 1.9385
 Frc consts  --      1.1298                 0.7831                 0.7390
 IR Inten    --     78.1365                15.6836                24.4849

                     34                     35                     36
                      A                      A                      A
 Frequencies --    817.3505               819.1144               886.1990
 Red. masses --      2.8411                 2.6787                 6.2160
 Frc consts  --      1.1183                 1.0589                 2.8762
 IR Inten    --     32.8085                12.5297                57.4187

                     37                     38                     39
                      A                      A                      A
 Frequencies --    902.4253               903.5106               975.2636
 Red. masses --      1.5286                 1.4932                 1.3098
 Frc consts  --      0.7334                 0.7182                 0.7340
 IR Inten    --      3.8617                41.4476                 0.2143

                     40                     41                     42
                      A                      A                      A
 Frequencies --    977.0351               986.2435               991.3073
 Red. masses --      1.3323                 3.6268                 2.4956
 Frc consts  --      0.7493                 2.0785                 1.4449
 IR Inten    --      4.1577                 0.0771                10.5779

                     43                     44                     45
                      A                      A                      A
 Frequencies --   1098.9244              1103.1594              1114.2884
 Red. masses --      2.1716                 1.6059                 1.5766
 Frc consts  --      1.5451                 1.1514                 1.1534
 IR Inten    --     12.9341                 0.0338                 1.7234

                     46                     47                     48
                      A                      A                      A
 Frequencies --   1139.5534              1148.8420              1157.6502
 Red. masses --      1.2913                 2.0339                 1.9661
 Frc consts  --      0.9880                 1.5816                 1.5524
 IR Inten    --      0.0405                67.3293                 0.0564

                     49                     50                     51
                      A                      A                      A
 Frequencies --   1220.0966              1221.5452              1248.5717
 Red. masses --      2.1330                 1.6326                 2.6275
 Frc consts  --      1.8708                 1.4354                 2.4133
 IR Inten    --    103.0689                 0.0181                50.9923

                     52                     53                     54
                      A                      A                      A
 Frequencies --   1262.5857              1283.0267              1339.5686
 Red. masses --      6.2578                 2.3546                 2.1324
 Frc consts  --      5.8776                 2.2837                 2.2545
 IR Inten    --      0.1333                39.8139                 0.0103

                     55                     56                     57
                      A                      A                      A
 Frequencies --   1367.8046              1371.1639              1418.8889
 Red. masses --      7.9183                 8.0743                 3.4265
 Frc consts  --      8.7283                 8.9440                 4.0644
 IR Inten    --     17.1478                 0.0557               392.1767

                     58                     59                     60
                      A                      A                      A
 Frequencies --   1475.3817              1478.7975              1504.9853
 Red. masses --      2.9737                 4.2888                 3.6276
 Frc consts  --      3.8137                 5.5260                 4.8410
 IR Inten    --    194.2340                 0.0471                 0.0469

                     61                     62                     63
                      A                      A                      A
 Frequencies --   1526.3840              1538.6928              1565.3063
 Red. masses --      6.9752                 7.2108                 5.8057
 Frc consts  --      9.5748                10.0586                 8.3812
 IR Inten    --    700.4976                 0.0529                67.6239

                     64                     65                     66
                      A                      A                      A
 Frequencies --   1613.4520              1631.9408              1637.9856
 Red. masses --      8.5497                 3.4400                 2.5111
 Frc consts  --     13.1133                 5.3979                 3.9695
 IR Inten    --      0.0236                 3.5524               103.7092

                     67                     68                     69
                      A                      A                      A
 Frequencies --   1649.7712              1650.7717              3131.0268
 Red. masses --      1.3123                 1.5502                 1.0878
 Frc consts  --      2.1045                 2.4889                 6.2828
 IR Inten    --     19.0377               276.6756                78.9863

                     70                     71                     72
                      A                      A                      A
 Frequencies --   3131.3093              3158.6837              3159.0794
 Red. masses --      1.0878                 1.0891                 1.0891
 Frc consts  --      6.2844                 6.4021                 6.4036
 IR Inten    --      0.3039                33.7505                 7.7780

                     73                     74                     75
                      A                      A                      A
 Frequencies --   3180.4749              3180.8844              3525.3462
 Red. masses --      1.0914                 1.0915                 1.0479
 Frc consts  --      6.5048                 6.5066                 7.6735
 IR Inten    --     27.2271                 4.7424                 0.7579

                     76                     77                     78
                      A                      A                      A
 Frequencies --   3526.3357              3618.5735              3619.8759
 Red. masses --      1.0479                 1.0960                 1.0960
 Frc consts  --      7.6775                 8.4552                 8.4618
 IR Inten    --      0.7437                 4.8414                 4.6720

 - Thermochemistry -
 -------------------
 Temperature   298.150 Kelvin.  Pressure   1.00000 Atm.
 Atom     1 has atomic number  7 and mass  14.00307

 Molecular mass:   238.07423 amu.
 Principal axes and moments of inertia in atomic units:
                           1         2         3
     Eigenvalues --  1778.839596821.427488595.62928
           X            0.99916  -0.04065  -0.00572
           Y            0.03300   0.87821  -0.47713
           Z            0.02442   0.47654   0.87881
 This molecule is an asymmetric top.
 Rotational symmetry number  1.
 Warning -- assumption of classical behavior for rotation
           may cause significant error
 Rotational temperatures (Kelvin)      0.04869     0.01270     0.01008
 Rotational constants (GHZ):           1.01456     0.26457     0.20996
 Zero-point vibrational energy     550899.4 (Joules/Mol)
                                  131.66813 (Kcal/Mol)
 Warning -- explicit consideration of  22 degrees of freedom as
           vibrations may cause significant error
 Vibrational temperatures:     63.83   140.56   166.95   218.32   241.73
          (Kelvin)            264.99   335.12   344.82   356.84   395.08
                              458.23   461.23   517.72   554.00   561.73
                              617.39   652.13   668.02   689.07   706.43
                              787.41   808.14   927.34   937.22   954.20
                             1014.23  1017.36  1022.75  1039.97  1070.62
                             1075.85  1130.61  1157.34  1175.99  1178.52
                             1275.04  1298.39  1299.95  1403.19  1405.74
                             1418.98  1426.27  1581.11  1587.20  1603.21
                             1639.56  1652.93  1665.60  1755.45  1757.53
                             1796.42  1816.58  1845.99  1927.34  1967.97
                             1972.80  2041.46  2122.75  2127.66  2165.34
                             2196.13  2213.84  2252.13  2321.40  2348.00
                             2356.70  2373.65  2375.09  4504.85  4505.26
                             4544.64  4545.21  4575.99  4576.58  5072.19
                             5073.61  5206.32  5208.19

 Zero-point correction=                           0.209827 (Hartree/Particle)
 Thermal correction to Energy=                    0.224099
 Thermal correction to Enthalpy=                  0.225043
 Thermal correction to Gibbs Free Energy=         0.168732
 Sum of electronic and zero-point Energies=           -799.557850
 Sum of electronic and thermal Energies=              -799.543578
 Sum of electronic and thermal Enthalpies=            -799.542634
 Sum of electronic and thermal Free Energies=         -799.598945

                     E (Thermal)             CV                S
                      KCal/Mol        Cal/Mol-Kelvin    Cal/Mol-Kelvin
 Total                  140.624             57.963            118.516
 Electronic               0.000              0.000              1.377
 Translational            0.889              2.981             42.304
 Rotational               0.889              2.981             33.011
 Vibrational            138.847             52.002             41.824
 Vibration     1          0.595              1.980              5.054
 Vibration     2          0.603              1.951              3.500
 Vibration     3          0.608              1.936              3.165
 Vibration     4          0.619              1.901              2.650
 Vibration     5          0.625              1.882              2.458
 Vibration     6          0.631              1.861              2.286
 Vibration     7          0.654              1.791              1.856
 Vibration     8          0.657              1.780              1.805
 Vibration     9          0.662              1.766              1.745
 Vibration    10          0.677              1.720              1.567
 Vibration    11          0.705              1.638              1.318
 Vibration    12          0.706              1.634              1.307
 Vibration    13          0.734              1.555              1.123
 Vibration    14          0.754              1.502              1.019
 Vibration    15          0.758              1.491              0.999
 Vibration    16          0.790              1.407              0.862
 Vibration    17          0.812              1.354              0.786
 Vibration    18          0.822              1.329              0.754
 Vibration    19          0.835              1.297              0.713
 Vibration    20          0.847              1.270              0.681
 Vibration    21          0.902              1.146              0.550
 Vibration    22          0.917              1.114              0.520

                           ! Non-Optimized Parameters !
 Normal termination of Gaussian 16 at Wed Dec 27 21:08:03 2023.
