 Gaussian 16, Revision A.03,
 Gaussian 16:  ES64L-G16RevA.03 25-Dec-2016

 ----------------------------------------------------------------
 #P UB3LYP/6-311++G(d,p) SCRF=(PCM,Solvent=n,n-DiMethylFormamide)
 ----------------------------------------------------------------

 ------------------
 Radical PCM in DMF
 ------------------
 Symbolic Z-matrix:
 Charge = -1 Multiplicity = 2

                         Standard orientation:
 ---------------------------------------------------------------------
 Center     Atomic      Atomic             Coordinates (Angstroms)
 Number     Number       Type             X           Y           Z
 ---------------------------------------------------------------------
      1          7           0        5.081274    0.615367   -0.051660
      2          6           0        3.748548    0.130120   -0.002770
      3          6           0        3.517876   -1.267880   -0.007889
      4          6           0        2.228867   -1.756644   -0.006391
      5          6           0        1.108669   -0.897727   -0.010086
      6          6           0       -0.235674   -1.470067   -0.008133
      7          8           0       -0.436563   -2.713113   -0.000313
      8          6           0       -1.339471   -0.508725   -0.012556
      9          6           0       -2.666284   -0.990269   -0.006113
     10          6           0       -3.748607   -0.130158   -0.002756
     11          7           0       -5.081127   -0.615379   -0.051597
     12          6           0       -3.517930    1.267876   -0.007855
     13          6           0       -2.228924    1.756594   -0.006276
     14          6           0       -1.108660    0.897813   -0.009973
     15          6           0        0.235679    1.470204   -0.007966
     16          8           0        0.436589    2.713144   -0.000544
     17          6           0        1.339427    0.508802   -0.012659
     18          6           0        2.666349    0.990230   -0.006320
     19          1           0        5.730950    0.042788    0.472597
     20          1           0        5.155062    1.579910    0.245209
     21          1           0        4.364461   -1.949918   -0.020738
     22          1           0        2.036910   -2.823703   -0.006180
     23          1           0       -2.802909   -2.067316   -0.001694
     24          1           0       -5.731189   -0.043299    0.472552
     25          1           0       -5.155052   -1.580526    0.242973
     26          1           0       -4.364534    1.949879   -0.020680
     27          1           0       -2.037006    2.823690   -0.005979
     28          1           0        2.802888    2.067319   -0.001953
 ---------------------------------------------------------------------

 SCF Done:  E(UB3LYP) =  -799.854566059     A.U. after   18 cycles

 The electronic state is 2-A.
 Alpha  occ. eigenvalues --  -19.06966 -19.06964 -14.31651 -14.31650 -10.21763
 Alpha  occ. eigenvalues --  -10.21761 -10.21132 -10.21130 -10.16944 -10.16943
 Alpha  occ. eigenvalues --  -10.16910 -10.16909 -10.16846 -10.16845 -10.16304
 Alpha  occ. eigenvalues --  -10.16303 -10.16021 -10.16020  -0.99646  -0.99394
 Alpha  occ. eigenvalues --   -0.91525  -0.91520  -0.84769  -0.83346  -0.77000
 Alpha  occ. eigenvalues --   -0.74788  -0.74107  -0.72176  -0.66043  -0.63800
 Alpha  occ. eigenvalues --   -0.60849  -0.59477  -0.55680  -0.53730  -0.52784
 Alpha  occ. eigenvalues --   -0.50698  -0.49337  -0.48627  -0.46488  -0.44867
 Alpha  occ. eigenvalues --   -0.44363  -0.42189  -0.42007  -0.41913  -0.41501
 Alpha  occ. eigenvalues --   -0.40371  -0.40062  -0.39146  -0.38060  -0.37463
 Alpha  occ. eigenvalues --   -0.36812  -0.35224  -0.34707  -0.33109  -0.30991
 Alpha  occ. eigenvalues --   -0.30041  -0.25960  -0.25154  -0.24170  -0.23278
 Alpha  occ. eigenvalues --   -0.22667  -0.21237  -0.13340
 Alpha virt. eigenvalues --   -0.04830  -0.00910  -0.00462  -0.00084   0.00030
 Alpha virt. eigenvalues --    0.01158   0.01436   0.02188   0.03437   0.04117
 Alpha virt. eigenvalues --    0.04314   0.04376   0.04944   0.05990   0.06137

  Beta  occ. eigenvalues --  -19.06443 -19.06441 -14.31629 -14.31629 -10.21566
  Beta  occ. eigenvalues --  -10.21563 -10.21073 -10.21071 -10.16935 -10.16935
  Beta  occ. eigenvalues --  -10.16834 -10.16833 -10.16805 -10.16804 -10.16274
  Beta  occ. eigenvalues --  -10.16272 -10.15990 -10.15989  -0.98722  -0.98449
  Beta  occ. eigenvalues --   -0.91445  -0.91441  -0.84494  -0.83257  -0.76678
  Beta  occ. eigenvalues --   -0.74504  -0.73948  -0.72024  -0.65294  -0.63653
  Beta  occ. eigenvalues --   -0.60627  -0.59399  -0.55429  -0.53502  -0.52694
  Beta  occ. eigenvalues --   -0.50645  -0.49289  -0.48442  -0.46236  -0.44762
  Beta  occ. eigenvalues --   -0.44223  -0.42146  -0.41965  -0.41206  -0.40772
  Beta  occ. eigenvalues --   -0.40036  -0.39823  -0.38928  -0.37747  -0.36178
  Beta  occ. eigenvalues --   -0.35215  -0.34873  -0.34668  -0.32942  -0.30692
  Beta  occ. eigenvalues --   -0.28906  -0.24912  -0.24294  -0.23689  -0.22779
  Beta  occ. eigenvalues --   -0.21756  -0.20691
  Beta virt. eigenvalues --   -0.07557  -0.03895  -0.00528  -0.00064   0.00076
  Beta virt. eigenvalues --    0.00281   0.01163   0.01474   0.02187   0.03481
  Beta virt. eigenvalues --    0.04115   0.04339   0.04590   0.05209   0.06053

 Mulliken charges and spin densities:
               1          2
     1  N   -0.369800   0.009634
     2  C   -0.583563   0.033981
     3  C   -0.137449   0.010720
     4  C    0.127038   0.034059
     5  C    0.193925   0.001952
     6  C   -0.745836   0.110771
     7  O   -0.476710   0.194805
     8  C    0.486817   0.062283
     9  C   -0.040560   0.047884
    10  C   -0.582884   0.033912
    11  N   -0.369813   0.009657
    12  C   -0.138598   0.010702
    13  C    0.127190   0.034013
    14  C    0.193474   0.001894
    15  C   -0.746142   0.110662
    16  O   -0.476621   0.194722
    17  C    0.486506   0.062365
    18  C   -0.041725   0.047747
    19  H    0.264728   0.000772
    20  H    0.270110  -0.000221
    21  H    0.195392  -0.001499
    22  H    0.165547  -0.001699
    23  H    0.151529  -0.003240
    24  H    0.264727   0.000772
    25  H    0.270217  -0.000223
    26  H    0.195349  -0.001498
    27  H    0.165553  -0.001697
    28  H    0.151601  -0.003231
 Sum of Mulliken charges =  -1.00000   1.00000

 Dipole moment (field-independent basis, Debye):
    X=             -0.0059    Y=             -0.0016    Z=              2.9229  Tot=              2.9229
 Quadrupole moment (field-independent basis, Debye-Ang):
   XX=            -87.2990   YY=           -138.0071   ZZ=           -113.5108
   XY=             -3.0426   XZ=              0.0189   YZ=              0.0089

 Normal termination of Gaussian 16 at Sun Jan 14 01:18:02 2024.
