 Gaussian 16, Revision A.03,
 Gaussian 16:  ES64L-G16RevA.03 25-Dec-2016

 --------------------------------------
 #P UB3LYP/6-311++G(d,p) nosym opt freq
 --------------------------------------

 -------
 Reduced
 -------
 Symbolic Z-matrix:
 Charge = -2 Multiplicity = 1

 SCF Done:  E(UB3LYP) =  -1357.59106889     A.U. after   40 cycles
 SCF Done:  E(UB3LYP) =  -1357.59106880     A.U. after   26 cycles
 SCF Done:  E(UB3LYP) =  -1357.59106890     A.U. after   23 cycles
 Optimization completed.
    -- Stationary point found.
 Normal termination of Gaussian 16 at Mon Jan  8 22:52:33 2024.

 ----------------------------------------------------------------------
 #P Geom=AllCheck Guess=TCheck SCRF=Check GenChk UB3LYP/6-311++G(d,p) F
 req
 ----------------------------------------------------------------------

 Structure from the checkpoint file:  "314-an.chk"
 -------
 Reduced
 -------
 Charge = -2 Multiplicity = 1

                          Input orientation:
 ---------------------------------------------------------------------
 Center     Atomic      Atomic             Coordinates (Angstroms)
 Number     Number       Type             X           Y           Z
 ---------------------------------------------------------------------
      1          6           0       -4.436358   -0.532306   -3.551702
      2          6           0       -3.550123   -0.948119   -4.528401
      3          6           0       -2.158125   -0.807120   -4.320831
      4          6           0       -3.991815    0.034736   -2.334621
      5          6           0       -2.582908    0.174336   -2.126089
      6          6           0       -1.697910   -0.255886   -3.137617
      7          6           0       -4.976816    0.456255   -1.337818
      8          6           0       -4.438409    1.009960   -0.137446
      9          6           0       -3.031321    1.159194    0.049656
     10          6           0       -2.034087    0.763967   -0.899296
     11          8           0       -6.238031    0.318397   -1.556587
     12          8           0       -0.778196    0.878887   -0.717207
     13          1           0       -5.510096   -0.624759   -3.678610
     14          1           0       -3.921278   -1.382089   -5.455036
     15          1           0       -1.455124   -1.132342   -5.084949
     16          1           0       -0.637483   -0.132459   -2.942511
     17          6           0       -5.431303    1.425929    0.918194
     18         16           0       -2.445123    2.059273    1.489641
     19          6           0       -1.656189    0.883734    2.562718
     20          6           0       -1.326734    1.272594    3.851925
     21          6           0       -0.692204    0.389334    4.757800
     22          6           0       -0.380156   -0.943991    4.329172
     23          6           0       -0.721601   -1.313802    3.000546
     24          6           0       -1.335572   -0.437854    2.139386
     25          6           0       -0.354203    0.765320    6.087808
     26          6           0        0.264296   -0.115304    6.947706
     27          6           0        0.570563   -1.429845    6.522398
     28          6           0        0.250296   -1.827388    5.241671
     29          1           0       -5.498973    2.519179    1.024784
     30          1           0       -5.167698    1.035843    1.908280
     31          1           0       -6.414105    1.054284    0.620722
     32          1           0       -1.567961    2.277733    4.188109
     33          1           0       -0.476885   -2.316794    2.660396
     34          1           0       -1.574488   -0.723199    1.123958
     35          1           0       -0.590033    1.773958    6.417126
     36          1           0        0.522070    0.195842    7.957380
     37          1           0        1.058669   -2.118165    7.207430
     38          1           0        0.482425   -2.836177    4.909545
 ---------------------------------------------------------------------

 SCF Done:  E(UB3LYP) =  -1357.59106890     A.U. after    2 cycles

 Alpha  occ. eigenvalues --  -88.63391 -18.81408 -18.80288 -10.01350 -10.00880
 Alpha  occ. eigenvalues --  -10.00864 -10.00834 -10.00667 -10.00654 -10.00556
 Alpha  occ. eigenvalues --   -9.99284  -9.98711  -9.98432  -9.97551  -9.96305
 Alpha  occ. eigenvalues --   -9.95852  -9.95729  -9.95011  -9.94879  -9.94661
 Alpha  occ. eigenvalues --   -9.93835  -9.93697  -9.93318  -9.92967  -7.71945
 Alpha  occ. eigenvalues --   -5.68339  -5.67908  -5.67407  -0.73604  -0.71974
 Alpha  occ. eigenvalues --   -0.70021  -0.65063  -0.62767  -0.60214  -0.59129
 Alpha  occ. eigenvalues --   -0.56733  -0.54816  -0.52808  -0.52331  -0.50615
 Alpha  occ. eigenvalues --   -0.46069  -0.44575  -0.42896  -0.42257  -0.41649
 Alpha  occ. eigenvalues --   -0.37480  -0.36317  -0.34189  -0.33002  -0.32119
 Alpha  occ. eigenvalues --   -0.30392  -0.27899  -0.27502  -0.26856  -0.25601
 Alpha  occ. eigenvalues --   -0.24456  -0.24136  -0.23127  -0.22209  -0.21861
 Alpha  occ. eigenvalues --   -0.21021  -0.20026  -0.19761  -0.18878  -0.17464
 Alpha  occ. eigenvalues --   -0.16853  -0.16230  -0.16021  -0.15655  -0.15602
 Alpha  occ. eigenvalues --   -0.14481  -0.13681  -0.12975  -0.11767  -0.11334
 Alpha  occ. eigenvalues --   -0.10453  -0.10241  -0.09558  -0.08200  -0.05050
 Alpha  occ. eigenvalues --   -0.02742  -0.01717  -0.01218   0.00074   0.01041
 Alpha  occ. eigenvalues --    0.02187   0.10075
 Alpha virt. eigenvalues --    0.11101   0.12934   0.12972   0.14721   0.14803
 Alpha virt. eigenvalues --    0.15752   0.15912   0.16634   0.17219   0.17863
 Alpha virt. eigenvalues --    0.18482   0.19000   0.19298   0.19589   0.19934

  Beta  occ. eigenvalues --  -88.63391 -18.81408 -18.80288 -10.01350 -10.00880
  Beta  occ. eigenvalues --  -10.00864 -10.00834 -10.00667 -10.00654 -10.00556
  Beta  occ. eigenvalues --   -9.99284  -9.98711  -9.98432  -9.97551  -9.96305
  Beta  occ. eigenvalues --   -9.95852  -9.95729  -9.95011  -9.94879  -9.94661
  Beta  occ. eigenvalues --   -9.93835  -9.93697  -9.93318  -9.92967  -7.71945
  Beta  occ. eigenvalues --   -5.68339  -5.67908  -5.67407  -0.73604  -0.71974
  Beta  occ. eigenvalues --   -0.70021  -0.65063  -0.62767  -0.60214  -0.59129
  Beta  occ. eigenvalues --   -0.56733  -0.54816  -0.52808  -0.52331  -0.50615
  Beta  occ. eigenvalues --   -0.46069  -0.44575  -0.42896  -0.42257  -0.41649
  Beta  occ. eigenvalues --   -0.37480  -0.36317  -0.34189  -0.33002  -0.32119
  Beta  occ. eigenvalues --   -0.30392  -0.27899  -0.27502  -0.26856  -0.25601
  Beta  occ. eigenvalues --   -0.24456  -0.24136  -0.23127  -0.22209  -0.21861
  Beta  occ. eigenvalues --   -0.21021  -0.20026  -0.19761  -0.18878  -0.17464
  Beta  occ. eigenvalues --   -0.16853  -0.16230  -0.16021  -0.15655  -0.15602
  Beta  occ. eigenvalues --   -0.14481  -0.13681  -0.12975  -0.11767  -0.11334
  Beta  occ. eigenvalues --   -0.10453  -0.10241  -0.09558  -0.08200  -0.05050
  Beta  occ. eigenvalues --   -0.02742  -0.01717  -0.01218   0.00074   0.01041
  Beta  occ. eigenvalues --    0.02187   0.10075
  Beta virt. eigenvalues --    0.11101   0.12934   0.12972   0.14721   0.14803
  Beta virt. eigenvalues --    0.15752   0.15912   0.16634   0.17219   0.17863
  Beta virt. eigenvalues --    0.18482   0.19000   0.19298   0.19589   0.19934

 Mulliken charges and spin densities:
               1          2
     1  C    0.018466  -0.000000
     2  C   -0.485046  -0.000000
     3  C   -0.429949  -0.000000
     4  C    0.546455  -0.000000
     5  C    0.058232   0.000000
     6  C   -0.066050   0.000000
     7  C   -0.784305  -0.000000
     8  C    0.840394  -0.000000
     9  C    0.812224   0.000000
    10  C   -0.847900  -0.000000
    11  O   -0.504100   0.000000
    12  O   -0.411498   0.000000
    13  H    0.156101   0.000000
    14  H    0.082058   0.000000
    15  H    0.088979  -0.000000
    16  H    0.165410  -0.000000
    17  C   -0.398348   0.000000
    18  S   -0.636812  -0.000000
    19  C    0.236161  -0.000000
    20  C   -0.204281  -0.000000
    21  C    0.032506  -0.000000
    22  C    0.265323   0.000000
    23  C   -0.239411   0.000000
    24  C   -0.236493   0.000000
    25  C   -0.523176   0.000000
    26  C    0.496373  -0.000000
    27  C    0.457251   0.000000
    28  C   -0.487351  -0.000000
    29  H    0.104679   0.000000
    30  H    0.087830  -0.000000
    31  H    0.180595   0.000000
    32  H    0.071198   0.000000
    33  H    0.124949  -0.000000
    34  H    0.221190   0.000000
    35  H    0.111857   0.000000
    36  H   -0.531276  -0.000000
    37  H   -0.479108  -0.000000
    38  H    0.106868  -0.000000
 Sum of Mulliken charges =  -2.00000  -0.00000

 Dipole moment (field-independent basis, Debye):
    X=             24.7216    Y=             -3.0174    Z=             -6.3068  Tot=             25.6912
 Quadrupole moment (field-independent basis, Debye-Ang):
   XX=           -301.8565   YY=           -172.5531   ZZ=           -313.5679
   XY=             11.9773   XZ=            -48.8861   YZ=             10.0066

  Exact polarizability: 917.799-364.103 978.8381190.103-191.0253001.126
 Approx polarizability:4258.451********1189.2207314.709****************

                      1                      2                      3
                      A                      A                      A
 Frequencies --     15.2179                29.1525                30.1980
 Red. masses --      6.3906                 5.9481                 4.8948
 Frc consts  --      0.0009                 0.0030                 0.0026
 IR Inten    --      0.4575                 0.9130                 2.4319

                      4                      5                      6
                      A                      A                      A
 Frequencies --     82.4144                89.1279               100.5596
 Red. masses --      3.6550                 5.8071                 2.9887
 Frc consts  --      0.0146                 0.0272                 0.0178
 IR Inten    --      3.3104                 7.8638                 0.4487

                      7                      8                      9
                      A                      A                      A
 Frequencies --    108.7755               145.7975               158.7936
 Red. masses --      1.3387                 4.4694                 6.0298
 Frc consts  --      0.0093                 0.0560                 0.0896
 IR Inten    --      3.0770                 3.2129                 2.2268

                     10                     11                     12
                      A                      A                      A
 Frequencies --    183.2347               185.0280               209.5172
 Red. masses --      5.3919                 4.3832                 8.9250
 Frc consts  --      0.1067                 0.0884                 0.2308
 IR Inten    --      4.9502                 1.9528                 7.6365

                     13                     14                     15
                      A                      A                      A
 Frequencies --    259.8753               270.0613               281.9224
 Red. masses --      4.9500                 5.0667                 6.0509
 Frc consts  --      0.1970                 0.2177                 0.2834
 IR Inten    --      8.6668                 2.4160                 4.1839

                     16                     17                     18
                      A                      A                      A
 Frequencies --    331.4106               347.2865               372.5697
 Red. masses --      4.2228                 5.4787                 9.2462
 Frc consts  --      0.2733                 0.3893                 0.7562
 IR Inten    --     11.3787                20.5966                72.3250

                     19                     20                     21
                      A                      A                      A
 Frequencies --    380.8357               392.3303               399.6620
 Red. masses --     10.9093                 6.4220                 3.2726
 Frc consts  --      0.9322                 0.5824                 0.3080
 IR Inten    --     28.4884                 2.7775                 2.6014

                     22                     23                     24
                      A                      A                      A
 Frequencies --    422.5380               442.1080               465.7500
 Red. masses --      6.5355                 4.1182                 3.6712
 Frc consts  --      0.6875                 0.4743                 0.4692
 IR Inten    --    321.7351                53.0761               115.3174

                     25                     26                     27
                      A                      A                      A
 Frequencies --    471.6915               494.6632               517.5086
 Red. masses --      2.8188                 8.9301                 3.8351
 Frc consts  --      0.3695                 1.2874                 0.6052
 IR Inten    --     30.4595               713.8973                13.1575

                     28                     29                     30
                      A                      A                      A
 Frequencies --    521.6428               530.4498               570.6280
 Red. masses --      6.7876                 5.3877                 6.5766
 Frc consts  --      1.0882                 0.8932                 1.2617
 IR Inten    --     12.5413                18.1736                 8.0738

                     31                     32                     33
                      A                      A                      A
 Frequencies --    604.9063               628.8925               650.4496
 Red. masses --      7.4455                 3.4026                 6.9580
 Frc consts  --      1.6052                 0.7929                 1.7344
 IR Inten    --     25.8154                 3.4510                 9.2589

                     34                     35                     36
                      A                      A                      A
 Frequencies --    656.8642               671.9299               688.8396
 Red. masses --      6.2719                 5.1471                 5.4360
 Frc consts  --      1.5944                 1.3692                 1.5197
 IR Inten    --     16.8750                 2.5834                 8.5878

                     37                     38                     39
                      A                      A                      A
 Frequencies --    693.8860               756.7638               762.0957
 Red. masses --      2.2408                 3.3323                 1.4433
 Frc consts  --      0.6357                 1.1244                 0.4939
 IR Inten    --     46.2219                 1.8118                15.5697

                     40                     41                     42
                      A                      A                      A
 Frequencies --    762.6281               773.7953               784.0509
 Red. masses --      1.8886                 4.7555                 3.0165
 Frc consts  --      0.6472                 1.6776                 1.0925
 IR Inten    --     30.2764                12.5213                 3.2927

                     43                     44                     45
                      A                      A                      A
 Frequencies --    798.3339               813.9294               838.9868
 Red. masses --      6.0197                 1.4116                 1.4879
 Frc consts  --      2.2604                 0.5510                 0.6171
 IR Inten    --     40.2936                15.6354                 9.1779

                     46                     47                     48
                      A                      A                      A
 Frequencies --    841.9078               851.1756               855.0353
 Red. masses --      1.8107                 3.9967                 5.8920
 Frc consts  --      0.7562                 1.7061                 2.5379
 IR Inten    --      0.6950                 0.9698                 6.6344

                     49                     50                     51
                      A                      A                      A
 Frequencies --    869.8932               948.3029               949.7073
 Red. masses --      1.5718                 1.6801                 2.6322
 Frc consts  --      0.7008                 0.8902                 1.3988
 IR Inten    --      2.9523                52.9893                19.9831

                     52                     53                     54
                      A                      A                      A
 Frequencies --    960.4047               965.0329               965.1459
 Red. masses --      1.3437                 1.2763                 1.2400
 Frc consts  --      0.7302                 0.7003                 0.6805
 IR Inten    --     45.0037                27.9932                 2.0462

                     55                     56                     57
                      A                      A                      A
 Frequencies --    967.9322               969.8007              1018.8747
 Red. masses --      1.3647                 6.2736                 1.9740
 Frc consts  --      0.7533                 3.4764                 1.2073
 IR Inten    --      2.6387               146.3790                42.2064

                     58                     59                     60
                      A                      A                      A
 Frequencies --   1025.2236              1033.9979              1042.9109
 Red. masses --      2.0531                 2.3065                 1.4393
 Frc consts  --      1.2714                 1.4529                 0.9224
 IR Inten    --    398.7631                30.3271                 3.6750

                     61                     62                     63
                      A                      A                      A
 Frequencies --   1070.6368              1097.3698              1123.3186
 Red. masses --      2.5881                 2.0056                 1.7460
 Frc consts  --      1.7479                 1.4230                 1.2980
 IR Inten    --     73.8001                51.5445               144.2141

                     64                     65                     66
                      A                      A                      A
 Frequencies --   1143.7675              1148.1877              1164.3855
 Red. masses --      1.7226                 2.1243                 1.1399
 Frc consts  --      1.3277                 1.6500                 0.9106
 IR Inten    --    156.1759               234.1504                29.0881

                     67                     68                     69
                      A                      A                      A
 Frequencies --   1174.9763              1198.5032              1212.1252
 Red. masses --      1.2742                 2.1783                 2.8406
 Frc consts  --      1.0365                 1.8435                 2.4590
 IR Inten    --    119.3703                20.5818                85.1724

                     70                     71                     72
                      A                      A                      A
 Frequencies --   1221.3919              1255.1855              1260.5772
 Red. masses --      2.2927                 2.1818                 1.5895
 Frc consts  --      2.0152                 2.0252                 1.4882
 IR Inten    --     81.5355               137.5001                15.3822

                     73                     74                     75
                      A                      A                      A
 Frequencies --   1280.5366              1338.9696              1353.1050
 Red. masses --      1.8432                 5.5044                 4.1619
 Frc consts  --      1.7807                 5.8143                 4.4896
 IR Inten    --      1.4234               733.8711               366.0295

                     76                     77                     78
                      A                      A                      A
 Frequencies --   1357.8338              1373.4494              1383.7633
 Red. masses --      2.4441                 1.6392                 6.7746
 Frc consts  --      2.6550                 1.8219                 7.6429
 IR Inten    --     21.9336               310.1525               378.4319

                     79                     80                     81
                      A                      A                      A
 Frequencies --   1395.8209              1404.9257              1432.7207
 Red. masses --      3.1790                 3.6393                 4.0056
 Frc consts  --      3.6492                 4.2322                 4.8445
 IR Inten    --     21.4003               260.5039              1315.9427

                     82                     83                     84
                      A                      A                      A
 Frequencies --   1450.8078              1453.7511              1470.4453
 Red. masses --      3.4717                 2.7382                 1.2182
 Frc consts  --      4.3054                 3.4095                 1.5519
 IR Inten    --   1662.2459               225.7399                30.3726

                     85                     86                     87
                      A                      A                      A
 Frequencies --   1477.4061              1484.0947              1496.8244
 Red. masses --      2.0055                 2.0659                 1.3514
 Frc consts  --      2.5792                 2.6810                 1.7839
 IR Inten    --    582.8238              2279.7154              1217.4737

                     88                     89                     90
                      A                      A                      A
 Frequencies --   1503.1486              1526.7166              1573.1834
 Red. masses --      3.5764                 3.1543                 6.9788
 Frc consts  --      4.7610                 4.3318                10.1763
 IR Inten    --    275.0754                33.2616              4074.5498

                     91                     92                     93
                      A                      A                      A
 Frequencies --   1583.1170              1602.2177              1605.8763
 Red. masses --      6.4894                 5.6594                 5.4185
 Frc consts  --      9.5826                 8.5598                 8.2329
 IR Inten    --     28.7813               110.8102               165.7955

                     94                     95                     96
                      A                      A                      A
 Frequencies --   1625.9643              2955.4537              3010.2749
 Red. masses --      5.4343                 1.0567                 1.0789
 Frc consts  --      8.4649                 5.4383                 5.7601
 IR Inten    --    120.9683               616.8714                61.5433

                     97                     98                     99
                      A                      A                      A
 Frequencies --   3087.2596              3100.2720              3116.0971
 Red. masses --      1.0958                 1.0832                 1.0841
 Frc consts  --      6.1533                 6.1343                 6.2021
 IR Inten    --     12.5455                45.3337               344.4707

                    100                    101                    102
                      A                      A                      A
 Frequencies --   3123.6139              3128.9384              3134.2416
 Red. masses --      1.0911                 1.0869                 1.0889
 Frc consts  --      6.2723                 6.2693                 6.3021
 IR Inten    --    364.9442               153.8858                 5.8165

                    103                    104                    105
                      A                      A                      A
 Frequencies --   3137.4828              3140.8976              3147.1291
 Red. masses --      1.0891                 1.0922                 1.0959
 Frc consts  --      6.3165                 6.3481                 6.3952
 IR Inten    --     63.1155               331.9999               330.0547

                    106                    107                    108
                      A                      A                      A
 Frequencies --   3164.5305              3166.9602              3212.2755
 Red. masses --      1.0905                 1.0915                 1.0914
 Frc consts  --      6.4339                 6.4497                 6.6354
 IR Inten    --     18.3256               239.0310                 6.9303

 - Thermochemistry -
 -------------------
 Temperature   298.150 Kelvin.  Pressure   1.00000 Atm.
 Atom     1 has atomic number  6 and mass  12.00000

 Molecular mass:   330.07145 amu.
 Principal axes and moments of inertia in atomic units:
                           1         2         3
     Eigenvalues --  3395.39781********************
           X            0.40364   0.76401   0.50335
           Y           -0.03451  -0.53705   0.84284
           Z            0.91427  -0.35758  -0.19041
 This molecule is an asymmetric top.
 Rotational symmetry number  1.
 Warning -- assumption of classical behavior for rotation
           may cause significant error
 Rotational temperatures (Kelvin)      0.02551     0.00519     0.00476
 Rotational constants (GHZ):           0.53153     0.10822     0.09928
 Zero-point vibrational energy     740685.7 (Joules/Mol)
                                  177.02813 (Kcal/Mol)
 Warning -- explicit consideration of  31 degrees of freedom as
           vibrations may cause significant error
 Vibrational temperatures:     21.90    41.94    43.45   118.58   128.24
          (Kelvin)            144.68   156.50   209.77   228.47   263.63
                              266.21   301.45   373.90   388.56   405.62
                              476.83   499.67   536.04   547.94   564.48
                              575.02   607.94   636.09   670.11   678.66
                              711.71   744.58   750.53   763.20   821.01
                              870.33   904.84   935.85   945.08   966.76
                              991.09   998.35  1088.81  1096.49  1097.25
                             1113.32  1128.07  1148.62  1171.06  1207.11
                             1211.32  1224.65  1230.21  1251.58  1364.40
                             1366.42  1381.81  1388.47  1388.63  1392.64
                             1395.33  1465.93  1475.07  1487.69  1500.52
                             1540.41  1578.87  1616.20  1645.63  1651.99
                             1675.29  1690.53  1724.38  1743.98  1757.31
                             1805.93  1813.69  1842.41  1926.48  1946.82
                             1953.62  1976.09  1990.93  2008.27  2021.37
                             2061.37  2087.39  2091.62  2115.64  2125.66
                             2135.28  2153.60  2162.70  2196.60  2263.46
                             2277.75  2305.23  2310.50  2339.40  4252.24
                             4331.11  4441.88  4460.60  4483.37  4494.18
                             4501.84  4509.47  4514.14  4519.05  4528.02
                             4553.05  4556.55  4621.75

 Zero-point correction=                           0.282112 (Hartree/Particle)
 Thermal correction to Energy=                    0.301721
 Thermal correction to Enthalpy=                  0.302665
 Thermal correction to Gibbs Free Energy=         0.232338
 Sum of electronic and zero-point Energies=          -1357.308957
 Sum of electronic and thermal Energies=             -1357.289348
 Sum of electronic and thermal Enthalpies=           -1357.288404
 Sum of electronic and thermal Free Energies=        -1357.358731

                     E (Thermal)             CV                S
                      KCal/Mol        Cal/Mol-Kelvin    Cal/Mol-Kelvin
 Total                  189.333             77.932            148.015
 Electronic               0.000              0.000              0.000
 Translational            0.889              2.981             43.278
 Rotational               0.889              2.981             35.286
 Vibrational            187.555             71.971             69.452
 Vibration     1          0.593              1.986              7.177
 Vibration     2          0.593              1.984              5.886
 Vibration     3          0.594              1.984              5.816
 Vibration     4          0.600              1.961              3.833
 Vibration     5          0.602              1.957              3.679
 Vibration     6          0.604              1.949              3.443
 Vibration     7          0.606              1.942              3.291
 Vibration     8          0.617              1.907              2.726
 Vibration     9          0.621              1.893              2.564
 Vibration    10          0.631              1.863              2.295
 Vibration    11          0.631              1.860              2.277
 Vibration    12          0.642              1.826              2.048
 Vibration    13          0.668              1.746              1.663
 Vibration    14          0.674              1.728              1.596
 Vibration    15          0.681              1.707              1.522
 Vibration    16          0.714              1.613              1.253
 Vibration    17          0.725              1.581              1.178
 Vibration    18          0.744              1.528              1.069
 Vibration    19          0.751              1.511              1.036
 Vibration    20          0.760              1.487              0.991
 Vibration    21          0.766              1.471              0.964
 Vibration    22          0.785              1.421              0.883
 Vibration    23          0.802              1.378              0.820
 Vibration    24          0.823              1.326              0.750
 Vibration    25          0.829              1.313              0.733
 Vibration    26          0.850              1.262              0.672
 Vibration    27          0.873              1.211              0.616
 Vibration    28          0.877              1.202              0.606
 Vibration    29          0.885              1.183              0.586
 Vibration    30          0.927              1.095              0.503
 Vibration    31          0.963              1.021              0.441

 Optimization completed.
    -- Stationary point found.
 Normal termination of Gaussian 16 at Tue Jan  9 00:59:06 2024.
