 Q-Chem 5.4, Q-Chem, Inc., Pleasanton, CA (2021)
 Q-Chem 5.4.0 for Intel X86 EM64T Linux

User input:
--------------------------------------------------------------
$molecule
-2 1
C                 -4.4363580000     -0.5323060000     -3.5517020000
C                 -3.5501230000     -0.9481190000     -4.5284010000
C                 -2.1581250000     -0.8071200000     -4.3208310000
C                 -3.9918150000      0.0347360000     -2.3346210000
C                 -2.5829080000      0.1743360000     -2.1260890000
C                 -1.6979100000     -0.2558860000     -3.1376170000
C                 -4.9768160000      0.4562550000     -1.3378180000
C                 -4.4384090000      1.0099600000     -0.1374460000
C                 -3.0313210000      1.1591940000      0.0496560000
C                 -2.0340870000      0.7639670000     -0.8992960000
O                 -6.2380310000      0.3183970000     -1.5565870000
O                 -0.7781960000      0.8788870000     -0.7172070000
H                 -5.5100960000     -0.6247590000     -3.6786100000
H                 -3.9212780000     -1.3820890000     -5.4550360000
H                 -1.4551240000     -1.1323420000     -5.0849490000
H                 -0.6374830000     -0.1324590000     -2.9425110000
C                 -5.4313030000      1.4259290000      0.9181940000
S                 -2.4451230000      2.0592730000      1.4896410000
C                 -1.6561890000      0.8837340000      2.5627180000
C                 -1.3267340000      1.2725940000      3.8519250000
C                 -0.6922040000      0.3893340000      4.7578000000
C                 -0.3801560000     -0.9439910000      4.3291720000
C                 -0.7216010000     -1.3138020000      3.0005460000
C                 -1.3355720000     -0.4378540000      2.1393860000
C                 -0.3542030000      0.7653200000      6.0878080000
C                  0.2642960000     -0.1153040000      6.9477060000
C                  0.5705630000     -1.4298450000      6.5223980000
C                  0.2502960000     -1.8273880000      5.2416710000
H                 -5.4989730000      2.5191790000      1.0247840000
H                 -5.1676980000      1.0358430000      1.9082800000
H                 -6.4141050000      1.0542840000      0.6207220000
H                 -1.5679610000      2.2777330000      4.1881090000
H                 -0.4768850000     -2.3167940000      2.6603960000
H                 -1.5744880000     -0.7231990000      1.1239580000
H                 -0.5900330000      1.7739580000      6.4171260000
H                  0.5220700000      0.1958420000      7.9573800000
H                  1.0586690000     -2.1181650000      7.2074300000
H                  0.4824250000     -2.8361770000      4.9095450000
$end
$rem
MAX_SCF_CYCLES=200
SCF_GUESS = SADMO
BASIS  =  6-311++G(d,p)
GUI  =  2
JOB_TYPE  =  SP
SCF_CONVERGENCE  = 6
METHOD  =  B3LYP
SOLVENT_METHOD = COSMO
$end
$solvent
dielectric 37.219
opticaldielectric 1.43
$end

--------------------------------------------------------------

             Standard Nuclear Orientation (Angstroms)
    I     Atom           X                Y                Z
 ----------------------------------------------------------------
    1      C       5.0088809038     0.3593511712     0.8667404664
    2      C       5.5337120694     1.6045161976     0.5728524478
    3      C       4.7900098314     2.5125201602    -0.2164892020
    4      C       3.7352061028    -0.0415064350     0.4003640626
    5      C       2.9837943237     0.8797751787    -0.3962620832
    6      C       3.5405276251     2.1441498810    -0.6841960465
    7      C       3.2317773500    -1.3719576458     0.7438469951
    8      C       1.9353057187    -1.6882902011     0.2374289003
    9      C       1.2045603594    -0.7660858876    -0.5704850858
   10      C       1.6601493015     0.5424370142    -0.9329715848
   11      O       3.9333757601    -2.1783054004     1.4615453644
   12      O       0.9935042668     1.3701937674    -1.6358431017
   13      H       5.5526909122    -0.3616640224     1.4683834300
   14      H       6.5164767672     1.8860822279     0.9465268216
   15      H       5.1967393599     3.4939649850    -0.4514215747
   16      H       2.9406529906     2.8140852387    -1.2917674722
   17      C       1.3809982112    -3.0424737135     0.6009873076
   18      S      -0.3189526626    -1.3196009296    -1.3449889733
   19      C      -1.6566821629    -0.4571710667    -0.5560038275
   20      C      -2.9561225499    -0.8737564079    -0.8003779661
   21      C      -4.0691722449    -0.2291605380    -0.2096135418
   22      C      -3.8461413583     0.8866945109     0.6644437823
   23      C      -2.5051752092     1.2976815996     0.8913607530
   24      C      -1.4415476889     0.6569260929     0.3048705896
   25      C      -5.4098174554    -0.6466221240    -0.4396736906
   26      C      -6.4742609134     0.0005717809     0.1481735575
   27      C      -6.2513279876     1.1006130542     1.0100984489
   28      C      -4.9636236036     1.5259279027     1.2586899528
   29      H       1.3467897207    -3.7279552453    -0.2592923378
   30      H       0.3559856984    -2.9786147796     0.9846490806
   31      H       2.0352200739    -3.4818641517     1.3569232606
   32      H      -3.1338094383    -1.7241125040    -1.4537051707
   33      H      -2.3251861146     2.1509180083     1.5403387586
   34      H      -0.4256189412     0.9892635096     0.4693007216
   35      H      -5.5832679446    -1.4923618453    -1.1000190553
   36      H      -7.4916317619    -0.3294758944    -0.0486155256
   37      H      -7.0970196191     1.6054719050     1.4696895017
   38      H      -4.7861230545     2.3699273603     1.9205096183
 ----------------------------------------------------------------

   25   -1357.5911567357      5.90e-07  Convergence criterion met
 Total energy in the final basis set =    -1357.5911567357
    8   -1357.8510804936      5.15e-07  Convergence criterion met
 Total energy in the final basis set =    -1357.8510804936

                    Orbital Energies (a.u.)
 --------------------------------------------------------------

 Alpha MOs
 -- Occupied --
-88.8311 -19.0277 -19.0199 -10.1996 -10.1839 -10.1837 -10.1802 -10.1736
-10.1732 -10.1723 -10.1722 -10.1722 -10.1712 -10.1689 -10.1689 -10.1542
-10.1540 -10.1526 -10.1503 -10.1483 -10.1441 -10.1435 -10.1350 -10.1343
 -7.9170  -5.8808  -5.8769  -5.8715  -0.9518  -0.9394  -0.8755  -0.8316
 -0.8290  -0.7908  -0.7732  -0.7552  -0.7294  -0.7268  -0.7225  -0.6999
 -0.6576  -0.6296  -0.6203  -0.6035  -0.5937  -0.5730  -0.5628  -0.5272
 -0.5113  -0.5023  -0.4872  -0.4762  -0.4609  -0.4432  -0.4394  -0.4350
 -0.4210  -0.4184  -0.4133  -0.4036  -0.3972  -0.3956  -0.3898  -0.3829
 -0.3756  -0.3708  -0.3667  -0.3569  -0.3477  -0.3407  -0.3380  -0.3314
 -0.3306  -0.3221  -0.3160  -0.3106  -0.2998  -0.2910  -0.2653  -0.2348
 -0.2319  -0.2281  -0.2174  -0.2085  -0.2023  -0.1912  -0.1187

          Ground-State Mulliken Net Atomic Charges

     Atom                 Charge (a.u.)
  ----------------------------------------
      1 C                     0.028271
      2 C                    -0.588421
      3 C                    -0.510290
      4 C                     0.301166
      5 C                    -0.092214
      6 C                    -0.025015
      7 C                    -0.427187
      8 C                     0.579308
      9 C                     0.809366
     10 C                    -0.633371
     11 O                    -0.730597
     12 O                    -0.614315
     13 H                     0.174639
     14 H                     0.178062
     15 H                     0.182708
     16 H                     0.180380
     17 C                    -0.374897
     18 S                    -0.686293
     19 C                     0.118185
     20 C                    -0.168366
     21 C                    -0.036313
     22 C                     0.168839
     23 C                    -0.272559
     24 C                    -0.321274
     25 C                    -0.168442
     26 C                    -0.332054
     27 C                    -0.257174
     28 C                    -0.282597
     29 H                     0.160567
     30 H                     0.120374
     31 H                     0.162037
     32 H                     0.185120
     33 H                     0.213199
     34 H                     0.209703
     35 H                     0.173496
     36 H                     0.204996
     37 H                     0.206566
     38 H                     0.164396
  ----------------------------------------
  Sum of atomic charges =    -2.000001

                    Cartesian Multipole Moments
 -----------------------------------------------------------------
    Charge (ESU x 10^10)
                -9.6064
    Dipole Moment (Debye)
         X     -20.8146      Y       4.5623      Z       1.8267
       Tot      21.3869
    Quadrupole Moments (Debye-Ang)
        XX    -233.9461     XY      24.4983     YY    -182.0768
        XZ     -16.0318     YZ      22.9355     ZZ    -178.5895

 Total job time:  343.49s(wall), 2677.54s(cpu)
        *  Thank you very much for using Q-Chem.  Have a nice day.  *
