 Gaussian 16, Revision A.03,
 Gaussian 16:  ES64L-G16RevA.03 25-Dec-2016

 --------------------------------------
 #P UB3LYP/6-311++G(d,p) nosym opt freq
 --------------------------------------

 -------
 Reduced
 -------
 Symbolic Z-matrix:
 Charge = -2 Multiplicity = 1

 SCF Done:  E(UB3LYP) =  -839.389709322     A.U. after   96 cycles
 SCF Done:  E(UB3LYP) =  -839.437391714     A.U. after   25 cycles
 SCF Done:  E(UB3LYP) =  -839.460640483     A.U. after   15 cycles
 SCF Done:  E(UB3LYP) =  -839.471950498     A.U. after   14 cycles
 SCF Done:  E(UB3LYP) =  -839.472848375     A.U. after   14 cycles
 SCF Done:  E(UB3LYP) =  -839.473643280     A.U. after   14 cycles
 SCF Done:  E(UB3LYP) =  -839.473900490     A.U. after   13 cycles
 SCF Done:  E(UB3LYP) =  -839.474079794     A.U. after   13 cycles
 SCF Done:  E(UB3LYP) =  -839.473574191     A.U. after   15 cycles
 SCF Done:  E(UB3LYP) =  -839.474124845     A.U. after   13 cycles
 SCF Done:  E(UB3LYP) =  -839.474121952     A.U. after   15 cycles
 SCF Done:  E(UB3LYP) =  -839.474121351     A.U. after   13 cycles
 SCF Done:  E(UB3LYP) =  -839.474126881     A.U. after   14 cycles
 SCF Done:  E(UB3LYP) =  -839.474127576     A.U. after   14 cycles
 SCF Done:  E(UB3LYP) =  -839.474127875     A.U. after   12 cycles
 Optimization completed.
    -- Stationary point found.
 Normal termination of Gaussian 16 at Thu Dec 21 20:57:57 2023.

 ----------------------------------------------------------------------
 #P Geom=AllCheck Guess=TCheck SCRF=Check GenChk UB3LYP/6-311++G(d,p) F
 req
 ----------------------------------------------------------------------

 Structure from the checkpoint file:  "185-an.chk"
 -------
 Reduced
 -------
 Charge = -2 Multiplicity = 1

                          Input orientation:
 ---------------------------------------------------------------------
 Center     Atomic      Atomic             Coordinates (Angstroms)
 Number     Number       Type             X           Y           Z
 ---------------------------------------------------------------------
      1          6           0        4.879263   -2.869010   -0.350263
      2          6           0        5.602909   -1.980671   -1.114819
      3          6           0        4.999317   -0.758850   -1.541580
      4          6           0        3.535145   -2.614521    0.036983
      5          6           0        2.920945   -1.371182   -0.397271
      6          6           0        3.698604   -0.478944   -1.185049
      7          6           0        2.822320   -3.563516    0.830267
      8          6           0        1.471504   -3.230537    1.177003
      9          6           0        0.861105   -1.994805    0.745390
     10          6           0        1.576175   -1.040660   -0.050754
     11          6           0        0.698438   -4.148882    1.976631
     12          6           0       -0.601601   -3.844430    2.319296
     13          6           0       -0.501992   -1.718466    1.127770
     14          6           0       -1.204045   -2.624777    1.893301
     15          8           0        3.371182   -4.695197    1.229058
     16          8           0        1.009582    0.085647   -0.440498
     17          8           0        1.275002   -5.316378    2.384271
     18          1           0        5.313408   -3.804808   -0.012400
     19          1           0        6.630666   -2.206725   -1.393843
     20          1           0        5.566867   -0.053256   -2.145953
     21          1           0        3.215508    0.442194   -1.495639
     22          1           0        2.231292   -5.259500    1.979724
     23          8           0       -1.078349   -0.551109    0.719904
     24          1           0       -2.229833   -2.391303    2.167341
     25          1           0       -1.161351   -4.554580    2.922801
     26          1           0       -0.319771   -0.092723    0.174890
 ---------------------------------------------------------------------

 SCF Done:  E(UB3LYP) =  -839.474127875     A.U. after    1 cycles

 Alpha  occ. eigenvalues --  -18.85529 -18.85519 -18.80090 -18.80087  -9.96267
 Alpha  occ. eigenvalues --   -9.96266  -9.94860  -9.94857  -9.93385  -9.93342
 Alpha  occ. eigenvalues --   -9.92727  -9.92726  -9.91030  -9.91009  -9.90994
 Alpha  occ. eigenvalues --   -9.90971  -9.90779  -9.90736  -0.77299  -0.77134
 Alpha  occ. eigenvalues --   -0.70670  -0.70390  -0.60341  -0.57821  -0.52653
 Alpha  occ. eigenvalues --   -0.50305  -0.48084  -0.46535  -0.41300  -0.38114
 Alpha  occ. eigenvalues --   -0.37311  -0.32662  -0.31278  -0.28682  -0.26744
 Alpha  occ. eigenvalues --   -0.25011  -0.23463  -0.21457  -0.20883  -0.20215
 Alpha  occ. eigenvalues --   -0.17861  -0.16318  -0.15864  -0.15179  -0.15139
 Alpha  occ. eigenvalues --   -0.13822  -0.13433  -0.12917  -0.12451  -0.11164
 Alpha  occ. eigenvalues --   -0.09387  -0.09358  -0.08378  -0.08167  -0.07079
 Alpha  occ. eigenvalues --   -0.03474  -0.00720   0.00328   0.01341   0.01623
 Alpha  occ. eigenvalues --    0.02675   0.05507   0.12164
 Alpha virt. eigenvalues --    0.15872   0.17605   0.17636   0.19464   0.20102
 Alpha virt. eigenvalues --    0.20470   0.21203   0.22607   0.22870   0.23952
 Alpha virt. eigenvalues --    0.25033   0.25911   0.26590   0.26912   0.27134

  Beta  occ. eigenvalues --  -18.85529 -18.85519 -18.80090 -18.80087  -9.96267
  Beta  occ. eigenvalues --   -9.96266  -9.94860  -9.94857  -9.93385  -9.93342
  Beta  occ. eigenvalues --   -9.92727  -9.92726  -9.91030  -9.91009  -9.90994
  Beta  occ. eigenvalues --   -9.90971  -9.90779  -9.90736  -0.77299  -0.77134
  Beta  occ. eigenvalues --   -0.70670  -0.70390  -0.60341  -0.57821  -0.52653
  Beta  occ. eigenvalues --   -0.50305  -0.48084  -0.46535  -0.41300  -0.38114
  Beta  occ. eigenvalues --   -0.37311  -0.32662  -0.31278  -0.28682  -0.26744
  Beta  occ. eigenvalues --   -0.25011  -0.23463  -0.21457  -0.20883  -0.20215
  Beta  occ. eigenvalues --   -0.17861  -0.16318  -0.15864  -0.15179  -0.15139
  Beta  occ. eigenvalues --   -0.13822  -0.13433  -0.12917  -0.12451  -0.11164
  Beta  occ. eigenvalues --   -0.09387  -0.09358  -0.08378  -0.08167  -0.07079
  Beta  occ. eigenvalues --   -0.03474  -0.00720   0.00328   0.01341   0.01623
  Beta  occ. eigenvalues --    0.02675   0.05507   0.12164
  Beta virt. eigenvalues --    0.15872   0.17605   0.17636   0.19464   0.20102
  Beta virt. eigenvalues --    0.20470   0.21203   0.22607   0.22870   0.23952
  Beta virt. eigenvalues --    0.25033   0.25911   0.26590   0.26912   0.27134

 Mulliken charges and spin densities:
               1          2
     1  C   -0.093423   0.000000
     2  C   -0.499606   0.000000
     3  C   -0.499533   0.000000
     4  C    0.234118   0.000000
     5  C    0.234496  -0.000000
     6  C   -0.093661   0.000000
     7  C   -0.333359  -0.000000
     8  C    0.525536   0.000000
     9  C    0.525246  -0.000000
    10  C   -0.332864   0.000000
    11  C   -0.433984   0.000000
    12  C   -0.033749   0.000000
    13  C   -0.433952  -0.000000
    14  C   -0.033936  -0.000000
    15  O   -0.573213   0.000000
    16  O   -0.573409  -0.000000
    17  O   -0.454793  -0.000000
    18  H    0.132651   0.000000
    19  H    0.074756  -0.000000
    20  H    0.074755   0.000000
    21  H    0.132642  -0.000000
    22  H    0.365320  -0.000000
    23  O   -0.455226   0.000000
    24  H    0.089729   0.000000
    25  H    0.089752   0.000000
    26  H    0.365705   0.000000
 Sum of Mulliken charges =  -2.00000  -0.00000

 Dipole moment (field-independent basis, Debye):
    X=            -16.8912    Y=             23.3870    Z=             -6.0835  Tot=             29.4834
 Quadrupole moment (field-independent basis, Debye-Ang):
   XX=           -191.2905   YY=           -216.4934   ZZ=           -136.0691
   XY=             50.1809   XZ=              1.9922   YZ=             34.5994

  Exact polarizability: 333.137  14.282 223.781 -92.295 -63.637 187.271
 Approx polarizability: 576.037   6.120 409.398-159.076-128.229 308.973

                      1                      2                      3
                      A                      A                      A
 Frequencies --     65.4145                89.4748               139.4621
 Red. masses --      6.4778                 7.5208                 8.3848
 Frc consts  --      0.0163                 0.0355                 0.0961
 IR Inten    --      1.7997                 0.0000                 0.0033

                      4                      5                      6
                      A                      A                      A
 Frequencies --    141.6037               176.2686               212.9092
 Red. masses --      5.0176                 8.6294                 5.3926
 Frc consts  --      0.0593                 0.1580                 0.1440
 IR Inten    --      0.0000                 1.4700                 1.0795

                      7                      8                      9
                      A                      A                      A
 Frequencies --    251.3130               337.0323               343.6238
 Red. masses --      5.6861                 6.8304                 5.9054
 Frc consts  --      0.2116                 0.4571                 0.4108
 IR Inten    --      0.1230                20.8153                 8.7600

                     10                     11                     12
                      A                      A                      A
 Frequencies --    370.4670               386.9982               392.4888
 Red. masses --      7.6431                 7.9842                12.1901
 Frc consts  --      0.6180                 0.7045                 1.1064
 IR Inten    --      0.0000                 0.0001                 0.0304

                     13                     14                     15
                      A                      A                      A
 Frequencies --    423.5415               440.4771               443.2155
 Red. masses --      7.4045                 3.1878                10.5097
 Frc consts  --      0.7826                 0.3644                 1.2164
 IR Inten    --     64.5346                 2.3263                 0.9674

                     16                     17                     18
                      A                      A                      A
 Frequencies --    478.8767               482.6748               521.7606
 Red. masses --     10.9250                 4.2687                 6.3265
 Frc consts  --      1.4761                 0.5859                 1.0147
 IR Inten    --      0.1237                 0.0000                15.9837

                     19                     20                     21
                      A                      A                      A
 Frequencies --    537.5467               588.7244               598.9045
 Red. masses --      9.4582                 2.8556                 5.1645
 Frc consts  --      1.6102                 0.5831                 1.0914
 IR Inten    --     14.4868                45.6530                 3.5756

                     22                     23                     24
                      A                      A                      A
 Frequencies --    620.1551               654.5794               697.1147
 Red. masses --      4.3299                 6.5706                 1.6659
 Frc consts  --      0.9811                 1.6587                 0.4770
 IR Inten    --      0.0000                 5.4815                18.8693

                     25                     26                     27
                      A                      A                      A
 Frequencies --    703.2487               714.2174               743.7745
 Red. masses --      6.6881                 3.8199                 2.1037
 Frc consts  --      1.9488                 1.1481                 0.6857
 IR Inten    --     38.7560                 0.0000                61.5765

                     28                     29                     30
                      A                      A                      A
 Frequencies --    756.9825               766.5011               779.0333
 Red. masses --      7.4974                 1.9693                 2.3737
 Frc consts  --      2.5312                 0.6817                 0.8487
 IR Inten    --     30.5163                 0.0000                28.4668

                     31                     32                     33
                      A                      A                      A
 Frequencies --    800.1801               807.8163               864.8436
 Red. masses --      1.5714                 3.0439                 7.4741
 Frc consts  --      0.5928                 1.1703                 3.2937
 IR Inten    --      0.0000                 0.0000                63.7540

                     34                     35                     36
                      A                      A                      A
 Frequencies --    905.4775               948.9565               952.8435
 Red. masses --      8.1025                 1.2200                 1.3589
 Frc consts  --      3.9140                 0.6473                 0.7269
 IR Inten    --     54.0877                 0.0001                 4.1590

                     37                     38                     39
                      A                      A                      A
 Frequencies --    972.2477              1006.5900              1040.1829
 Red. masses --      6.2716                 2.3239                 2.0571
 Frc consts  --      3.4929                 1.3873                 1.3114
 IR Inten    --    130.2857                61.9899                29.4352

                     40                     41                     42
                      A                      A                      A
 Frequencies --   1063.3977              1065.2916              1087.3900
 Red. masses --      1.0487                 1.0492                 2.8402
 Frc consts  --      0.6987                 0.7015                 1.9787
 IR Inten    --     44.4848                75.7615               122.9939

                     43                     44                     45
                      A                      A                      A
 Frequencies --   1120.1277              1146.4930              1160.0123
 Red. masses --      1.6923                 1.5065                 1.8041
 Frc consts  --      1.2510                 1.1667                 1.4304
 IR Inten    --    121.8532                 0.1065               123.0694

                     46                     47                     48
                      A                      A                      A
 Frequencies --   1229.1516              1231.3023              1245.2292
 Red. masses --      5.4091                 2.1440                 2.3689
 Frc consts  --      4.8149                 1.9151                 2.1642
 IR Inten    --    197.8134                 4.0857                 4.1921

                     49                     50                     51
                      A                      A                      A
 Frequencies --   1255.7041              1291.2514              1313.5746
 Red. masses --      4.8733                 7.5957                 2.4630
 Frc consts  --      4.5274                 7.4617                 2.5040
 IR Inten    --     39.3025               108.3653               357.0293

                     52                     53                     54
                      A                      A                      A
 Frequencies --   1332.1154              1362.5297              1386.8403
 Red. masses --      2.9715                 7.7075                 2.9440
 Frc consts  --      3.1067                 8.4306                 3.3361
 IR Inten    --     42.4385               183.2551               475.5879

                     55                     56                     57
                      A                      A                      A
 Frequencies --   1430.6376              1460.2106              1471.4340
 Red. masses --      8.6327                 4.4009                 2.5331
 Frc consts  --     10.4101                 5.5287                 3.2313
 IR Inten    --      1.5457               414.9978                15.3700

                     58                     59                     60
                      A                      A                      A
 Frequencies --   1503.8943              1531.3462              1564.5659
 Red. masses --      5.5701                 6.3110                 2.7766
 Frc consts  --      7.4225                 8.7196                 4.0046
 IR Inten    --    148.1970                36.1860               226.2184

                     61                     62                     63
                      A                      A                      A
 Frequencies --   1585.9786              1600.3459              1669.0792
 Red. masses --      5.0648                 4.8006                 1.4675
 Frc consts  --      7.5060                 7.2440                 2.4086
 IR Inten    --      1.6837               116.4370               240.0688

                     64                     65                     66
                      A                      A                      A
 Frequencies --   1677.6732              2402.6041              2434.2818
 Red. masses --      1.7602                 1.0916                 1.0876
 Frc consts  --      2.9189                 3.7128                 3.7971
 IR Inten    --      4.2567                30.8487              1252.1065

                     67                     68                     69
                      A                      A                      A
 Frequencies --   3092.4266              3115.9265              3118.9757
 Red. masses --      1.0826                 1.0902                 1.0847
 Frc consts  --      6.1000                 6.2364                 6.2171
 IR Inten    --     41.5925               114.3024                56.2625

                     70                     71                     72
                      A                      A                      A
 Frequencies --   3140.7637              3160.1193              3162.7036
 Red. masses --      1.0921                 1.0904                 1.0916
 Frc consts  --      6.3469                 6.4160                 6.4332
 IR Inten    --    104.6234                28.4315                47.3268

 - Thermochemistry -
 -------------------
 Temperature   298.150 Kelvin.  Pressure   1.00000 Atm.
 Atom     1 has atomic number  6 and mass  12.00000

 Molecular mass:   240.04226 amu.
 Principal axes and moments of inertia in atomic units:
                           1         2         3
     Eigenvalues --  2613.834864586.575427200.41020
           X            0.84611  -0.42263   0.32476
           Y            0.25436   0.85562   0.45079
           Z           -0.46840  -0.29882   0.83145
 This molecule is an asymmetric top.
 Rotational symmetry number  1.
 Warning -- assumption of classical behavior for rotation
           may cause significant error
 Rotational temperatures (Kelvin)      0.03314     0.01888     0.01203
 Rotational constants (GHZ):           0.69046     0.39348     0.25064
 Zero-point vibrational energy     475939.7 (Joules/Mol)
                                  113.75231 (Kcal/Mol)
 Warning -- explicit consideration of  22 degrees of freedom as
           vibrations may cause significant error
 Vibrational temperatures:     94.12   128.73   200.65   203.74   253.61
          (Kelvin)            306.33   361.58   484.91   494.40   533.02
                              556.80   564.70   609.38   633.75   637.69
                              689.00   694.46   750.70   773.41   847.04
                              861.69   892.26   941.79  1002.99  1011.82
                             1027.60  1070.13  1089.13  1102.82  1120.86
                             1151.28  1162.27  1244.32  1302.78  1365.34
                             1370.93  1398.85  1448.26  1496.59  1529.99
                             1532.72  1564.51  1611.61  1649.55  1669.00
                             1768.47  1771.57  1791.61  1806.68  1857.82
                             1889.94  1916.62  1960.38  1995.35  2058.37
                             2100.92  2117.07  2163.77  2203.27  2251.06
                             2281.87  2302.54  2401.43  2413.80  3456.81
                             3502.39  4449.31  4483.12  4487.51  4518.86
                             4546.71  4550.43

 Zero-point correction=                           0.181276 (Hartree/Particle)
 Thermal correction to Energy=                    0.194109
 Thermal correction to Enthalpy=                  0.195053
 Thermal correction to Gibbs Free Energy=         0.142347
 Sum of electronic and zero-point Energies=           -839.292852
 Sum of electronic and thermal Energies=              -839.280019
 Sum of electronic and thermal Enthalpies=            -839.279075
 Sum of electronic and thermal Free Energies=         -839.331781

                     E (Thermal)             CV                S
                      KCal/Mol        Cal/Mol-Kelvin    Cal/Mol-Kelvin
 Total                  121.805             53.332            110.930
 Electronic               0.000              0.000              0.000
 Translational            0.889              2.981             42.328
 Rotational               0.889              2.981             32.823
 Vibrational            120.028             47.370             35.779
 Vibration     1          0.597              1.971              4.287
 Vibration     2          0.602              1.957              3.672
 Vibration     3          0.615              1.914              2.811
 Vibration     4          0.615              1.912              2.782
 Vibration     5          0.628              1.872              2.368
 Vibration     6          0.644              1.821              2.019
 Vibration     7          0.663              1.761              1.721
 Vibration     8          0.718              1.602              1.226
 Vibration     9          0.722              1.588              1.195
 Vibration    10          0.742              1.533              1.078
 Vibration    11          0.755              1.498              1.012
 Vibration    12          0.760              1.486              0.991
 Vibration    13          0.786              1.419              0.880
 Vibration    14          0.800              1.382              0.825
 Vibration    15          0.803              1.376              0.817
 Vibration    16          0.835              1.297              0.713
 Vibration    17          0.839              1.288              0.703
 Vibration    18          0.877              1.202              0.606
 Vibration    19          0.893              1.167              0.571
 Vibration    20          0.946              1.056              0.469
 Vibration    21          0.957              1.034              0.452
 Vibration    22          0.980              0.989              0.416

 Optimization completed.
    -- Stationary point found.
 Normal termination of Gaussian 16 at Thu Dec 21 21:53:00 2023.
