 Q-Chem 5.4, Q-Chem, Inc., Pleasanton, CA (2021)
 Q-Chem 5.4.0 for Intel X86 EM64T Linux

User input:
--------------------------------------------------------------
$molecule
-1 2
C                 -0.8835400000      3.8285090000     -0.0169550000
C                 -1.9762280000      3.0683200000      0.3579490000
C                 -1.8433790000      1.6748130000      0.5286520000
C                  0.3770540000      3.2323390000     -0.2326890000
C                  0.5096580000      1.8266460000     -0.0563150000
C                 -0.6154590000      1.0701900000      0.3212070000
C                  1.5117990000      4.0502860000     -0.6370930000
C                  2.7886810000      3.3754700000     -0.8540850000
C                  2.9169230000      2.0103610000     -0.6110690000
C                  1.7980060000      1.1697090000     -0.2603300000
O                  1.4294720000      5.3001570000     -0.8140870000
O                  1.9483100000     -0.0856500000     -0.1583190000
N                  3.7939080000      4.1736570000     -1.3530100000
H                 -0.9621440000      4.9003780000     -0.1578410000
H                 -2.9389230000      3.5443880000      0.5203280000
H                 -2.7022230000      1.0788080000      0.8224700000
H                 -0.4830360000      0.0013690000      0.4446380000
H                  3.5375450000      5.1529580000     -1.2881120000
H                  4.7359370000      3.9239050000     -1.0628270000
N                  4.0868180000      1.2295050000     -0.8139040000
H                  3.8043900000      0.2483140000     -0.8182460000
C                  5.4025350000      1.4884740000     -0.6457140000
C                  6.3169500000      0.2827160000     -0.8775960000
C                  7.4083570000      0.1736420000      0.1912670000
O                  5.8926180000      2.5868650000     -0.3600370000
H                  6.7811200000      0.4231990000     -1.8612780000
H                  5.7342730000     -0.6416480000     -0.9322340000
H                  7.9603840000      1.1123820000      0.2620800000
H                  8.1099900000     -0.6310850000     -0.0484550000
H                  6.9751340000     -0.0353560000      1.1736850000
$end
$rem
MAX_SCF_CYCLES=200
BASIS  =  6-311++G(d,p)
GUI  =  2
JOB_TYPE  =  SP
METHOD  =  B3LYP
SOLVENT_METHOD = COSMO
$end
$solvent
dielectric 37.219
opticaldielectric 1.43
$end

--------------------------------------------------------------

             Standard Nuclear Orientation (Angstroms)
    I     Atom           X                Y                Z
 ----------------------------------------------------------------
    1      C       3.6365736551    -0.7056380871     0.2242589062
    2      C       4.5307929148     0.3465322767     0.2998686367
    3      C       4.0684790599     1.6756635645     0.2086214476
    4      C       2.2545664163    -0.4744234913     0.0579674061
    5      C       1.7898863409     0.8675765797    -0.0301952605
    6      C       2.7165445917     1.9241526547     0.0445595926
    7      C       1.3318782802    -1.5974574518    -0.0295964684
    8      C      -0.0855378815    -1.2956411049    -0.2105056203
    9      C      -0.5308196101     0.0236371630    -0.2264556282
   10      C       0.3668418476     1.1527108464    -0.1935100835
   11      O       1.7091610680    -2.8032480073     0.0337198941
   12      O      -0.0831535266     2.3316442336    -0.3221335151
   13      N      -0.8953036698    -2.3914737673    -0.4103558346
   14      H       3.9686816087    -1.7354704626     0.2881352907
   15      H       5.5912043674     0.1497230466     0.4286437174
   16      H       4.7716361180     2.5010517790     0.2675149150
   17      H       2.3319039280     2.9350016616    -0.0288245875
   18      H      -0.3989423501    -3.2475323722    -0.1873013746
   19      H      -1.8449043878    -2.3042616853    -0.0572929494
   20      N      -1.8702722034     0.4534487242    -0.4281018859
   21      H      -1.8422939171     1.4470952691    -0.6613484632
   22      C      -3.0632614759    -0.0536757849    -0.0459168899
   23      C      -4.2640898278     0.8306563674    -0.3919578158
   24      C      -5.2635278127     0.9231553080     0.7648058378
   25      O      -3.2410959498    -1.1432594444     0.5103544764
   26      H      -4.7522242119     0.3739489142    -1.2614189504
   27      H      -3.9359057833     1.8274574616    -0.7011978737
   28      H      -5.5573064982    -0.0767315470     1.0886907533
   29      H      -6.1596368038     1.4737793706     0.4629070693
   30      H      -4.8224326814     1.4375265682     1.6235052906
 ----------------------------------------------------------------

    9    -838.1343841913      9.30e-06  Convergence criterion met
 Total energy in the final basis set =     -838.1343841913
    4    -838.2193564668      9.07e-06  Convergence criterion met
 Total energy in the final basis set =     -838.2193564668

                    Orbital Energies (a.u.)
 --------------------------------------------------------------

 Alpha MOs
 -- Occupied --
-19.1005 -19.0847 -19.0834 -14.3483 -14.3067 -10.2809 -10.2301 -10.2259
-10.2126 -10.2025 -10.1754 -10.1752 -10.1749 -10.1726 -10.1719 -10.1709
-10.1703 -10.1575  -1.0482  -1.0127  -1.0093  -0.9372  -0.9053  -0.8592
 -0.7958  -0.7735  -0.7524  -0.7333  -0.6855  -0.6527  -0.6190  -0.6158
 -0.5846  -0.5649  -0.5372  -0.5158  -0.5047  -0.4941  -0.4776  -0.4612
 -0.4525  -0.4429  -0.4347  -0.4302  -0.4246  -0.4223  -0.4177  -0.4103
 -0.3939  -0.3877  -0.3706  -0.3645  -0.3610  -0.3552  -0.3445  -0.3395
 -0.3291  -0.3020  -0.2735  -0.2666  -0.2608  -0.2593  -0.2506  -0.2089
 -0.1518

 Beta MOs
 -- Occupied --
-19.1004 -19.0789 -19.0783 -14.3483 -14.3057 -10.2808 -10.2282 -10.2234
-10.2111 -10.2026 -10.1752 -10.1748 -10.1741 -10.1723 -10.1714 -10.1709
-10.1700 -10.1575  -1.0480  -1.0046  -0.9990  -0.9360  -0.9025  -0.8570
 -0.7925  -0.7726  -0.7500  -0.7320  -0.6792  -0.6493  -0.6169  -0.6149
 -0.5826  -0.5628  -0.5354  -0.5148  -0.5029  -0.4934  -0.4744  -0.4605
 -0.4517  -0.4398  -0.4308  -0.4282  -0.4227  -0.4205  -0.4120  -0.4035
 -0.3910  -0.3709  -0.3653  -0.3642  -0.3574  -0.3531  -0.3430  -0.3384
 -0.3144  -0.2972  -0.2727  -0.2562  -0.2519  -0.2502  -0.2453  -0.2014

          Ground-State Mulliken Net Atomic Charges

     Atom                 Charge (a.u.)    Spin (a.u.)
  --------------------------------------------------------
      1 C                     0.111555       0.060160
      2 C                    -0.362971       0.017843
      3 C                    -0.429018       0.061907
      4 C                     0.482555       0.014271
      5 C                    -0.092676       0.050293
      6 C                     0.061580       0.024093
      7 C                    -0.617428       0.171902
      8 C                     0.358128       0.059629
      9 C                     0.478088      -0.007145
     10 C                    -0.889308       0.111932
     11 O                    -0.519496       0.232833
     12 O                    -0.507590       0.166696
     13 N                    -0.475897       0.051505
     14 H                     0.178431      -0.003364
     15 H                     0.199964      -0.001686
     16 H                     0.202683      -0.004494
     17 H                     0.178869      -0.000419
     18 H                     0.307387      -0.002718
     19 H                     0.307916      -0.000047
     20 N                    -0.021247      -0.003294
     21 H                     0.374806      -0.001603
     22 C                     0.180867       0.000563
     23 C                    -0.295035      -0.001550
     24 C                    -0.574998       0.000108
     25 O                    -0.468847       0.001997
     26 H                     0.197101       0.000422
     27 H                     0.145600       0.000202
     28 H                     0.170053      -0.000089
     29 H                     0.164571      -0.000142
     30 H                     0.154356       0.000191
  --------------------------------------------------------
  Sum of atomic charges =    -1.000000

                    Cartesian Multipole Moments
 -----------------------------------------------------------------
    Charge (ESU x 10^10)
                -4.8032
    Dipole Moment (Debye)
         X      -2.9001      Y       4.0898      Z      -0.2916
       Tot       5.0221
    Quadrupole Moments (Debye-Ang)
        XX    -113.9154     XY       1.2667     YY    -136.8952
        XZ       5.7084     YZ       0.6763     ZZ    -113.6927

 Total job time:  90.24s(wall), 667.01s(cpu)
        *  Thank you very much for using Q-Chem.  Have a nice day.  *
