 Gaussian 16, Revision A.03,
 Gaussian 16:  ES64L-G16RevA.03 25-Dec-2016

 --------------------------------------
 #P UB3LYP/6-311++G(d,p) nosym opt freq
 --------------------------------------

 -------
 Reduced
 -------
 Symbolic Z-matrix:
 Charge = -2 Multiplicity = 1

 SCF Done:  E(UB3LYP) =  -765.347339327     A.U. after   72 cycles
 SCF Done:  E(UB3LYP) =  -765.366682911     A.U. after   30 cycles
 SCF Done:  E(UB3LYP) =  -765.370112309     A.U. after   30 cycles
 SCF Done:  E(UB3LYP) =  -765.367410427     A.U. after   36 cycles
 SCF Done:  E(UB3LYP) =  -765.370887516     A.U. after   27 cycles
 SCF Done:  E(UB3LYP) =  -765.370796235     A.U. after   27 cycles
 SCF Done:  E(UB3LYP) =  -765.371189298     A.U. after   28 cycles
 SCF Done:  E(UB3LYP) =  -765.371176835     A.U. after   28 cycles
 SCF Done:  E(UB3LYP) =  -765.371235020     A.U. after   25 cycles
 SCF Done:  E(UB3LYP) =  -765.371249189     A.U. after   24 cycles
 SCF Done:  E(UB3LYP) =  -765.371253745     A.U. after   25 cycles
 SCF Done:  E(UB3LYP) =  -765.371254171     A.U. after   24 cycles
 SCF Done:  E(UB3LYP) =  -765.371254262     A.U. after   18 cycles
 SCF Done:  E(UB3LYP) =  -765.371254285     A.U. after   22 cycles
 SCF Done:  E(UB3LYP) =  -765.371254303     A.U. after   15 cycles
 Optimization completed.
    -- Stationary point found.
 Normal termination of Gaussian 16 at Wed Dec 20 03:36:25 2023.

 ----------------------------------------------------------------------
 #P Geom=AllCheck Guess=TCheck SCRF=Check GenChk UB3LYP/6-311++G(d,p) F
 req
 ----------------------------------------------------------------------

 Structure from the checkpoint file:  "080-an.chk"
 -------
 Reduced
 -------
 Charge = -2 Multiplicity = 1

                          Input orientation:
 ---------------------------------------------------------------------
 Center     Atomic      Atomic             Coordinates (Angstroms)
 Number     Number       Type             X           Y           Z
 ---------------------------------------------------------------------
      1          6           0        1.335007    1.009356   -2.779422
      2          6           0       -0.061351    1.365575   -2.925291
      3          6           0       -1.059634    0.964285   -2.067951
      4          6           0       -0.789101    0.103575   -0.915104
      5          6           0        0.559111   -0.284346   -0.785423
      6          8           0        2.215236    1.531447   -3.540445
      7          8           0       -1.754412   -0.253093   -0.129301
      8          1           0       -0.288010    2.030909   -3.759171
      9          6           0        1.607380    0.082423   -1.683999
     10          6           0        2.936273   -0.429063   -1.405989
     11          6           0        3.998936   -0.539940   -2.484013
     12          6           0        5.347074   -0.476820   -2.101801
     13          6           0        3.712046   -0.870124   -3.816436
     14          6           0        6.374804   -0.713567   -3.016020
     15          6           0        6.074900   -1.051745   -4.335382
     16          6           0        4.732296   -1.135627   -4.725354
     17          8           0        3.278845   -0.887311   -0.289179
     18          1           0        5.567547   -0.254964   -1.063753
     19          1           0        2.677094   -0.910920   -4.129524
     20          1           0        7.413061   -0.649277   -2.695179
     21          1           0        6.871803   -1.256213   -5.047260
     22          1           0        4.482550   -1.398077   -5.750350
     23          6           0       -2.487828    1.395181   -2.277068
     24          1           0        0.816885   -0.940945    0.039281
     25          1           0       -2.589494    2.024231   -3.169707
     26          1           0       -2.860340    1.943990   -1.402861
     27          1           0       -3.145026    0.521329   -2.370809
 ---------------------------------------------------------------------

 SCF Done:  E(UB3LYP) =  -765.371254303     A.U. after    1 cycles

 Alpha  occ. eigenvalues --  -18.83054 -18.79209 -18.76966  -9.98516  -9.96990
 Alpha  occ. eigenvalues --   -9.96830  -9.96441  -9.95542  -9.95486  -9.95461
 Alpha  occ. eigenvalues --   -9.95311  -9.93204  -9.92941  -9.91504  -9.89575
 Alpha  occ. eigenvalues --   -9.89425  -9.87391  -0.75466  -0.71115  -0.68184
 Alpha  occ. eigenvalues --   -0.64064  -0.55431  -0.53887  -0.53293  -0.50546
 Alpha  occ. eigenvalues --   -0.44625  -0.41898  -0.39430  -0.38907  -0.34144
 Alpha  occ. eigenvalues --   -0.31203  -0.30756  -0.26940  -0.23879  -0.23141
 Alpha  occ. eigenvalues --   -0.21988  -0.21066  -0.19190  -0.18472  -0.17998
 Alpha  occ. eigenvalues --   -0.17023  -0.15959  -0.15253  -0.14528  -0.13587
 Alpha  occ. eigenvalues --   -0.12717  -0.12293  -0.11644  -0.09975  -0.09079
 Alpha  occ. eigenvalues --   -0.07621  -0.06847  -0.04301  -0.03511   0.00673
 Alpha  occ. eigenvalues --    0.01342   0.02516   0.04079   0.05436   0.12075
 Alpha virt. eigenvalues --    0.13400   0.15481   0.16759   0.17305   0.17820
 Alpha virt. eigenvalues --    0.19623   0.19865   0.20037   0.20826   0.21411
 Alpha virt. eigenvalues --    0.22240   0.22752   0.23003   0.23481   0.25005

  Beta  occ. eigenvalues --  -18.83054 -18.79209 -18.76966  -9.98516  -9.96990
  Beta  occ. eigenvalues --   -9.96830  -9.96441  -9.95542  -9.95486  -9.95461
  Beta  occ. eigenvalues --   -9.95311  -9.93204  -9.92941  -9.91504  -9.89575
  Beta  occ. eigenvalues --   -9.89425  -9.87391  -0.75466  -0.71115  -0.68184
  Beta  occ. eigenvalues --   -0.64064  -0.55431  -0.53887  -0.53293  -0.50546
  Beta  occ. eigenvalues --   -0.44625  -0.41898  -0.39430  -0.38907  -0.34144
  Beta  occ. eigenvalues --   -0.31203  -0.30756  -0.26940  -0.23879  -0.23141
  Beta  occ. eigenvalues --   -0.21988  -0.21066  -0.19190  -0.18472  -0.17998
  Beta  occ. eigenvalues --   -0.17023  -0.15959  -0.15253  -0.14528  -0.13587
  Beta  occ. eigenvalues --   -0.12717  -0.12293  -0.11644  -0.09975  -0.09079
  Beta  occ. eigenvalues --   -0.07621  -0.06847  -0.04301  -0.03511   0.00673
  Beta  occ. eigenvalues --    0.01342   0.02516   0.04079   0.05436   0.12075
  Beta virt. eigenvalues --    0.13400   0.15481   0.16759   0.17305   0.17820
  Beta virt. eigenvalues --    0.19623   0.19865   0.20037   0.20826   0.21411
  Beta virt. eigenvalues --    0.22240   0.22752   0.23003   0.23481   0.25005

 Mulliken charges and spin densities:
               1          2
     1  C   -1.364101   0.000000
     2  C   -0.466169   0.000000
     3  C    1.146990   0.000000
     4  C   -0.848738   0.000000
     5  C    0.155895   0.000000
     6  O   -0.414690   0.000000
     7  O   -0.548237   0.000000
     8  H    0.064877  -0.000000
     9  C    1.528467   0.000000
    10  C   -1.195284  -0.000000
    11  C    1.442350  -0.000000
    12  C    0.001555  -0.000000
    13  C   -0.898934   0.000000
    14  C   -0.095759   0.000000
    15  C   -0.019948   0.000000
    16  C   -0.330321  -0.000000
    17  O   -0.329990   0.000000
    18  H    0.186401   0.000000
    19  H    0.169326   0.000000
    20  H   -0.067775  -0.000000
    21  H   -0.237619  -0.000000
    22  H    0.115104  -0.000000
    23  C   -0.475719   0.000000
    24  H    0.143369  -0.000000
    25  H    0.088757  -0.000000
    26  H    0.128134  -0.000000
    27  H    0.122058  -0.000000
 Sum of Mulliken charges =  -2.00000   0.00000

 Dipole moment (field-independent basis, Debye):
    X=            -14.6750    Y=             -0.3615    Z=             16.7568  Tot=             22.2773
 Quadrupole moment (field-independent basis, Debye-Ang):
   XX=           -221.5605   YY=           -125.1976   ZZ=           -171.6091
   XY=              9.4193   XZ=             58.0450   YZ=             11.0962

  Exact polarizability:2695.208-527.718 294.116******** 266.190 896.984
 Approx polarizability:3820.157-755.867 426.021******** 244.3431038.273

                      1                      2                      3
                      A                      A                      A
 Frequencies --     29.2595                43.8229                63.7742
 Red. masses --      6.7097                 4.5210                 4.9737
 Frc consts  --      0.0034                 0.0051                 0.0119
 IR Inten    --      1.5312                 0.2362                12.2121

                      4                      5                      6
                      A                      A                      A
 Frequencies --    103.8041               125.9546               153.8295
 Red. masses --      5.7736                 1.1055                 6.0816
 Frc consts  --      0.0367                 0.0103                 0.0848
 IR Inten    --      0.6577                 0.4329                 8.7282

                      7                      8                      9
                      A                      A                      A
 Frequencies --    184.5535               200.8701               213.3024
 Red. masses --      4.7140                 6.7230                 4.7165
 Frc consts  --      0.0946                 0.1598                 0.1264
 IR Inten    --     85.7376                39.1410                 0.4680

                     10                     11                     12
                      A                      A                      A
 Frequencies --    251.3320               289.1573               345.8346
 Red. masses --      6.1172                 3.2249                10.8416
 Frc consts  --      0.2277                 0.1589                 0.7640
 IR Inten    --     42.3848                 6.3830                11.5228

                     13                     14                     15
                      A                      A                      A
 Frequencies --    369.6632               386.3277               403.4295
 Red. masses --      6.4297                 7.6323                 4.1035
 Frc consts  --      0.5177                 0.6711                 0.3935
 IR Inten    --     25.4726               420.7038               444.0244

                     16                     17                     18
                      A                      A                      A
 Frequencies --    416.5781               447.0818               476.6186
 Red. masses --      3.1092                 3.9429                 9.8901
 Frc consts  --      0.3179                 0.4643                 1.3237
 IR Inten    --      2.6205                26.3293              1097.8548

                     19                     20                     21
                      A                      A                      A
 Frequencies --    528.8999               598.9813               630.5463
 Red. masses --      4.4979                 6.3438                 6.2135
 Frc consts  --      0.7413                 1.3410                 1.4555
 IR Inten    --    246.5183                63.3216                 1.9586

                     22                     23                     24
                      A                      A                      A
 Frequencies --    638.3388               661.8194               684.4802
 Red. masses --      4.0286                 3.5384                 5.3553
 Frc consts  --      0.9672                 0.9131                 1.4783
 IR Inten    --     36.8777                20.0508                30.1057

                     25                     26                     27
                      A                      A                      A
 Frequencies --    694.0266               712.5642               718.7968
 Red. masses --      1.6342                 4.7065                 4.2284
 Frc consts  --      0.4638                 1.4080                 1.2872
 IR Inten    --     77.9204                 8.7970               166.2279

                     28                     29                     30
                      A                      A                      A
 Frequencies --    740.0553               783.7771               812.7768
 Red. masses --      2.4467                 2.8885                 4.1174
 Frc consts  --      0.7895                 1.0455                 1.6026
 IR Inten    --    121.3834                54.5701               112.0536

                     31                     32                     33
                      A                      A                      A
 Frequencies --    826.2560               839.2527               854.5901
 Red. masses --      1.2596                 2.0348                 1.6418
 Frc consts  --      0.5067                 0.8444                 0.7065
 IR Inten    --      6.4911                24.3138                38.7378

                     34                     35                     36
                      A                      A                      A
 Frequencies --    900.4511               925.5059               951.5728
 Red. masses --      1.5380                 3.5682                 1.2731
 Frc consts  --      0.7347                 1.8008                 0.6792
 IR Inten    --     68.0983               225.5381                 3.0387

                     37                     38                     39
                      A                      A                      A
 Frequencies --    956.8083              1004.6268              1008.3498
 Red. masses --      1.3647                 1.5625                 6.0302
 Frc consts  --      0.7361                 0.9291                 3.6125
 IR Inten    --     16.0151               241.5363                49.8460

                     40                     41                     42
                      A                      A                      A
 Frequencies --   1039.5637              1040.9391              1080.7409
 Red. masses --      2.2987                 1.5280                 1.7313
 Frc consts  --      1.4636                 0.9755                 1.1914
 IR Inten    --    287.1947                 6.2895                95.8078

                     43                     44                     45
                      A                      A                      A
 Frequencies --   1108.7671              1147.4941              1160.7866
 Red. masses --      3.4316                 2.3737                 1.0914
 Frc consts  --      2.4856                 1.8415                 0.8664
 IR Inten    --    202.0435               678.9205                60.7085

                     46                     47                     48
                      A                      A                      A
 Frequencies --   1178.7139              1187.9079              1219.6143
 Red. masses --      1.5637                 2.2385                 1.6285
 Frc consts  --      1.2801                 1.8611                 1.4272
 IR Inten    --     67.0947                76.8170              2098.6122

                     49                     50                     51
                      A                      A                      A
 Frequencies --   1263.5062              1281.1443              1325.4183
 Red. masses --      5.0985                 3.7251                 2.1106
 Frc consts  --      4.7956                 3.6023                 2.1846
 IR Inten    --    112.4503               115.6309                78.0088

                     52                     53                     54
                      A                      A                      A
 Frequencies --   1342.1334              1370.9337              1383.0514
 Red. masses --      2.5913                 1.9553                 2.3411
 Frc consts  --      2.7502                 2.1652                 2.6384
 IR Inten    --    345.3384               454.5477               147.0540

                     55                     56                     57
                      A                      A                      A
 Frequencies --   1416.6402              1449.8338              1451.1570
 Red. masses --      6.4201                 1.0631                 2.7865
 Frc consts  --      7.5912                 1.3166                 3.4573
 IR Inten    --   1970.2860               128.0850              5215.2346

                     58                     59                     60
                      A                      A                      A
 Frequencies --   1460.2525              1470.1987              1487.4930
 Red. masses --      2.2701                 2.5666                 2.0262
 Frc consts  --      2.8520                 3.2686                 2.6415
 IR Inten    --    918.5683              4525.0075               570.7525

                     61                     62                     63
                      A                      A                      A
 Frequencies --   1499.7089              1528.6583              1592.7478
 Red. masses --      2.7158                 4.6918                 5.3926
 Frc consts  --      3.5988                 6.4597                 8.0601
 IR Inten    --    227.4430              1770.8912              3429.1266

                     64                     65                     66
                      A                      A                      A
 Frequencies --   1602.8126              1612.7463              2978.8863
 Red. masses --      5.9717                 5.5580                 1.0329
 Frc consts  --      9.0389                 8.5173                 5.4001
 IR Inten    --   1027.3045               737.7837              1109.7750

                     67                     68                     69
                      A                      A                      A
 Frequencies --   3016.9355              3042.6406              3088.7919
 Red. masses --      1.0979                 1.1023                 1.0875
 Frc consts  --      5.8875                 6.0123                 6.1133
 IR Inten    --     72.8242                30.9912               441.5241

                     70                     71                     72
                      A                      A                      A
 Frequencies --   3100.7296              3119.6200              3137.7519
 Red. masses --      1.0833                 1.0890                 1.0941
 Frc consts  --      6.1368                 6.2444                 6.3465
 IR Inten    --    297.6537               484.5700               337.0484

                     73                     74                     75
                      A                      A                      A
 Frequencies --   3158.1454              3175.1602              3200.2501
 Red. masses --      1.0870                 1.0904                 1.0918
 Frc consts  --      6.3878                 6.4772                 6.5881
 IR Inten    --    142.8236                26.3031                13.8564

 - Thermochemistry -
 -------------------
 Temperature   298.150 Kelvin.  Pressure   1.00000 Atm.
 Atom     1 has atomic number  6 and mass  12.00000

 Molecular mass:   226.06299 amu.
 Principal axes and moments of inertia in atomic units:
                           1         2         3
     Eigenvalues --  1497.240436955.316577960.35501
           X            0.94114   0.16721   0.29377
           Y           -0.20592  -0.40560   0.89055
           Z           -0.26806   0.89863   0.34730
 This molecule is an asymmetric top.
 Rotational symmetry number  1.
 Warning -- assumption of classical behavior for rotation
           may cause significant error
 Rotational temperatures (Kelvin)      0.05785     0.01245     0.01088
 Rotational constants (GHZ):           1.20538     0.25948     0.22672
 Zero-point vibrational energy     518578.4 (Joules/Mol)
                                  123.94322 (Kcal/Mol)
 Warning -- explicit consideration of  20 degrees of freedom as
           vibrations may cause significant error
 Vibrational temperatures:     42.10    63.05    91.76   149.35   181.22
          (Kelvin)            221.33   265.53   289.01   306.89   361.61
                              416.03   497.58   531.86   555.84   580.45
                              599.36   643.25   685.75   760.97   861.80
                              907.22   918.43   952.21   984.81   998.55
                             1025.22  1034.19  1064.77  1127.68  1169.40
                             1188.80  1207.50  1229.56  1295.55  1331.60
                             1369.10  1376.63  1445.43  1450.79  1495.70
                             1497.68  1554.95  1595.27  1650.99  1670.11
                             1695.91  1709.13  1754.75  1817.90  1843.28
                             1906.98  1931.03  1972.47  1989.90  2038.23
                             2085.99  2087.89  2100.98  2115.29  2140.17
                             2157.75  2199.40  2291.61  2306.09  2320.38
                             4285.95  4340.70  4377.68  4444.08  4461.26
                             4488.44  4514.53  4543.87  4568.35  4604.45

 Zero-point correction=                           0.197516 (Hartree/Particle)
 Thermal correction to Energy=                    0.211939
 Thermal correction to Enthalpy=                  0.212883
 Thermal correction to Gibbs Free Energy=         0.155109
 Sum of electronic and zero-point Energies=           -765.173738
 Sum of electronic and thermal Energies=              -765.159316
 Sum of electronic and thermal Enthalpies=            -765.158371
 Sum of electronic and thermal Free Energies=         -765.216145

                     E (Thermal)             CV                S
                      KCal/Mol        Cal/Mol-Kelvin    Cal/Mol-Kelvin
 Total                  132.994             55.541            121.595
 Electronic               0.000              0.000              0.000
 Translational            0.889              2.981             42.149
 Rotational               0.889              2.981             32.783
 Vibrational            131.216             49.580             46.663
 Vibration     1          0.593              1.984              5.879
 Vibration     2          0.595              1.980              5.078
 Vibration     3          0.597              1.972              4.337
 Vibration     4          0.605              1.946              3.382
 Vibration     5          0.611              1.927              3.007
 Vibration     6          0.619              1.898              2.624
 Vibration     7          0.631              1.861              2.282
 Vibration     8          0.638              1.839              2.125
 Vibration     9          0.644              1.821              2.015
 Vibration    10          0.663              1.761              1.721
 Vibration    11          0.686              1.694              1.479
 Vibration    12          0.724              1.584              1.185
 Vibration    13          0.742              1.535              1.081
 Vibration    14          0.755              1.499              1.014
 Vibration    15          0.769              1.463              0.950
 Vibration    16          0.780              1.434              0.904
 Vibration    17          0.806              1.367              0.805
 Vibration    18          0.833              1.302              0.719
 Vibration    19          0.884              1.186              0.590
 Vibration    20          0.957              1.034              0.451

                           ! Non-Optimized Parameters !
 Normal termination of Gaussian 16 at Wed Dec 20 04:23:10 2023.
