 Gaussian 16, Revision A.03,
 Gaussian 16:  ES64L-G16RevA.03 25-Dec-2016

 ----------------------------------------------------------------
 #P UB3LYP/6-311++G(d,p) SCRF=(PCM,Solvent=n,n-DiMethylFormamide)
 ----------------------------------------------------------------

 ------------------
 Radical PCM in DMF
 ------------------
 Symbolic Z-matrix:
 Charge = -1 Multiplicity = 2

                         Standard orientation:
 ---------------------------------------------------------------------
 Center     Atomic      Atomic             Coordinates (Angstroms)
 Number     Number       Type             X           Y           Z
 ---------------------------------------------------------------------
      1          6           0        3.498598    0.780553    0.346935
      2          6           0        4.480981   -0.194101    0.386862
      3          6           0        4.135272   -1.546733    0.195593
      4          6           0        2.151786    0.444147    0.119096
      5          6           0        1.803142   -0.917728   -0.074037
      6          6           0        2.817704   -1.898014   -0.031690
      7          6           0        1.141968    1.520993    0.068584
      8          6           0       -0.209093    1.074514   -0.176513
      9          6           0       -0.586573   -0.253386   -0.316921
     10          6           0        0.419319   -1.311940   -0.293400
     11          8           0        1.461402    2.721986    0.210804
     12          8           0        0.066806   -2.517280   -0.459393
     13          1           0        3.733848    1.829250    0.487128
     14          1           0        5.515935    0.082447    0.564694
     15          1           0        2.524884   -2.930758   -0.181495
     16         17           0       -1.404529    2.369148   -0.376699
     17          1           0        4.904662   -2.312770    0.226367
     18          7           0       -1.887139   -0.712768   -0.562298
     19          6           0       -2.962757   -0.439053    0.394651
     20          6           0       -4.292601   -0.986160   -0.125450
     21          6           0       -5.447830   -0.763536    0.855179
     22          1           0       -1.789394   -1.719453   -0.701947
     23          1           0       -3.045688    0.637033    0.545869
     24          1           0       -2.742021   -0.887235    1.379188
     25          1           0       -4.187197   -2.059017   -0.330697
     26          1           0       -4.513550   -0.507457   -1.085223
     27          1           0       -5.257796   -1.258705    1.813228
     28          1           0       -6.389349   -1.156967    0.459341
     29          1           0       -5.592535    0.302514    1.058884
 ---------------------------------------------------------------------

 SCF Done:  E(UB3LYP) =  -1168.37861393     A.U. after   20 cycles

 The electronic state is 2-A.
 Alpha  occ. eigenvalues -- -101.54493 -19.08448 -19.07832 -14.31330 -10.23262
 Alpha  occ. eigenvalues --  -10.22661 -10.21538 -10.21250 -10.19186 -10.17702
 Alpha  occ. eigenvalues --  -10.17640 -10.17460 -10.17392 -10.17212 -10.17187
 Alpha  occ. eigenvalues --  -10.16480 -10.15754  -9.45959  -7.22378  -7.21485
 Alpha  occ. eigenvalues --   -7.21412  -1.01159  -1.00773  -0.92540  -0.86312
 Alpha  occ. eigenvalues --   -0.85305  -0.79458  -0.77443  -0.75309  -0.72720
 Alpha  occ. eigenvalues --   -0.68411  -0.65989  -0.61669  -0.60200  -0.59058
 Alpha  occ. eigenvalues --   -0.56499  -0.52851  -0.50638  -0.48431  -0.47265
 Alpha  occ. eigenvalues --   -0.46426  -0.45303  -0.43675  -0.42981  -0.42355
 Alpha  occ. eigenvalues --   -0.42013  -0.41556  -0.41044  -0.39619  -0.39320
 Alpha  occ. eigenvalues --   -0.38173  -0.36833  -0.36347  -0.35417  -0.34496
 Alpha  occ. eigenvalues --   -0.34192  -0.33749  -0.33285  -0.30335  -0.29046
 Alpha  occ. eigenvalues --   -0.26487  -0.25904  -0.25648  -0.24570  -0.22146
 Alpha  occ. eigenvalues --   -0.15274
 Alpha virt. eigenvalues --   -0.03536  -0.01611  -0.00508   0.00224   0.00962
 Alpha virt. eigenvalues --    0.01377   0.01932   0.02112   0.03337   0.03734
 Alpha virt. eigenvalues --    0.04260   0.04385   0.04829   0.04998   0.05630

  Beta  occ. eigenvalues -- -101.54490 -19.07801 -19.07328 -14.31255 -10.23126
  Beta  occ. eigenvalues --  -10.22419 -10.21476 -10.21095 -10.19171 -10.17641
  Beta  occ. eigenvalues --  -10.17589 -10.17446 -10.17329 -10.17203 -10.17174
  Beta  occ. eigenvalues --  -10.16480 -10.15754  -9.45957  -7.22381  -7.21473
  Beta  occ. eigenvalues --   -7.21411  -1.00163  -0.99794  -0.92263  -0.86088
  Beta  occ. eigenvalues --   -0.85217  -0.79143  -0.77315  -0.75105  -0.72547
  Beta  occ. eigenvalues --   -0.68020  -0.65463  -0.61516  -0.59968  -0.58956
  Beta  occ. eigenvalues --   -0.56224  -0.52676  -0.50425  -0.48169  -0.47185
  Beta  occ. eigenvalues --   -0.46283  -0.45161  -0.43286  -0.42691  -0.42046
  Beta  occ. eigenvalues --   -0.41423  -0.41016  -0.40827  -0.39363  -0.38846
  Beta  occ. eigenvalues --   -0.36750  -0.36382  -0.36139  -0.35042  -0.34095
  Beta  occ. eigenvalues --   -0.34080  -0.33648  -0.32495  -0.30271  -0.28048
  Beta  occ. eigenvalues --   -0.25208  -0.25086  -0.25002  -0.24066  -0.21273
  Beta virt. eigenvalues --   -0.08867  -0.02763  -0.00670  -0.00351   0.00240
  Beta virt. eigenvalues --    0.01003   0.01397   0.01948   0.02125   0.03359
  Beta virt. eigenvalues --    0.03784   0.04348   0.04585   0.04906   0.05636

 Mulliken charges and spin densities:
               1          2
     1  C    0.143087   0.006843
     2  C   -0.420841   0.055487
     3  C   -0.403316   0.008256
     4  C    0.257868   0.062358
     5  C    0.112657  -0.009003
     6  C    0.079007   0.065064
     7  C   -0.783137   0.076623
     8  C    1.031743   0.025019
     9  C   -0.403885   0.100081
    10  C   -0.918348   0.161413
    11  O   -0.431465   0.185579
    12  O   -0.458614   0.241155
    13  H    0.170649  -0.000674
    14  H    0.180786  -0.004071
    15  H    0.173456  -0.003698
    16  Cl   0.313867   0.001162
    17  H    0.180890  -0.000941
    18  N    0.072086   0.027331
    19  C   -0.494600   0.000072
    20  C   -0.025926  -0.002956
    21  C   -0.629496   0.000180
    22  H    0.295446  -0.000637
    23  H    0.099156   0.002022
    24  H    0.165318   0.003491
    25  H    0.125700  -0.000602
    26  H    0.138979   0.000412
    27  H    0.136681   0.000209
    28  H    0.148423   0.000089
    29  H    0.143829  -0.000266
 Sum of Mulliken charges =  -1.00000   1.00000

 Dipole moment (field-independent basis, Debye):
    X=             -3.1191    Y=             -3.6097    Z=              1.7282  Tot=              5.0740
 Quadrupole moment (field-independent basis, Debye-Ang):
   XX=           -109.4813   YY=           -145.4053   ZZ=           -115.4814
   XY=             -5.1259   XZ=             -2.4163   YZ=             -2.9672

 Normal termination of Gaussian 16 at Sun Jan 21 08:17:27 2024.
