 Q-Chem 5.4, Q-Chem, Inc., Pleasanton, CA (2021)
 Q-Chem 5.4.0 for Intel X86 EM64T Linux

User input:
--------------------------------------------------------------
$molecule
-2 1
C                 -1.7105020000      2.9272360000     -0.8319000000
C                 -2.8461770000      2.1983630000     -0.5120390000
C                 -2.7171110000      0.8922520000     -0.0420790000
C                 -0.4376520000      2.3674130000     -0.6908970000
C                 -0.2932210000      1.0333230000     -0.2214800000
C                 -1.4517790000      0.3074770000      0.0978890000
C                  0.7320810000      3.1959900000     -1.0471010000
C                  2.1372190000      2.5575490000     -0.8727050000
C                  2.1815290000      1.1897350000     -0.3952200000
C                  1.0712100000      0.4752020000     -0.0934420000
O                  0.6461350000      4.3395900000     -1.4641450000
O                  3.1327940000      3.2172220000     -1.1416160000
H                 -1.7829430000      3.9443770000     -1.2000160000
H                 -3.8401590000      2.6118290000     -0.6293510000
S                 -4.2567660000      0.0074620000      0.4364720000
H                 -1.3737910000     -0.7129130000      0.4483090000
H                  3.1547460000      0.7286680000     -0.2776610000
S                  1.3563290000     -1.2576260000      0.4858990000
O                  2.8327320000     -1.4134140000      0.4870620000
O                  0.6613070000     -2.0797430000     -0.5322920000
O                  0.7437360000     -1.2827450000      1.8347140000
O                 -4.3635740000      0.2520900000      1.8984880000
O                 -4.0333940000     -1.4060870000      0.0608230000
O                 -5.3159810000      0.6926910000     -0.3567920000
$end
$rem
MAX_SCF_CYCLES=200
BASIS  =  6-311++G(d,p)
GUI  =  2
JOB_TYPE  =  SP
METHOD  =  B3LYP
SOLVENT_METHOD = PCM
$end
$pcm
theory = CPCM
$end
$solvent
dielectric 37.219
opticaldielectric 1.43
$end

--------------------------------------------------------------

             Standard Nuclear Orientation (Angstroms)
    I     Atom           X                Y                Z
 ----------------------------------------------------------------
    1      C      -1.7105020000     2.9272360000    -0.8319000000
    2      C      -2.8461770000     2.1983630000    -0.5120390000
    3      C      -2.7171110000     0.8922520000    -0.0420790000
    4      C      -0.4376520000     2.3674130000    -0.6908970000
    5      C      -0.2932210000     1.0333230000    -0.2214800000
    6      C      -1.4517790000     0.3074770000     0.0978890000
    7      C       0.7320810000     3.1959900000    -1.0471010000
    8      C       2.1372190000     2.5575490000    -0.8727050000
    9      C       2.1815290000     1.1897350000    -0.3952200000
   10      C       1.0712100000     0.4752020000    -0.0934420000
   11      O       0.6461350000     4.3395900000    -1.4641450000
   12      O       3.1327940000     3.2172220000    -1.1416160000
   13      H      -1.7829430000     3.9443770000    -1.2000160000
   14      H      -3.8401590000     2.6118290000    -0.6293510000
   15      S      -4.2567660000     0.0074620000     0.4364720000
   16      H      -1.3737910000    -0.7129130000     0.4483090000
   17      H       3.1547460000     0.7286680000    -0.2776610000
   18      S       1.3563290000    -1.2576260000     0.4858990000
   19      O       2.8327320000    -1.4134140000     0.4870620000
   20      O       0.6613070000    -2.0797430000    -0.5322920000
   21      O       0.7437360000    -1.2827450000     1.8347140000
   22      O      -4.3635740000     0.2520900000     1.8984880000
   23      O      -4.0333940000    -1.4060870000     0.0608230000
   24      O      -5.3159810000     0.6926910000    -0.3567920000
 ----------------------------------------------------------------

    9   -1782.1950843050      6.80e-06  Convergence criterion met
 Total energy in the final basis set =    -1782.1950843050

                    Orbital Energies (a.u.)
 --------------------------------------------------------------

 Alpha MOs
 -- Occupied --
-89.0582 -89.0525 -19.1447 -19.1428 -19.1028 -19.1028 -19.1021 -19.0988
-19.0970 -19.0956 -10.2865 -10.2830 -10.2383 -10.2249 -10.2176 -10.2093
-10.2037 -10.2008 -10.1979 -10.1965  -8.1169  -8.1113  -6.0795  -6.0794
 -6.0790  -6.0739  -6.0739  -6.0732  -1.1233  -1.1167  -1.0832  -1.0561
 -0.9875  -0.9864  -0.9827  -0.9780  -0.8981  -0.8435  -0.7900  -0.7689
 -0.7236  -0.6629  -0.6462  -0.6279  -0.5918  -0.5743  -0.5466  -0.5266
 -0.5136  -0.4962  -0.4856  -0.4685  -0.4658  -0.4655  -0.4609  -0.4583
 -0.4566  -0.4514  -0.4498  -0.4239  -0.4127  -0.4056  -0.3931  -0.3772
 -0.3499  -0.3457  -0.3439  -0.3415  -0.3406  -0.3227  -0.3161  -0.3092
 -0.3035  -0.3007  -0.2979  -0.2956  -0.2745  -0.2670  -0.2664  -0.2625
 -0.2598

          Ground-State Mulliken Net Atomic Charges

     Atom                 Charge (a.u.)
  ----------------------------------------
      1 C                     0.187017
      2 C                    -0.424758
      3 C                    -0.383679
      4 C                     0.699366
      5 C                     0.341923
      6 C                    -0.867042
      7 C                    -0.708966
      8 C                     0.324839
      9 C                     0.100160
     10 C                    -0.667727
     11 O                    -0.277724
     12 O                    -0.320468
     13 H                     0.205699
     14 H                     0.252069
     15 S                     0.690415
     16 H                     0.179218
     17 H                     0.285425
     18 S                     0.568694
     19 O                    -0.308605
     20 O                    -0.348830
     21 O                    -0.346470
     22 O                    -0.370437
     23 O                    -0.393053
     24 O                    -0.417065
  ----------------------------------------
  Sum of atomic charges =    -2.000000

                    Cartesian Multipole Moments
 -----------------------------------------------------------------
    Charge (ESU x 10^10)
                -9.6064
    Dipole Moment (Debye)
         X      11.4158      Y       4.2552      Z      -3.9247
       Tot      12.7996
    Quadrupole Moments (Debye-Ang)
        XX    -265.7911     XY     -13.5056     YY    -181.0108
        XZ      15.2059     YZ      12.6715     ZZ    -153.9645

 Total job time:  49.30s(wall), 359.46s(cpu)
        *  Thank you very much for using Q-Chem.  Have a nice day.  *
