 Gaussian 16, Revision A.03,
 Gaussian 16:  ES64L-G16RevA.03 25-Dec-2016

 ----------------------------------------------------------------------
 #P UB3LYP/6-311++G(d,p) nosym opt freq SCRF=(PCM,Solvent=n,n-DiMethylF
 ormamide)
 ----------------------------------------------------------------------

 -------
 Radical
 -------
 Symbolic Z-matrix:
 Charge = -1 Multiplicity = 2

 SCF Done:  E(UB3LYP) =  -1055.20799722     A.U. after   20 cycles
 SCF Done:  E(UB3LYP) =  -1055.20771791     A.U. after   17 cycles
 SCF Done:  E(UB3LYP) =  -1055.20855063     A.U. after   15 cycles
 SCF Done:  E(UB3LYP) =  -1055.20855633     A.U. after   15 cycles
 SCF Done:  E(UB3LYP) =  -1055.20855771     A.U. after   14 cycles
 SCF Done:  E(UB3LYP) =  -1055.20862939     A.U. after   14 cycles
 SCF Done:  E(UB3LYP) =  -1055.20863197     A.U. after   13 cycles
 SCF Done:  E(UB3LYP) =  -1055.20863258     A.U. after   13 cycles
 SCF Done:  E(UB3LYP) =  -1055.20863279     A.U. after   11 cycles
 Optimization completed.
    -- Stationary point found.
 Normal termination of Gaussian 16 at Sat Feb 10 11:59:59 2024.

 ----------------------------------------------------------------------
 #P Geom=AllCheck Guess=TCheck SCRF=Check GenChk UB3LYP/6-311++G(d,p) F
 req
 ----------------------------------------------------------------------

 Structure from the checkpoint file:  "103-rad.chk"
 -------
 Radical
 -------
 Charge = -1 Multiplicity = 2

                          Input orientation:
 ---------------------------------------------------------------------
 Center     Atomic      Atomic             Coordinates (Angstroms)
 Number     Number       Type             X           Y           Z
 ---------------------------------------------------------------------
      1          6           0       -0.069441    1.900644    5.035335
      2          6           0        1.107658    1.302165    4.440479
      3          6           0        1.410666    1.293288    3.101210
      4          6           0        0.461774    1.926413    2.177102
      5          6           0       -0.734556    2.492732    2.756030
      6          6           0       -1.011430    2.497188    4.101868
      7          8           0       -0.241862    1.892496    6.291127
      8          8           0        0.639260    1.982371    0.919947
      9         16           0       -2.469633    3.351065    4.691138
     10          6           0       -3.414548    2.028857    5.606385
     11          6           0       -4.568678    2.720432    6.332318
     12          6           0       -3.893643    0.921348    4.671776
     13          6           0        2.700155    0.647946    2.564076
     14          6           0        3.556089    0.026038    3.684275
     15          6           0        3.563332    1.719635    1.854741
     16          6           0        2.346397   -0.480601    1.565101
     17          1           0        1.780647    0.850790    5.159407
     18          1           0       -1.436309    2.933863    2.055568
     19          1           0       -2.707283    1.627880    6.332470
     20          1           0       -4.208722    3.478758    7.031649
     21          1           0       -5.141889    1.981165    6.899666
     22          1           0       -5.252707    3.200766    5.625420
     23          1           0       -3.060508    0.458817    4.138077
     24          1           0       -4.602478    1.307960    3.933358
     25          1           0       -4.397023    0.139289    5.251139
     26          1           0        3.022270   -0.766518    4.216330
     27          1           0        3.879814    0.771319    4.416238
     28          1           0        4.454249   -0.417355    3.244856
     29          1           0        3.856678    2.505249    2.558281
     30          1           0        3.018126    2.177288    1.030143
     31          1           0        4.477872    1.263095    1.461489
     32          1           0        1.759627   -1.262063    2.058401
     33          1           0        3.263186   -0.941225    1.182063
     34          1           0        1.772049   -0.092424    0.724977
 ---------------------------------------------------------------------

 SCF Done:  E(UB3LYP) =  -1055.20863279     A.U. after    2 cycles

 Alpha  occ. eigenvalues --  -88.83419 -19.07583 -19.07399 -10.22143 -10.21879
 Alpha  occ. eigenvalues --  -10.19830 -10.19014 -10.18292 -10.17204 -10.16364
 Alpha  occ. eigenvalues --  -10.16205 -10.15818 -10.15793 -10.15088 -10.14647
 Alpha  occ. eigenvalues --  -10.14623  -7.92037  -5.88417  -5.88060  -5.87437
 Alpha  occ. eigenvalues --   -0.99661  -0.99337  -0.83673  -0.81863  -0.79759
 Alpha  occ. eigenvalues --   -0.74764  -0.69706  -0.68817  -0.67949  -0.67629
 Alpha  occ. eigenvalues --   -0.66584  -0.59769  -0.57950  -0.55555  -0.52077
 Alpha  occ. eigenvalues --   -0.47962  -0.46891  -0.46056  -0.44451  -0.43314
 Alpha  occ. eigenvalues --   -0.43244  -0.42404  -0.42062  -0.41171  -0.40692
 Alpha  occ. eigenvalues --   -0.40060  -0.38817  -0.38451  -0.37291  -0.36674
 Alpha  occ. eigenvalues --   -0.36546  -0.35522  -0.35448  -0.34660  -0.34303
 Alpha  occ. eigenvalues --   -0.33142  -0.32755  -0.31979  -0.31646  -0.27596
 Alpha  occ. eigenvalues --   -0.25737  -0.24041  -0.23404  -0.22114  -0.16116
 Alpha virt. eigenvalues --   -0.01298  -0.00475   0.00111   0.00994   0.01353
 Alpha virt. eigenvalues --    0.01737   0.02279   0.02464   0.02763   0.03528
 Alpha virt. eigenvalues --    0.03768   0.04002   0.04180   0.04603   0.04971

  Beta  occ. eigenvalues --  -88.83419 -19.06917 -19.06677 -10.22001 -10.21741
  Beta  occ. eigenvalues --  -10.19822 -10.18894 -10.18298 -10.17104 -10.16225
  Beta  occ. eigenvalues --  -10.16205 -10.15817 -10.15715 -10.15088 -10.14641
  Beta  occ. eigenvalues --  -10.14617  -7.92037  -5.88422  -5.88061  -5.87431
  Beta  occ. eigenvalues --   -0.98483  -0.98070  -0.83252  -0.81782  -0.79542
  Beta  occ. eigenvalues --   -0.74577  -0.69241  -0.68814  -0.67905  -0.67609
  Beta  occ. eigenvalues --   -0.65880  -0.59461  -0.57685  -0.55429  -0.51811
  Beta  occ. eigenvalues --   -0.47773  -0.46650  -0.45973  -0.44360  -0.43197
  Beta  occ. eigenvalues --   -0.42960  -0.42193  -0.41976  -0.40903  -0.39654
  Beta  occ. eigenvalues --   -0.39482  -0.38804  -0.37389  -0.37219  -0.36312
  Beta  occ. eigenvalues --   -0.35950  -0.35429  -0.34706  -0.34292  -0.33677
  Beta  occ. eigenvalues --   -0.32983  -0.32547  -0.31924  -0.31193  -0.25540
  Beta  occ. eigenvalues --   -0.24288  -0.23407  -0.22808  -0.21707
  Beta virt. eigenvalues --   -0.08965  -0.00460  -0.00070   0.00169   0.01216
  Beta virt. eigenvalues --    0.01593   0.01787   0.02466   0.02660   0.02867
  Beta virt. eigenvalues --    0.03567   0.03855   0.04210   0.04457   0.04888

 Mulliken charges and spin densities:
               1          2
     1  C   -0.761498   0.126603
     2  C   -0.440118   0.018344
     3  C    1.063997   0.113302
     4  C   -0.987565   0.085225
     5  C   -0.723012   0.083921
     6  C    1.807653   0.088786
     7  O   -0.458611   0.237273
     8  O   -0.441294   0.259030
     9  S   -0.500941   0.008210
    10  C    0.197344   0.007120
    11  C   -0.652263   0.001774
    12  C   -0.707192  -0.002996
    13  C    0.590069  -0.027840
    14  C   -0.530950  -0.000513
    15  C   -0.698948   0.010558
    16  C   -0.685318   0.010338
    17  H    0.204354  -0.007082
    18  H    0.204410  -0.010460
    19  H    0.244039  -0.000895
    20  H    0.160869   0.000093
    21  H    0.149908   0.000180
    22  H    0.149525   0.000117
    23  H    0.147112   0.000396
    24  H    0.165564   0.000038
    25  H    0.143252   0.000306
    26  H    0.133762  -0.000238
    27  H    0.133203  -0.000228
    28  H    0.170782   0.000026
    29  H    0.132390   0.000991
    30  H    0.178111  -0.001935
    31  H    0.152103   0.000203
    32  H    0.133205   0.000923
    33  H    0.150082   0.000032
    34  H    0.175975  -0.001603
 Sum of Mulliken charges =  -1.00000   1.00000

 Dipole moment (field-independent basis, Debye):
    X=             -0.0144    Y=            -11.8535    Z=            -17.2996  Tot=             20.9709
 Quadrupole moment (field-independent basis, Debye-Ang):
   XX=           -108.6311   YY=           -142.4970   ZZ=           -208.7016
   XY=              4.6098   XZ=              2.6031   YZ=            -45.2305

  Exact polarizability: 300.571 -34.710 221.129 -53.263   4.610 347.537
 Approx polarizability: 292.661 -26.982 236.001 -45.849  -3.071 398.245

                      1                      2                      3
                      A                      A                      A
 Frequencies --     36.1391                37.4007                50.2229
 Red. masses --      3.2685                 3.4677                 3.5214
 Frc consts  --      0.0025                 0.0029                 0.0052
 IR Inten    --      3.1995                 3.0170                 3.7090

                      4                      5                      6
                      A                      A                      A
 Frequencies --     70.6054               100.7938               155.8402
 Red. masses --      3.9972                 4.5628                 4.7818
 Frc consts  --      0.0117                 0.0273                 0.0684
 IR Inten    --      0.3930                 6.5912                12.4797

                      7                      8                      9
                      A                      A                      A
 Frequencies --    177.5302               202.9145               223.2695
 Red. masses --      4.2191                 4.8085                 1.1331
 Frc consts  --      0.0783                 0.1167                 0.0333
 IR Inten    --      3.9103                 0.3801                 0.6921

                     10                     11                     12
                      A                      A                      A
 Frequencies --    223.4474               233.4059               238.1986
 Red. masses --      1.1750                 1.7742                 3.5099
 Frc consts  --      0.0346                 0.0569                 0.1173
 IR Inten    --      0.0148                 0.2947                 0.6813

                     13                     14                     15
                      A                      A                      A
 Frequencies --    255.7980               260.4262               283.6585
 Red. masses --      1.2160                 1.4823                 3.3355
 Frc consts  --      0.0469                 0.0592                 0.1581
 IR Inten    --      1.0885                 0.0830                 0.8976

                     16                     17                     18
                      A                      A                      A
 Frequencies --    295.1329               325.7910               332.2666
 Red. masses --      2.9914                 2.9662                 1.0560
 Frc consts  --      0.1535                 0.1855                 0.0687
 IR Inten    --      4.4534                10.7246                 0.1547

                     19                     20                     21
                      A                      A                      A
 Frequencies --    338.0773               367.5843               383.9750
 Red. masses --      3.0909                 5.0296                 2.5700
 Frc consts  --      0.2081                 0.4004                 0.2232
 IR Inten    --      2.1011                10.0380                 1.7360

                     22                     23                     24
                      A                      A                      A
 Frequencies --    407.8939               416.3783               440.2762
 Red. masses --      2.6472                 2.7034                 4.1483
 Frc consts  --      0.2595                 0.2761                 0.4738
 IR Inten    --      1.3505                 2.3218                12.2972

                     25                     26                     27
                      A                      A                      A
 Frequencies --    471.5208               499.1012               508.4105
 Red. masses --      4.1690                 5.0828                 4.6748
 Frc consts  --      0.5461                 0.7460                 0.7119
 IR Inten    --      3.6799                 1.5788                 0.2662

                     28                     29                     30
                      A                      A                      A
 Frequencies --    603.0036               609.8471               636.2735
 Red. masses --      5.0582                 3.7709                 4.7713
 Frc consts  --      1.0836                 0.8263                 1.1381
 IR Inten    --      9.6507                 8.6313                 1.2411

                     31                     32                     33
                      A                      A                      A
 Frequencies --    691.0117               716.6201               755.8921
 Red. masses --      6.6091                 6.5444                 3.0761
 Frc consts  --      1.8594                 1.9801                 1.0356
 IR Inten    --      3.2184                 7.8418                 1.2121

                     34                     35                     36
                      A                      A                      A
 Frequencies --    811.8024               843.8162               870.9793
 Red. masses --      3.2683                 4.2171                 1.6522
 Frc consts  --      1.2690                 1.7691                 0.7385
 IR Inten    --     14.1048               103.0348                 1.1534

                     37                     38                     39
                      A                      A                      A
 Frequencies --    880.0384               899.0518               927.7616
 Red. masses --      2.6264                 1.5408                 1.7551
 Frc consts  --      1.1984                 0.7338                 0.8901
 IR Inten    --      3.8341                61.8417                 3.3447

                     40                     41                     42
                      A                      A                      A
 Frequencies --    930.5223               939.7834               955.2647
 Red. masses --      1.7416                 1.1718                 1.2002
 Frc consts  --      0.8885                 0.6098                 0.6453
 IR Inten    --      2.8314                 4.8538                 0.2904

                     43                     44                     45
                      A                      A                      A
 Frequencies --    958.6424               977.0990              1034.9216
 Red. masses --      1.4183                 5.1062                 1.5875
 Frc consts  --      0.7680                 2.8723                 1.0018
 IR Inten    --      0.7284                 2.5904                74.7091

                     46                     47                     48
                      A                      A                      A
 Frequencies --   1042.8773              1065.5038              1078.0423
 Red. masses --      1.3819                 1.4407                 1.9793
 Frc consts  --      0.8855                 0.9637                 1.3553
 IR Inten    --      0.1845               112.3836                55.9476

                     49                     50                     51
                      A                      A                      A
 Frequencies --   1126.4375              1174.1764              1181.6075
 Red. masses --      2.3898                 1.8798                 7.1357
 Frc consts  --      1.7866                 1.5269                 5.8700
 IR Inten    --      2.7802                25.7048                 2.3277

                     52                     53                     54
                      A                      A                      A
 Frequencies --   1213.5416              1222.4111              1246.0075
 Red. masses --      2.7390                 2.7322                 1.4812
 Frc consts  --      2.3766                 2.4055                 1.3549
 IR Inten    --      8.0899                13.8416                 7.3908

                     55                     56                     57
                      A                      A                      A
 Frequencies --   1256.0765              1266.7374              1312.3119
 Red. masses --      1.2929                 2.1802                 2.1129
 Frc consts  --      1.2018                 2.0612                 2.1439
 IR Inten    --     27.9974                30.5191                30.1170

                     58                     59                     60
                      A                      A                      A
 Frequencies --   1364.9470              1374.5293              1381.2036
 Red. masses --      1.3001                 1.2104                 1.2858
 Frc consts  --      1.4271                 1.3474                 1.4452
 IR Inten    --      2.1191                12.3988                43.7848

                     61                     62                     63
                      A                      A                      A
 Frequencies --   1394.8983              1405.8144              1410.2127
 Red. masses --      1.2588                 2.7549                 1.2670
 Frc consts  --      1.4430                 3.2079                 1.4846
 IR Inten    --      8.5280                 7.5503                13.5701

                     64                     65                     66
                      A                      A                      A
 Frequencies --   1411.0167              1462.8242              1470.3664
 Red. masses --      1.5180                 4.7449                 1.0518
 Frc consts  --      1.7806                 5.9822                 1.3398
 IR Inten    --     17.4678               360.8072                 0.7461

                     67                     68                     69
                      A                      A                      A
 Frequencies --   1476.2939              1477.3664              1484.2284
 Red. masses --      1.0559                 1.0436                 2.0098
 Frc consts  --      1.3559                 1.3420                 2.6086
 IR Inten    --     16.8593                 2.8879               393.8157

                     70                     71                     72
                      A                      A                      A
 Frequencies --   1485.3613              1488.2403              1489.4536
 Red. masses --      1.0479                 1.0940                 1.1121
 Frc consts  --      1.3621                 1.4277                 1.4537
 IR Inten    --     12.5280                28.1700                 9.1754

                     73                     74                     75
                      A                      A                      A
 Frequencies --   1489.9042              1495.1737              1500.2723
 Red. masses --      1.9305                 1.0593                 1.0508
 Frc consts  --      2.5249                 1.3953                 1.3936
 IR Inten    --    171.0838                 8.2367                 9.9761

                     76                     77                     78
                      A                      A                      A
 Frequencies --   1508.1630              1516.2639              1620.0714
 Red. masses --      3.4858                 1.0975                 7.0879
 Frc consts  --      4.6714                 1.4867                10.9607
 IR Inten    --    368.9112                30.6750                 8.4813

                     79                     80                     81
                      A                      A                      A
 Frequencies --   3010.9952              3012.6748              3013.4216
 Red. masses --      1.0381                 1.0368                 1.0370
 Frc consts  --      5.5448                 5.5445                 5.5480
 IR Inten    --     79.2276                43.9685                52.1014

                     82                     83                     84
                      A                      A                      A
 Frequencies --   3019.7242              3021.6278              3066.6846
 Red. masses --      1.0358                 1.0367                 1.1018
 Frc consts  --      5.5650                 5.5766                 6.1053
 IR Inten    --     72.1495                75.2349                31.6198

                     85                     86                     87
                      A                      A                      A
 Frequencies --   3067.8610              3068.3240              3074.3973
 Red. masses --      1.0967                 1.1011                 1.0994
 Frc consts  --      6.0815                 6.1078                 6.1224
 IR Inten    --     37.6306                67.0013                 5.3155

                     88                     89                     90
                      A                      A                      A
 Frequencies --   3081.5859              3084.2067              3089.1787
 Red. masses --      1.1011                 1.1021                 1.0971
 Frc consts  --      6.1608                 6.1766                 6.1687
 IR Inten    --    113.9371                64.2641                56.8187

                     91                     92                     93
                      A                      A                      A
 Frequencies --   3093.6700              3102.8874              3120.7914
 Red. masses --      1.1008                 1.0953                 1.0983
 Frc consts  --      6.2076                 6.2129                 6.3026
 IR Inten    --     34.9710                40.2015                 6.0163

                     94                     95                     96
                      A                      A                      A
 Frequencies --   3124.6471              3162.9044              3182.4164
 Red. masses --      1.0974                 1.0898                 1.0880
 Frc consts  --      6.3130                 6.4236                 6.4922
 IR Inten    --     26.4848                21.2413                16.7018

 - Thermochemistry -
 -------------------
 Temperature   298.150 Kelvin.  Pressure   1.00000 Atm.
 Atom     1 has atomic number  6 and mass  12.00000

 Molecular mass:   238.10275 amu.
 Principal axes and moments of inertia in atomic units:
                           1         2         3
     Eigenvalues --  1704.097827615.320448191.57268
           X            0.85862   0.38287   0.34085
           Y           -0.24207  -0.28329   0.92798
           Z           -0.45186   0.87930   0.15056
 This molecule is an asymmetric top.
 Rotational symmetry number  1.
 Warning -- assumption of classical behavior for rotation
           may cause significant error
 Rotational temperatures (Kelvin)      0.05083     0.01137     0.01057
 Rotational constants (GHZ):           1.05906     0.23699     0.22032
 Zero-point vibrational energy     733721.9 (Joules/Mol)
                                  175.36375 (Kcal/Mol)
 Warning -- explicit consideration of  29 degrees of freedom as
           vibrations may cause significant error
 Vibrational temperatures:     52.00    53.81    72.26   101.59   145.02
          (Kelvin)            224.22   255.43   291.95   321.23   321.49
                              335.82   342.71   368.04   374.70   408.12
                              424.63   468.74   478.06   486.42   528.87
                              552.45   586.87   599.08   633.46   678.41
                              718.10   731.49   867.59   877.43   915.46
                              994.21  1031.06  1087.56  1168.00  1214.06
                             1253.15  1266.18  1293.53  1334.84  1338.81
                             1352.14  1374.41  1379.27  1405.83  1489.02
                             1500.47  1533.02  1551.06  1620.69  1689.38
                             1700.07  1746.02  1758.78  1792.73  1807.21
                             1822.55  1888.12  1963.85  1977.64  1987.24
                             2006.95  2022.65  2028.98  2030.14  2104.68
                             2115.53  2124.06  2125.60  2135.47  2137.10
                             2141.25  2142.99  2143.64  2151.22  2158.56
                             2169.91  2181.57  2330.92  4332.15  4334.57
                             4335.64  4344.71  4347.45  4412.28  4413.97
                             4414.63  4423.37  4433.71  4437.49  4444.64
                             4451.10  4464.36  4490.12  4495.67  4550.71
                             4578.79

 Zero-point correction=                           0.279460 (Hartree/Particle)
 Thermal correction to Energy=                    0.297152
 Thermal correction to Enthalpy=                  0.298096
 Thermal correction to Gibbs Free Energy=         0.233486
 Sum of electronic and zero-point Energies=          -1054.929173
 Sum of electronic and thermal Energies=             -1054.911481
 Sum of electronic and thermal Enthalpies=           -1054.910536
 Sum of electronic and thermal Free Energies=        -1054.975147

                     E (Thermal)             CV                S
                      KCal/Mol        Cal/Mol-Kelvin    Cal/Mol-Kelvin
 Total                  186.466             67.061            135.984
 Electronic               0.000              0.000              1.377
 Translational            0.889              2.981             42.304
 Rotational               0.889              2.981             33.030
 Vibrational            184.688             61.099             59.273
 Vibration     1          0.594              1.982              5.460
 Vibration     2          0.594              1.982              5.392
 Vibration     3          0.595              1.978              4.809
 Vibration     4          0.598              1.968              4.136
 Vibration     5          0.604              1.948              3.439
 Vibration     6          0.620              1.896              2.600
 Vibration     7          0.628              1.870              2.354
 Vibration     8          0.639              1.836              2.107
 Vibration     9          0.649              1.806              1.932
 Vibration    10          0.649              1.805              1.931
 Vibration    11          0.654              1.790              1.853
 Vibration    12          0.656              1.782              1.816
 Vibration    13          0.666              1.753              1.690
 Vibration    14          0.668              1.745              1.659
 Vibration    15          0.682              1.704              1.512
 Vibration    16          0.689              1.683              1.444
 Vibration    17          0.710              1.624              1.281
 Vibration    18          0.714              1.611              1.249
 Vibration    19          0.718              1.599              1.221
 Vibration    20          0.740              1.539              1.090
 Vibration    21          0.753              1.504              1.023
 Vibration    22          0.772              1.453              0.934
 Vibration    23          0.780              1.435              0.904
 Vibration    24          0.800              1.382              0.826
 Vibration    25          0.828              1.313              0.733
 Vibration    26          0.855              1.252              0.660
 Vibration    27          0.864              1.231              0.637
 Vibration    28          0.961              1.025              0.445
 Vibration    29          0.969              1.011              0.433

 Optimization completed.
    -- Stationary point found.
 Normal termination of Gaussian 16 at Sat Feb 10 12:42:31 2024.
