 Gaussian 16, Revision A.03,
 Gaussian 16:  ES64L-G16RevA.03 25-Dec-2016

 --------------------------------------
 #P UB3LYP/6-311++G(d,p) nosym opt freq
 --------------------------------------

 -------
 Reduced
 -------
 Symbolic Z-matrix:
 Charge = -2 Multiplicity = 1

 SCF Done:  E(UB3LYP) =  -1941.08523181     A.U. after   30 cycles
 SCF Done:  E(UB3LYP) =  -1941.11283323     A.U. after   19 cycles
 SCF Done:  E(UB3LYP) =  -1941.11898106     A.U. after   19 cycles
 SCF Done:  E(UB3LYP) =  -1941.11975181     A.U. after   19 cycles
 SCF Done:  E(UB3LYP) =  -1941.12094178     A.U. after   18 cycles
 SCF Done:  E(UB3LYP) =  -1941.12093598     A.U. after   18 cycles
 SCF Done:  E(UB3LYP) =  -1941.12121686     A.U. after   17 cycles
 SCF Done:  E(UB3LYP) =  -1941.12127243     A.U. after   16 cycles
 SCF Done:  E(UB3LYP) =  -1941.12122966     A.U. after   17 cycles
 SCF Done:  E(UB3LYP) =  -1941.12129140     A.U. after   15 cycles
 SCF Done:  E(UB3LYP) =  -1941.12129380     A.U. after   13 cycles
 SCF Done:  E(UB3LYP) =  -1941.12129395     A.U. after   13 cycles
 SCF Done:  E(UB3LYP) =  -1941.12129421     A.U. after   12 cycles
 Optimization completed.
    -- Stationary point found.
 Normal termination of Gaussian 16 at Wed Dec 20 05:44:56 2023.

 ----------------------------------------------------------------------
 #P Geom=AllCheck Guess=TCheck SCRF=Check GenChk UB3LYP/6-311++G(d,p) F
 req
 ----------------------------------------------------------------------

 Structure from the checkpoint file:  "072-an.chk"
 -------
 Reduced
 -------
 Charge = -2 Multiplicity = 1

                          Input orientation:
 ---------------------------------------------------------------------
 Center     Atomic      Atomic             Coordinates (Angstroms)
 Number     Number       Type             X           Y           Z
 ---------------------------------------------------------------------
      1          6           0        0.761875    1.139224   -1.526172
      2          6           0       -0.618891    0.892482   -1.792752
      3          6           0       -1.439934    0.149051   -0.940680
      4          6           0       -1.015693   -0.436644    0.314492
      5          6           0        0.366599   -0.195415    0.577855
      6          6           0        1.193474    0.527646   -0.286012
      7          8           0        1.511229    1.838668   -2.294924
      8          8           0       -1.780777   -1.080568    1.115672
      9         16           0        2.905210    0.696580    0.200458
     10          6           0        3.205702    2.481906    0.413060
     11          6           0        3.378293    3.308091   -0.700482
     12          6           0        3.281969    2.992363    1.708761
     13          6           0        3.542613    4.348628    1.899176
     14          6           0        3.634525    4.664248   -0.495489
     15          6           0        3.721383    5.187276    0.795844
     16          8           0        3.844136    0.229529   -0.838879
     17          8           0        3.076731    0.124367    1.560695
     18          1           0        3.246170    2.879116   -1.686540
     19          1           0        3.143022    2.317418    2.544546
     20          1           0        3.757302    5.317846   -1.354004
     21          1           0        3.604247    4.750028    2.906499
     22          1           0        3.919098    6.245430    0.943380
     23         16           0       -3.133957   -0.081025   -1.463319
     24          6           0       -4.177350    0.705427   -0.191924
     25          6           0       -4.764188    1.936611   -0.483666
     26          6           0       -4.399086    0.071389    1.033335
     27          6           0       -5.227073    0.692402    1.969057
     28          6           0       -5.592933    2.543767    0.458797
     29          6           0       -5.827317    1.920863    1.687468
     30          1           0       -1.029361    1.309073   -2.704111
     31          1           0        0.773944   -0.601330    1.495419
     32          1           0       -4.567371    2.393619   -1.445861
     33          1           0       -3.870130   -0.851603    1.239362
     34          1           0       -5.395461    0.214835    2.929735
     35          1           0       -6.053127    3.501799    0.235121
     36          1           0       -6.468630    2.396126    2.424628
     37          8           0       -3.528182   -1.502929   -1.514937
     38          8           0       -3.371250    0.722273   -2.690297
 ---------------------------------------------------------------------

 SCF Done:  E(UB3LYP) =  -1941.12129421     A.U. after    2 cycles

 Alpha  occ. eigenvalues --  -88.82414 -88.82412 -18.88936 -18.88934 -18.88805
 Alpha  occ. eigenvalues --  -18.88804 -18.80951 -18.80948 -10.01055 -10.01050
 Alpha  occ. eigenvalues --  -10.00988 -10.00982 -10.00788 -10.00781 -10.00371
 Alpha  occ. eigenvalues --  -10.00368 -10.00274 -10.00271  -9.99080  -9.99069
 Alpha  occ. eigenvalues --   -9.98098  -9.98095  -9.96113  -9.96107  -9.92966
 Alpha  occ. eigenvalues --   -9.92964  -7.88762  -7.88760  -5.85052  -5.85050
 Alpha  occ. eigenvalues --   -5.84965  -5.84963  -5.84824  -5.84822  -0.87831
 Alpha  occ. eigenvalues --   -0.87825  -0.77272  -0.77268  -0.73265  -0.72895
 Alpha  occ. eigenvalues --   -0.68486  -0.68483  -0.59810  -0.58617  -0.58237
 Alpha  occ. eigenvalues --   -0.57456  -0.57449  -0.54324  -0.48459  -0.47128
 Alpha  occ. eigenvalues --   -0.44423  -0.43402  -0.43361  -0.42185  -0.39143
 Alpha  occ. eigenvalues --   -0.36257  -0.35607  -0.34440  -0.32726  -0.29400
 Alpha  occ. eigenvalues --   -0.28320  -0.28271  -0.27650  -0.26839  -0.26628
 Alpha  occ. eigenvalues --   -0.25948  -0.25641  -0.25197  -0.24836  -0.24347
 Alpha  occ. eigenvalues --   -0.22706  -0.21878  -0.20018  -0.19821  -0.19562
 Alpha  occ. eigenvalues --   -0.19399  -0.19387  -0.17406  -0.17329  -0.16571
 Alpha  occ. eigenvalues --   -0.15585  -0.14705  -0.12425  -0.11893  -0.11363
 Alpha  occ. eigenvalues --   -0.10761  -0.09926  -0.09859  -0.09002  -0.08922
 Alpha  occ. eigenvalues --   -0.08137  -0.07945  -0.07933  -0.07794  -0.07055
 Alpha  occ. eigenvalues --   -0.06974  -0.02880  -0.02360   0.01136   0.01278
 Alpha  occ. eigenvalues --    0.08272
 Alpha virt. eigenvalues --    0.12561   0.12636   0.14341   0.14627   0.14691
 Alpha virt. eigenvalues --    0.15153   0.16081   0.16112   0.16322   0.16452
 Alpha virt. eigenvalues --    0.18944   0.19034   0.19733   0.20131   0.20241

  Beta  occ. eigenvalues --  -88.82414 -88.82412 -18.88936 -18.88934 -18.88805
  Beta  occ. eigenvalues --  -18.88804 -18.80951 -18.80948 -10.01055 -10.01050
  Beta  occ. eigenvalues --  -10.00988 -10.00982 -10.00788 -10.00781 -10.00371
  Beta  occ. eigenvalues --  -10.00368 -10.00274 -10.00271  -9.99080  -9.99069
  Beta  occ. eigenvalues --   -9.98098  -9.98095  -9.96113  -9.96107  -9.92966
  Beta  occ. eigenvalues --   -9.92964  -7.88762  -7.88760  -5.85052  -5.85050
  Beta  occ. eigenvalues --   -5.84965  -5.84963  -5.84824  -5.84822  -0.87831
  Beta  occ. eigenvalues --   -0.87825  -0.77272  -0.77268  -0.73265  -0.72895
  Beta  occ. eigenvalues --   -0.68486  -0.68483  -0.59810  -0.58617  -0.58237
  Beta  occ. eigenvalues --   -0.57456  -0.57449  -0.54324  -0.48459  -0.47128
  Beta  occ. eigenvalues --   -0.44423  -0.43402  -0.43361  -0.42185  -0.39143
  Beta  occ. eigenvalues --   -0.36257  -0.35607  -0.34440  -0.32726  -0.29400
  Beta  occ. eigenvalues --   -0.28320  -0.28271  -0.27650  -0.26839  -0.26628
  Beta  occ. eigenvalues --   -0.25948  -0.25641  -0.25197  -0.24836  -0.24347
  Beta  occ. eigenvalues --   -0.22706  -0.21878  -0.20018  -0.19821  -0.19562
  Beta  occ. eigenvalues --   -0.19399  -0.19387  -0.17406  -0.17329  -0.16571
  Beta  occ. eigenvalues --   -0.15585  -0.14705  -0.12425  -0.11893  -0.11363
  Beta  occ. eigenvalues --   -0.10761  -0.09926  -0.09859  -0.09002  -0.08922
  Beta  occ. eigenvalues --   -0.08137  -0.07945  -0.07933  -0.07794  -0.07055
  Beta  occ. eigenvalues --   -0.06974  -0.02880  -0.02360   0.01136   0.01278
  Beta  occ. eigenvalues --    0.08272
  Beta virt. eigenvalues --    0.12561   0.12636   0.14341   0.14627   0.14691
  Beta virt. eigenvalues --    0.15153   0.16081   0.16112   0.16322   0.16452
  Beta virt. eigenvalues --    0.18944   0.19034   0.19733   0.20131   0.20241

 Mulliken charges and spin densities:
               1          2
     1  C   -0.731349   0.000000
     2  C   -0.260064  -0.000000
     3  C    0.528357  -0.000000
     4  C   -0.728084  -0.000000
     5  C   -0.259552  -0.000000
     6  C    0.527427   0.000000
     7  O   -0.447438  -0.000000
     8  O   -0.447998  -0.000000
     9  S    0.079129   0.000000
    10  C    0.178446  -0.000000
    11  C   -0.262992   0.000000
    12  C    0.169786   0.000000
    13  C   -0.448158   0.000000
    14  C   -0.366094  -0.000000
    15  C   -0.259725  -0.000000
    16  O   -0.101562  -0.000000
    17  O   -0.233286   0.000000
    18  H    0.311012   0.000000
    19  H    0.232375   0.000000
    20  H    0.143217   0.000000
    21  H    0.129631   0.000000
    22  H    0.106705   0.000000
    23  S    0.078044  -0.000000
    24  C    0.172251   0.000000
    25  C    0.175601  -0.000000
    26  C   -0.268600  -0.000000
    27  C   -0.364239   0.000000
    28  C   -0.446076   0.000000
    29  C   -0.259281   0.000000
    30  H    0.231400   0.000000
    31  H    0.231132   0.000000
    32  H    0.232487  -0.000000
    33  H    0.311390  -0.000000
    34  H    0.143401  -0.000000
    35  H    0.129707  -0.000000
    36  H    0.106670   0.000000
    37  O   -0.100422   0.000000
    38  O   -0.233246   0.000000
 Sum of Mulliken charges =  -2.00000   0.00000

 Dipole moment (field-independent basis, Debye):
    X=              0.9377    Y=             -2.3949    Z=              6.3855  Tot=              6.8840
 Quadrupole moment (field-independent basis, Debye-Ang):
   XX=           -275.9875   YY=           -198.7752   ZZ=           -208.0935
   XY=            -19.6470   XZ=             -9.5922   YZ=              7.6456

  Exact polarizability: 494.030  56.937 307.890   1.372   2.800 288.920
 Approx polarizability: 646.222  43.928 513.157   8.325 -42.223 553.378

                      1                      2                      3
                      A                      A                      A
 Frequencies --     16.9370                20.8718                32.9126
 Red. masses --      5.7783                 5.9040                 5.1382
 Frc consts  --      0.0010                 0.0015                 0.0033
 IR Inten    --      0.3133                 0.4691                 1.8249

                      4                      5                      6
                      A                      A                      A
 Frequencies --     47.2072                55.0976                91.5922
 Red. masses --      6.2904                 5.7593                 6.1954
 Frc consts  --      0.0083                 0.0103                 0.0306
 IR Inten    --      1.8979                 0.6805                 4.4237

                      7                      8                      9
                      A                      A                      A
 Frequencies --     99.1484               127.8711               162.1306
 Red. masses --      6.4991                10.8284                 6.3288
 Frc consts  --      0.0376                 0.1043                 0.0980
 IR Inten    --      1.2122                 0.3365                 4.5914

                     10                     11                     12
                      A                      A                      A
 Frequencies --    169.8547               175.2769               178.2680
 Red. masses --      9.6390                 7.7616                 6.3506
 Frc consts  --      0.1638                 0.1405                 0.1189
 IR Inten    --      6.0600                 1.7904                 1.6946

                     13                     14                     15
                      A                      A                      A
 Frequencies --    182.4347               204.5536               249.4796
 Red. masses --      7.9872                 9.9719                 8.5949
 Frc consts  --      0.1566                 0.2458                 0.3152
 IR Inten    --      1.4012                 6.9724                 0.7886

                     16                     17                     18
                      A                      A                      A
 Frequencies --    258.5937               273.8485               278.1933
 Red. masses --      6.4612                11.5310                 8.3485
 Frc consts  --      0.2546                 0.5095                 0.3807
 IR Inten    --      3.1256                 0.4616                 7.6102

                     19                     20                     21
                      A                      A                      A
 Frequencies --    298.4853               298.5105               303.9969
 Red. masses --      8.7650                 9.5040                12.3063
 Frc consts  --      0.4601                 0.4990                 0.6701
 IR Inten    --      2.8100                 1.6753                 0.1137

                     22                     23                     24
                      A                      A                      A
 Frequencies --    376.5235               395.9370               414.1996
 Red. masses --      9.9624                 8.1103                 4.0388
 Frc consts  --      0.8321                 0.7491                 0.4082
 IR Inten    --      0.5590                 0.0691                 0.5825

                     25                     26                     27
                      A                      A                      A
 Frequencies --    416.1819               420.5777               431.0514
 Red. masses --      2.9382                 5.0160                 8.1745
 Frc consts  --      0.2998                 0.5228                 0.8949
 IR Inten    --      0.0152                 3.7371                 0.5516

                     28                     29                     30
                      A                      A                      A
 Frequencies --    442.7169               459.2487               481.2206
 Red. masses --      3.9786                 5.5167                 9.2565
 Frc consts  --      0.4594                 0.6855                 1.2629
 IR Inten    --      0.6112                 0.6788                 0.5337

                     31                     32                     33
                      A                      A                      A
 Frequencies --    490.2530               529.1422               547.3127
 Red. masses --      4.7540                 7.0817                12.0528
 Frc consts  --      0.6732                 1.1682                 2.1272
 IR Inten    --      1.7108                77.6654                26.3829

                     34                     35                     36
                      A                      A                      A
 Frequencies --    569.1937               596.9810               627.7159
 Red. masses --      7.9676                 9.6129                 6.3017
 Frc consts  --      1.5209                 2.0185                 1.4630
 IR Inten    --     14.3194               414.6940                 2.8390

                     37                     38                     39
                      A                      A                      A
 Frequencies --    628.2823               630.8950               682.1143
 Red. masses --      6.4428                 5.8089                 5.9369
 Frc consts  --      1.4984                 1.3622                 1.6275
 IR Inten    --     15.4394                 3.4963                 1.7248

                     40                     41                     42
                      A                      A                      A
 Frequencies --    689.7266               690.2566               696.9232
 Red. masses --      2.0186                 1.7337                 3.6446
 Frc consts  --      0.5658                 0.4867                 1.0430
 IR Inten    --     18.7278                91.6119                 1.2901

                     43                     44                     45
                      A                      A                      A
 Frequencies --    698.2414               715.6466               724.6416
 Red. masses --      3.9285                 4.4114                 7.7480
 Frc consts  --      1.1285                 1.3311                 2.3971
 IR Inten    --     12.7219                42.5279                18.9662

                     46                     47                     48
                      A                      A                      A
 Frequencies --    750.8704               751.6811               828.4884
 Red. masses --      1.9818                 1.9821                 1.7358
 Frc consts  --      0.6583                 0.6598                 0.7020
 IR Inten    --      2.9532                 9.2390                34.7260

                     49                     50                     51
                      A                      A                      A
 Frequencies --    831.3784               836.1295               848.0403
 Red. masses --      1.2701                 2.7307                 1.7363
 Frc consts  --      0.5172                 1.1248                 0.7357
 IR Inten    --      0.4890                15.4634                 6.4580

                     52                     53                     54
                      A                      A                      A
 Frequencies --    867.0117               906.2045               906.9008
 Red. masses --      1.5350                 1.4239                 1.4326
 Frc consts  --      0.6799                 0.6889                 0.6942
 IR Inten    --     32.4237                 4.5191                 1.9933

                     55                     56                     57
                      A                      A                      A
 Frequencies --    921.4489               963.1827               965.0357
 Red. masses --      9.1732                 1.3797                 1.3424
 Frc consts  --      4.5889                 0.7541                 0.7366
 IR Inten    --     23.4466                 7.7811                 1.9824

                     58                     59                     60
                      A                      A                      A
 Frequencies --    972.7859               973.2756               989.6462
 Red. masses --      1.3136                 1.3165                 2.5477
 Frc consts  --      0.7324                 0.7347                 1.4702
 IR Inten    --      0.5026                 0.7882                 8.4485

                     61                     62                     63
                      A                      A                      A
 Frequencies --   1009.3051              1010.5497              1037.0673
 Red. masses --      5.6222                 5.6649                 4.4956
 Frc consts  --      3.3744                 3.4085                 2.8488
 IR Inten    --    112.7086                 6.5799               111.3718

                     64                     65                     66
                      A                      A                      A
 Frequencies --   1037.5922              1049.5185              1053.4158
 Red. masses --      4.5574                 3.4023                 3.5387
 Frc consts  --      2.8908                 2.2080                 2.3136
 IR Inten    --     75.7443               369.6332                46.2572

                     67                     68                     69
                      A                      A                      A
 Frequencies --   1088.1431              1090.5094              1092.4990
 Red. masses --      2.3185                 1.7177                 2.0861
 Frc consts  --      1.6174                 1.2035                 1.4670
 IR Inten    --    175.8480                29.4889                65.7410

                     70                     71                     72
                      A                      A                      A
 Frequencies --   1094.2638              1161.1849              1168.4394
 Red. masses --      3.4421                 9.5949                 1.1102
 Frc consts  --      2.4284                 7.6224                 0.8930
 IR Inten    --     44.8232                47.5346                 0.1557

                     73                     74                     75
                      A                      A                      A
 Frequencies --   1168.4738              1191.4172              1192.2705
 Red. masses --      1.1155                 1.2062                 1.1947
 Frc consts  --      0.8973                 1.0088                 1.0006
 IR Inten    --      1.2569                 5.8083                 1.7652

                     76                     77                     78
                      A                      A                      A
 Frequencies --   1203.0015              1204.9864              1225.1357
 Red. masses --      9.6736                15.0396                 1.3378
 Frc consts  --      8.2484                12.8662                 1.1831
 IR Inten    --    122.9902               179.5704                 0.1627

                     79                     80                     81
                      A                      A                      A
 Frequencies --   1269.7881              1327.9440              1328.7141
 Red. masses --      3.1073                 2.5074                 2.6093
 Frc consts  --      2.9519                 2.6052                 2.7142
 IR Inten    --     81.7495                 1.9191                 1.4210

                     82                     83                     84
                      A                      A                      A
 Frequencies --   1344.6220              1345.5108              1389.6036
 Red. masses --      2.0944                 1.9727                 8.5691
 Frc consts  --      2.2310                 2.1042                 9.7491
 IR Inten    --      1.3169                 6.5438                 9.1542

                     85                     86                     87
                      A                      A                      A
 Frequencies --   1396.3979              1419.3275              1463.8333
 Red. masses --      3.2728                 8.4787                 2.1964
 Frc consts  --      3.7600                10.0633                 2.7730
 IR Inten    --    199.0853                 0.5476                23.9970

                     88                     89                     90
                      A                      A                      A
 Frequencies --   1464.1274              1478.3074              1500.4934
 Red. masses --      2.1788                 6.0184                 1.9965
 Frc consts  --      2.7518                 7.7493                 2.6484
 IR Inten    --      7.1118               935.8097                 8.0512

                     91                     92                     93
                      A                      A                      A
 Frequencies --   1501.6429              1587.7840              1606.5149
 Red. masses --      2.0663                 6.4795                 5.6719
 Frc consts  --      2.7452                 9.6243                 8.6248
 IR Inten    --     22.0997                41.1641                30.3741

                     94                     95                     96
                      A                      A                      A
 Frequencies --   1607.3738              1608.2841              1614.8494
 Red. masses --      5.6124                 5.1133                 5.6523
 Frc consts  --      8.5435                 7.7926                 8.6844
 IR Inten    --     21.6522               172.1590                 1.6920

                     97                     98                     99
                      A                      A                      A
 Frequencies --   3127.5487              3127.6327              3145.3464
 Red. masses --      1.0837                 1.0837                 1.0893
 Frc consts  --      6.2455                 6.2458                 6.3496
 IR Inten    --      3.3802                 3.1459                44.7293

                    100                    101                    102
                      A                      A                      A
 Frequencies --   3145.4494              3158.1294              3158.3206
 Red. masses --      1.0893                 1.0951                 1.0950
 Frc consts  --      6.3501                 6.4353                 6.4357
 IR Inten    --     52.2572                77.9276                72.6181

                    103                    104                    105
                      A                      A                      A
 Frequencies --   3186.7380              3188.9496              3189.7178
 Red. masses --      1.0936                 1.0934                 1.0877
 Frc consts  --      6.5436                 6.5516                 6.5200
 IR Inten    --     26.8176                27.0544                12.3948

                    106                    107                    108
                      A                      A                      A
 Frequencies --   3191.6749              3192.6401              3192.8233
 Red. masses --      1.0887                 1.0917                 1.0916
 Frc consts  --      6.5341                 6.5559                 6.5563
 IR Inten    --      2.8005                 6.1764                 8.7456

 - Thermochemistry -
 -------------------
 Temperature   298.150 Kelvin.  Pressure   1.00000 Atm.
 Atom     1 has atomic number  6 and mass  12.00000

 Molecular mass:   388.00753 amu.
 Principal axes and moments of inertia in atomic units:
                           1         2         3
     Eigenvalues --  5486.70131********************
           X            0.96741  -0.24183   0.07510
           Y            0.24756   0.84083  -0.48138
           Z            0.05326   0.48428   0.87329
 This molecule is an asymmetric top.
 Rotational symmetry number  1.
 Warning -- assumption of classical behavior for rotation
           may cause significant error
 Rotational temperatures (Kelvin)      0.01579     0.00466     0.00440
 Rotational constants (GHZ):           0.32893     0.09708     0.09161
 Zero-point vibrational energy     685042.7 (Joules/Mol)
                                  163.72913 (Kcal/Mol)
 Warning -- explicit consideration of  35 degrees of freedom as
           vibrations may cause significant error
 Vibrational temperatures:     24.37    30.03    47.35    67.92    79.27
          (Kelvin)            131.78   142.65   183.98   233.27   244.38
                              252.18   256.49   262.48   294.31   358.95
                              372.06   394.01   400.26   429.45   429.49
                              437.38   541.73   569.67   595.94   598.79
                              605.12   620.19   636.97   660.76   692.37
                              705.36   761.32   787.46   818.94   858.92
                              903.14   903.96   907.72   981.41   992.36
                              993.13  1002.72  1004.61  1029.66  1042.60
                             1080.34  1081.50  1192.01  1196.17  1203.00
                             1220.14  1247.44  1303.83  1304.83  1325.76
                             1385.81  1388.47  1399.62  1400.33  1423.88
                             1452.16  1453.96  1492.11  1492.86  1510.02
                             1515.63  1565.60  1569.00  1571.86  1574.40
                             1670.69  1681.12  1681.17  1714.18  1715.41
                             1730.85  1733.71  1762.70  1826.94  1910.62
                             1911.72  1934.61  1935.89  1999.33  2009.11
                             2042.10  2106.13  2106.55  2126.95  2158.88
                             2160.53  2284.47  2311.42  2312.65  2313.96
                             2323.41  4499.85  4499.97  4525.45  4525.60
                             4543.84  4544.12  4585.01  4588.19  4589.29
                             4592.11  4593.50  4593.76

 Zero-point correction=                           0.260919 (Hartree/Particle)
 Thermal correction to Energy=                    0.283153
 Thermal correction to Enthalpy=                  0.284097
 Thermal correction to Gibbs Free Energy=         0.207574
 Sum of electronic and zero-point Energies=          -1940.860375
 Sum of electronic and thermal Energies=             -1940.838142
 Sum of electronic and thermal Enthalpies=           -1940.837197
 Sum of electronic and thermal Free Energies=        -1940.913720

                     E (Thermal)             CV                S
                      KCal/Mol        Cal/Mol-Kelvin    Cal/Mol-Kelvin
 Total                  177.681             86.500            161.055
 Electronic               0.000              0.000              0.000
 Translational            0.889              2.981             43.760
 Rotational               0.889              2.981             35.951
 Vibrational            175.904             80.538             81.345
 Vibration     1          0.593              1.986              6.964
 Vibration     2          0.593              1.986              6.549
 Vibration     3          0.594              1.983              5.646
 Vibration     4          0.595              1.979              4.931
 Vibration     5          0.596              1.976              4.625
 Vibration     6          0.602              1.955              3.626
 Vibration     7          0.604              1.950              3.471
 Vibration     8          0.611              1.925              2.978
 Vibration     9          0.622              1.889              2.525
 Vibration    10          0.625              1.880              2.437
 Vibration    11          0.627              1.873              2.378
 Vibration    12          0.629              1.869              2.346
 Vibration    13          0.630              1.864              2.303
 Vibration    14          0.640              1.833              2.092
 Vibration    15          0.662              1.764              1.734
 Vibration    16          0.667              1.748              1.671
 Vibration    17          0.676              1.722              1.572
 Vibration    18          0.679              1.714              1.545
 Vibration    19          0.692              1.677              1.425
 Vibration    20          0.692              1.676              1.425
 Vibration    21          0.695              1.666              1.395
 Vibration    22          0.747              1.520              1.053
 Vibration    23          0.763              1.479              0.978
 Vibration    24          0.778              1.439              0.912
 Vibration    25          0.779              1.435              0.905
 Vibration    26          0.783              1.426              0.890
 Vibration    27          0.792              1.403              0.855
 Vibration    28          0.802              1.377              0.818
 Vibration    29          0.817              1.340              0.768
 Vibration    30          0.838              1.292              0.707
 Vibration    31          0.846              1.272              0.683
 Vibration    32          0.884              1.186              0.589
 Vibration    33          0.903              1.146              0.550
 Vibration    34          0.925              1.098              0.506
 Vibration    35          0.955              1.038              0.455

                           ! Non-Optimized Parameters !
 Normal termination of Gaussian 16 at Wed Dec 20 12:43:35 2023.
