 Q-Chem 5.4, Q-Chem, Inc., Pleasanton, CA (2021)
 Q-Chem 5.4.0 for Intel X86 EM64T Linux

User input:
--------------------------------------------------------------
$molecule
0 1
C                  2.7881340000      3.5993300000      4.1674500000
C                  3.8121040000      2.8068570000      3.4465910000
C                  3.4743800000      1.7929260000      2.6424820000
C                  2.0498180000      1.4147860000      2.4353420000
C                  1.3467110000      3.2195950000      3.9603630000
C                  1.0232930000      2.1926540000      3.1444000000
O                  3.1006080000      4.5210280000      4.8983550000
O                  1.7566290000      0.4850260000      1.6963170000
S                  0.2395470000      4.2463290000      4.8786180000
C                 -1.3609950000      3.5599650000      4.4320260000
C                 -1.9293450000      2.5517640000      5.2153300000
C                 -2.0624160000      4.0818290000      3.3417840000
C                 -3.3276040000      3.5862400000      3.0318800000
C                 -3.1949130000      2.0610520000      4.8994850000
C                 -3.8933730000      2.5761300000      3.8084120000
H                  4.8394180000      3.1080030000      3.6190440000
H                  4.2071640000      1.2004340000      2.1060420000
H                 -0.0014390000      1.8892700000      2.9698050000
H                 -1.3842240000      2.1590100000      6.0653120000
H                 -1.6201630000      4.8706520000      2.7450790000
H                 -3.8703750000      3.9917730000      2.1857430000
H                 -3.6343350000      1.2786600000      5.5075610000
H                 -4.8782730000      2.1936970000      3.5660680000
$end
$rem
MAX_SCF_CYCLES=200
BASIS  =  6-311++G(d,p)
GUI  =  2
JOB_TYPE  =  SP
METHOD  =  B3LYP
SOLVENT_METHOD = PCM
$end
$pcm
theory = CPCM
$end
$solvent
dielectric 37.219
opticaldielectric 1.43
$end

--------------------------------------------------------------

             Standard Nuclear Orientation (Angstroms)
    I     Atom           X                Y                Z
 ----------------------------------------------------------------
    1      C       2.7881340000     3.5993300000     4.1674500000
    2      C       3.8121040000     2.8068570000     3.4465910000
    3      C       3.4743800000     1.7929260000     2.6424820000
    4      C       2.0498180000     1.4147860000     2.4353420000
    5      C       1.3467110000     3.2195950000     3.9603630000
    6      C       1.0232930000     2.1926540000     3.1444000000
    7      O       3.1006080000     4.5210280000     4.8983550000
    8      O       1.7566290000     0.4850260000     1.6963170000
    9      S       0.2395470000     4.2463290000     4.8786180000
   10      C      -1.3609950000     3.5599650000     4.4320260000
   11      C      -1.9293450000     2.5517640000     5.2153300000
   12      C      -2.0624160000     4.0818290000     3.3417840000
   13      C      -3.3276040000     3.5862400000     3.0318800000
   14      C      -3.1949130000     2.0610520000     4.8994850000
   15      C      -3.8933730000     2.5761300000     3.8084120000
   16      H       4.8394180000     3.1080030000     3.6190440000
   17      H       4.2071640000     1.2004340000     2.1060420000
   18      H      -0.0014390000     1.8892700000     2.9698050000
   19      H      -1.3842240000     2.1590100000     6.0653120000
   20      H      -1.6201630000     4.8706520000     2.7450790000
   21      H      -3.8703750000     3.9917730000     2.1857430000
   22      H      -3.6343350000     1.2786600000     5.5075610000
   23      H      -4.8782730000     2.1936970000     3.5660680000
 ----------------------------------------------------------------

    9   -1010.9009520433      6.62e-06  Convergence criterion met
 Total energy in the final basis set =    -1010.9009520433

                    Orbital Energies (a.u.)
 --------------------------------------------------------------

 Alpha MOs
 -- Occupied --
-88.8832 -19.1522 -19.1401 -10.2994 -10.2864 -10.2480 -10.2210 -10.2138
-10.2127 -10.2040 -10.1929 -10.1929 -10.1884 -10.1876 -10.1874  -7.9688
 -5.9325  -5.9285  -5.9233  -1.0853  -1.0698  -0.8867  -0.8693  -0.8250
 -0.7798  -0.7641  -0.7342  -0.7017  -0.6428  -0.6227  -0.6096  -0.5912
 -0.5373  -0.5241  -0.5139  -0.4874  -0.4734  -0.4669  -0.4587  -0.4572
 -0.4473  -0.4390  -0.4368  -0.4253  -0.4096  -0.3998  -0.3786  -0.3629
 -0.3475  -0.3403  -0.3135  -0.3003  -0.2859  -0.2731  -0.2706  -0.2517

          Ground-State Mulliken Net Atomic Charges

     Atom                 Charge (a.u.)
  ----------------------------------------
      1 C                    -0.732223
      2 C                     0.034268
      3 C                     0.186078
      4 C                    -0.330111
      5 C                     0.325352
      6 C                    -0.207883
      7 O                    -0.248595
      8 O                    -0.312250
      9 S                    -0.036404
     10 C                     1.190384
     11 C                    -0.336141
     12 C                    -0.336287
     13 C                    -0.408239
     14 C                    -0.408329
     15 C                    -0.300061
     16 H                     0.259288
     17 H                     0.267583
     18 H                     0.272985
     19 H                     0.236432
     20 H                     0.236403
     21 H                     0.219658
     22 H                     0.219784
     23 H                     0.208307
  ----------------------------------------
  Sum of atomic charges =     0.000000

                    Cartesian Multipole Moments
 -----------------------------------------------------------------
    Charge (ESU x 10^10)
                 0.0000
    Dipole Moment (Debye)
         X      -2.2973      Y      -0.4724      Z      -0.2224
       Tot       2.3559
    Quadrupole Moments (Debye-Ang)
        XX     -74.2590     XY      -9.5344     YY    -109.0399
        XZ     -11.9928     YZ     -17.7738     ZZ    -101.2664

 Total job time:  75.70s(wall), 229.45s(cpu)
        *  Thank you very much for using Q-Chem.  Have a nice day.  *
