 Gaussian 16, Revision A.03,
 Gaussian 16:  ES64L-G16RevA.03 25-Dec-2016

 ----------------------------------------------------------------
 #P UB3LYP/6-311++G(d,p) SCRF=(PCM,Solvent=n,n-DiMethylFormamide)
 ----------------------------------------------------------------

 ------------------
 Radical PCM in DMF
 ------------------
 Symbolic Z-matrix:
 Charge = -1 Multiplicity = 2

                         Standard orientation:
 ---------------------------------------------------------------------
 Center     Atomic      Atomic             Coordinates (Angstroms)
 Number     Number       Type             X           Y           Z
 ---------------------------------------------------------------------
      1          6           0        1.171927   -0.092219    1.217800
      2          6           0        2.489436   -0.129552    1.854898
      3          6           0        3.651904   -0.075604    1.157413
      4          6           0        3.677232    0.025315   -0.298793
      5          6           0        2.390997    0.064027   -0.934303
      6          6           0        1.181597    0.011195   -0.243860
      7          8           0        0.135073   -0.148967    1.917026
      8          8           0        4.764657    0.074474   -0.938540
      9          6           0       -1.432328    0.026164   -0.389272
     10          6           0       -2.090254   -1.204075   -0.234872
     11          6           0       -2.083493    1.231129   -0.082305
     12          6           0       -3.399162    1.188184    0.385703
     13          6           0       -3.405878   -1.212644    0.234748
     14          6           0       -4.062267   -0.025101    0.545060
     15          1           0        2.479530   -0.205150    2.938572
     16          1           0        4.615519   -0.105817    1.659195
     17          1           0        2.369674    0.139632   -2.015608
     18          1           0       -3.904761    2.117975    0.630363
     19          1           0       -3.916654   -2.162915    0.361579
     20          1           0       -5.084392   -0.045163    0.910016
     21          6           0       -0.058421    0.063959   -1.038806
     22          8           0       -0.043710    0.143871   -2.269474
     23          6           0       -1.367476    2.553360   -0.224893
     24          1           0       -0.971669    2.687027   -1.235394
     25          1           0       -0.521034    2.611036    0.466629
     26          1           0       -2.040817    3.386281   -0.006821
     27          6           0       -1.380094   -2.501854   -0.538595
     28          1           0       -0.539167   -2.649891    0.146196
     29          1           0       -0.977826   -2.509946   -1.555318
     30          1           0       -2.058885   -3.351799   -0.431048
 ---------------------------------------------------------------------

 SCF Done:  E(UB3LYP) =  -804.847952767     A.U. after   19 cycles

 The electronic state is 2-A.
 Alpha  occ. eigenvalues --  -19.10924 -19.08862 -19.08790 -10.26030 -10.23835
 Alpha  occ. eigenvalues --  -10.22918 -10.18252 -10.18246 -10.17780 -10.17766
 Alpha  occ. eigenvalues --  -10.17713 -10.17545 -10.17484 -10.17072 -10.16785
 Alpha  occ. eigenvalues --  -10.16779 -10.16274 -10.16267  -1.03972  -1.01441
 Alpha  occ. eigenvalues --   -1.00853  -0.86331  -0.83264  -0.78322  -0.77289
 Alpha  occ. eigenvalues --   -0.75844  -0.70495  -0.69133  -0.67949  -0.64361
 Alpha  occ. eigenvalues --   -0.60273  -0.58815  -0.57455  -0.54057  -0.49756
 Alpha  occ. eigenvalues --   -0.48217  -0.48116  -0.47612  -0.45983  -0.44052
 Alpha  occ. eigenvalues --   -0.43266  -0.42192  -0.42164  -0.41635  -0.41419
 Alpha  occ. eigenvalues --   -0.41298  -0.40387  -0.40124  -0.38896  -0.38758
 Alpha  occ. eigenvalues --   -0.37777  -0.37224  -0.36918  -0.35130  -0.34529
 Alpha  occ. eigenvalues --   -0.33803  -0.29029  -0.27315  -0.27063  -0.25290
 Alpha  occ. eigenvalues --   -0.24566  -0.24289  -0.23080  -0.17640
 Alpha virt. eigenvalues --   -0.06523  -0.01337  -0.00740  -0.00332   0.00578
 Alpha virt. eigenvalues --    0.00764   0.01125   0.01437   0.01965   0.03150
 Alpha virt. eigenvalues --    0.03420   0.03549   0.03968   0.04776   0.04965

  Beta  occ. eigenvalues --  -19.10833 -19.08235 -19.08093 -10.25998 -10.23777
  Beta  occ. eigenvalues --  -10.22825 -10.18251 -10.18245 -10.17782 -10.17700
  Beta  occ. eigenvalues --  -10.17678 -10.17386 -10.17241 -10.17072 -10.16785
  Beta  occ. eigenvalues --  -10.16778 -10.16273 -10.16266  -1.03802  -1.00490
  Beta  occ. eigenvalues --   -0.99505  -0.86321  -0.82650  -0.78320  -0.77165
  Beta  occ. eigenvalues --   -0.75641  -0.70189  -0.68395  -0.67946  -0.64091
  Beta  occ. eigenvalues --   -0.60095  -0.58452  -0.57447  -0.53892  -0.49548
  Beta  occ. eigenvalues --   -0.48060  -0.48032  -0.47275  -0.45825  -0.43902
  Beta  occ. eigenvalues --   -0.43109  -0.42142  -0.41553  -0.41476  -0.40718
  Beta  occ. eigenvalues --   -0.40702  -0.40311  -0.40111  -0.38391  -0.37657
  Beta  occ. eigenvalues --   -0.37124  -0.36681  -0.35606  -0.35116  -0.34512
  Beta  occ. eigenvalues --   -0.33752  -0.27120  -0.26365  -0.25604  -0.24790
  Beta  occ. eigenvalues --   -0.24271  -0.24186  -0.22816
  Beta virt. eigenvalues --   -0.10648  -0.05114  -0.01331  -0.00729  -0.00319
  Beta virt. eigenvalues --    0.00594   0.01006   0.01447   0.01991   0.02280
  Beta virt. eigenvalues --    0.03262   0.03433   0.03572   0.04792   0.04840

 Mulliken charges and spin densities:
               1          2
     1  C   -0.983536   0.004085
     2  C   -0.200213   0.100675
     3  C   -0.003797   0.001909
     4  C   -0.546676   0.121836
     5  C   -0.173552   0.129790
     6  C    1.091560   0.118194
     7  O   -0.290741   0.205852
     8  O   -0.473184   0.271048
     9  C    0.849829  -0.018692
    10  C    0.249045   0.003301
    11  C    0.253101   0.003481
    12  C   -0.313565   0.000879
    13  C   -0.309921   0.001244
    14  C   -0.305224  -0.001486
    15  H    0.202843  -0.006617
    16  H    0.202801  -0.001996
    17  H    0.218542  -0.016519
    18  H    0.157354   0.000043
    19  H    0.157080   0.000062
    20  H    0.188275   0.000032
    21  C   -0.547577   0.045948
    22  O   -0.309826   0.034391
    23  C   -0.569466   0.001139
    24  H    0.176351  -0.000168
    25  H    0.174039   0.000265
    26  H    0.159466   0.000074
    27  C   -0.563632   0.001226
    28  H    0.175182   0.000109
    29  H    0.175862  -0.000193
    30  H    0.159582   0.000090
 Sum of Mulliken charges =  -1.00000   1.00000

 Dipole moment (field-independent basis, Debye):
    X=             -8.7888    Y=             -0.1697    Z=              2.9552  Tot=              9.2739
 Quadrupole moment (field-independent basis, Debye-Ang):
   XX=           -157.2572   YY=           -102.3686   ZZ=           -129.4971
   XY=             -0.9721   XZ=             12.4461   YZ=              1.8615

 Normal termination of Gaussian 16 at Wed Jan 24 22:55:11 2024.
