 Gaussian 16, Revision A.03,
 Gaussian 16:  ES64L-G16RevA.03 25-Dec-2016

 ----------------------------------------------------------------
 #P UB3LYP/6-311++G(d,p) SCRF=(PCM,Solvent=n,n-DiMethylFormamide)
 ----------------------------------------------------------------

 ------------------
 Radical PCM in DMF
 ------------------
 Symbolic Z-matrix:
 Charge = -1 Multiplicity = 2

                         Standard orientation:
 ---------------------------------------------------------------------
 Center     Atomic      Atomic             Coordinates (Angstroms)
 Number     Number       Type             X           Y           Z
 ---------------------------------------------------------------------
      1         35           0       -2.095068    2.576451   -0.108818
      2          6           0       -0.919339    1.043053   -0.017861
      3          6           0       -1.419150   -0.235264    0.002128
      4          6           0       -0.496502   -1.381571   -0.027046
      5          8           0       -0.916564   -2.557835   -0.054506
      6          6           0        0.919123   -1.042605   -0.017687
      7          6           0        1.418876    0.235725    0.002775
      8          6           0        0.496354    1.381987   -0.026509
      9          8           0        0.916457    2.558244   -0.053633
     10          6           0        2.870524    0.562498    0.051368
     11          6           0        3.469565    1.304389   -0.974281
     12          6           0        4.824344    1.622633   -0.927552
     13          6           0        5.604439    1.222525    0.157215
     14          6           0        5.014894    0.500506    1.193709
     15          6           0        3.661549    0.173961    1.138940
     16         35           0        2.095124   -2.575800   -0.108437
     17          6           0       -2.870699   -0.562314    0.050856
     18          6           0       -3.469410   -1.305658   -0.973967
     19          6           0       -4.823921   -1.624924   -0.926631
     20          6           0       -5.604121   -1.224355    0.157887
     21          6           0       -5.014956   -0.500728    1.193478
     22          6           0       -3.661888   -0.173201    1.138130
     23          1           0        2.862521    1.637909   -1.806406
     24          1           0        5.269679    2.193455   -1.736126
     25          1           0        6.659061    1.475658    0.196654
     26          1           0        5.608386    0.190006    2.047726
     27          1           0        3.208987   -0.388403    1.947024
     28          1           0       -2.862279   -1.639675   -1.805814
     29          1           0       -5.268948   -2.196987   -1.734497
     30          1           0       -6.658508   -1.478375    0.197842
     31          1           0       -5.608514   -0.189807    2.047301
     32          1           0       -3.209584    0.390224    1.945607
 ---------------------------------------------------------------------

 SCF Done:  E(UB3LYP) =  -5991.02660092     A.U. after   22 cycles

 The electronic state is 2-A.
 Alpha  occ. eigenvalues -- -482.82490-482.82490 -62.47769 -62.47769 -56.29795
 Alpha  occ. eigenvalues --  -56.29794 -56.29436 -56.29436 -56.29397 -56.29397
 Alpha  occ. eigenvalues --  -19.09031 -19.09030 -10.24337 -10.24335 -10.22738
 Alpha  occ. eigenvalues --  -10.22736 -10.19683 -10.19682 -10.18993 -10.18992
 Alpha  occ. eigenvalues --  -10.17740 -10.17740 -10.17721 -10.17721 -10.17666
 Alpha  occ. eigenvalues --  -10.17665 -10.17646 -10.17645 -10.17609 -10.17608
 Alpha  occ. eigenvalues --   -8.68737  -8.68736  -6.51841  -6.51841  -6.50647
 Alpha  occ. eigenvalues --   -6.50647  -6.50535  -6.50535  -2.62942  -2.62942
 Alpha  occ. eigenvalues --   -2.62620  -2.62620  -2.62536  -2.62535  -2.61584
 Alpha  occ. eigenvalues --   -2.61584  -2.61583  -2.61582  -1.02233  -1.01962
 Alpha  occ. eigenvalues --   -0.87406  -0.86742  -0.84905  -0.82312  -0.77874
 Alpha  occ. eigenvalues --   -0.77422  -0.75365  -0.75048  -0.75028  -0.71129
 Alpha  occ. eigenvalues --   -0.68205  -0.63985  -0.61125  -0.61024  -0.59866
 Alpha  occ. eigenvalues --   -0.57173  -0.56783  -0.52520  -0.51526  -0.50910
 Alpha  occ. eigenvalues --   -0.47442  -0.46603  -0.46285  -0.45656  -0.44406
 Alpha  occ. eigenvalues --   -0.43569  -0.42855  -0.42443  -0.42175  -0.42072
 Alpha  occ. eigenvalues --   -0.40809  -0.40526  -0.39407  -0.38593  -0.37281
 Alpha  occ. eigenvalues --   -0.36645  -0.35496  -0.35405  -0.34950  -0.34850
 Alpha  occ. eigenvalues --   -0.33010  -0.32060  -0.29323  -0.28957  -0.28066
 Alpha  occ. eigenvalues --   -0.26973  -0.26479  -0.26135  -0.25564  -0.25273
 Alpha  occ. eigenvalues --   -0.24312  -0.23771  -0.17293
 Alpha virt. eigenvalues --   -0.04324  -0.02102  -0.01806  -0.01622  -0.01559
 Alpha virt. eigenvalues --   -0.01120  -0.00388   0.00187   0.00453   0.01356
 Alpha virt. eigenvalues --    0.01493   0.01706   0.01909   0.02748   0.03039

  Beta  occ. eigenvalues -- -482.82489-482.82489 -62.47768 -62.47768 -56.29796
  Beta  occ. eigenvalues --  -56.29796 -56.29432 -56.29432 -56.29397 -56.29397
  Beta  occ. eigenvalues --  -19.08349 -19.08349 -10.24213 -10.24212 -10.22625
  Beta  occ. eigenvalues --  -10.22624 -10.19560 -10.19558 -10.19005 -10.19004
  Beta  occ. eigenvalues --  -10.17734 -10.17734 -10.17712 -10.17712 -10.17663
  Beta  occ. eigenvalues --  -10.17662 -10.17643 -10.17643 -10.17603 -10.17603
  Beta  occ. eigenvalues --   -8.68736  -8.68735  -6.51845  -6.51845  -6.50640
  Beta  occ. eigenvalues --   -6.50640  -6.50535  -6.50535  -2.62944  -2.62943
  Beta  occ. eigenvalues --   -2.62618  -2.62618  -2.62538  -2.62538  -2.61580
  Beta  occ. eigenvalues --   -2.61580  -2.61579  -2.61579  -1.01079  -1.00775
  Beta  occ. eigenvalues --   -0.87160  -0.86695  -0.84621  -0.82174  -0.77768
  Beta  occ. eigenvalues --   -0.77229  -0.75245  -0.75035  -0.75010  -0.70959
  Beta  occ. eigenvalues --   -0.67359  -0.63783  -0.61085  -0.60999  -0.59793
  Beta  occ. eigenvalues --   -0.56997  -0.56373  -0.52482  -0.51417  -0.50701
  Beta  occ. eigenvalues --   -0.47226  -0.46533  -0.46053  -0.45580  -0.44250
  Beta  occ. eigenvalues --   -0.43237  -0.42497  -0.42419  -0.41807  -0.41088
  Beta  occ. eigenvalues --   -0.40313  -0.40312  -0.38441  -0.37294  -0.36862
  Beta  occ. eigenvalues --   -0.36504  -0.35378  -0.35305  -0.34907  -0.34783
  Beta  occ. eigenvalues --   -0.32418  -0.30690  -0.29256  -0.28930  -0.26788
  Beta  occ. eigenvalues --   -0.26658  -0.26232  -0.25795  -0.24953  -0.24888
  Beta  occ. eigenvalues --   -0.23782  -0.23347
  Beta virt. eigenvalues --   -0.10343  -0.03588  -0.01940  -0.01706  -0.01529
  Beta virt. eigenvalues --   -0.01506  -0.01030  -0.00075   0.00196   0.00963
  Beta virt. eigenvalues --    0.01378   0.01614   0.01721   0.02773   0.03046

 Mulliken charges and spin densities:
               1          2
     1  Br  -0.125190   0.004313
     2  C   -0.435872   0.062852
     3  C    0.940145   0.105059
     4  C   -1.052843   0.078592
     5  O   -0.349035   0.251694
     6  C   -0.436307   0.062877
     7  C    0.938253   0.105164
     8  C   -1.053859   0.078610
     9  O   -0.349135   0.251702
    10  C    1.186604  -0.042088
    11  C   -0.065216   0.022270
    12  C   -0.325204  -0.002318
    13  C   -0.375422   0.005385
    14  C   -0.424829  -0.002911
    15  C   -0.478486   0.019283
    16  Br  -0.125224   0.004315
    17  C    1.187283  -0.041989
    18  C   -0.064170   0.022282
    19  C   -0.325267  -0.002321
    20  C   -0.375111   0.005421
    21  C   -0.425406  -0.002931
    22  C   -0.479856   0.019254
    23  H    0.225414  -0.001673
    24  H    0.194853   0.000415
    25  H    0.180972  -0.000406
    26  H    0.196863   0.000267
    27  H    0.209008  -0.000858
    28  H    0.225420  -0.001679
    29  H    0.194843   0.000416
    30  H    0.180990  -0.000407
    31  H    0.196831   0.000268
    32  H    0.208952  -0.000858
 Sum of Mulliken charges =  -1.00000   1.00000

 Dipole moment (field-independent basis, Debye):
    X=              0.0008    Y=             -0.0029    Z=              0.3946  Tot=              0.3946
 Quadrupole moment (field-independent basis, Debye-Ang):
   XX=           -153.9992   YY=           -196.5827   ZZ=           -148.8598
   XY=             -0.7545   XZ=             -0.0083   YZ=             -0.0012

 Normal termination of Gaussian 16 at Sun Jan 21 07:18:25 2024.
