 Gaussian 16, Revision A.03,
 Gaussian 16:  ES64L-G16RevA.03 25-Dec-2016

 ----------------------------------------------------------------
 #P UB3LYP/6-311++G(d,p) SCRF=(PCM,Solvent=n,n-DiMethylFormamide)
 ----------------------------------------------------------------

 ------------------
 Quinone PCM in DMF
 ------------------
 Symbolic Z-matrix:
 Charge =  0 Multiplicity = 1

                         Standard orientation:
 ---------------------------------------------------------------------
 Center     Atomic      Atomic             Coordinates (Angstroms)
 Number     Number       Type             X           Y           Z
 ---------------------------------------------------------------------
      1          7           0        2.538942    2.810962   -0.097323
      2          6           0        2.471367    1.447975   -0.028362
      3          6           0        3.682300    0.721406    0.008823
      4          6           0        3.694455   -0.650137    0.040490
      5          6           0        2.502377   -1.392458    0.029572
      6          8           0        2.561094   -2.751045    0.054625
      7          6           0        1.272899   -0.714118   -0.002281
      8          6           0        0.001555   -1.468387   -0.018474
      9          8           0       -0.007568   -2.711851   -0.042210
     10          6           0       -1.265225   -0.729686   -0.006643
     11          6           0       -2.466293   -1.461875   -0.016558
     12          8           0       -2.518525   -2.800205   -0.036682
     13          6           0       -3.694613   -0.768258   -0.006181
     14          6           0       -3.723439    0.599998    0.018749
     15          6           0       -2.534455    1.377007    0.031705
     16          7           0       -2.648727    2.735492    0.086767
     17          6           0       -1.289454    0.698494    0.013016
     18          6           0       -0.032994    1.444833   -0.007877
     19          8           0       -0.044644    2.698903   -0.010058
     20          6           0        1.250334    0.717811   -0.021211
     21          1           0        3.419798    3.261339    0.084223
     22          1           0        1.671144    3.323613   -0.005741
     23          1           0        4.619883    1.267538    0.007292
     24          1           0        4.643932   -1.177668    0.069950
     25          1           0        3.486433   -3.019461    0.074452
     26          1           0       -1.571632   -3.107889   -0.043467
     27          1           0       -4.608620   -1.349853   -0.015962
     28          1           0       -4.677695    1.117196    0.032940
     29          1           0       -1.800807    3.280011   -0.004779
     30          1           0       -3.549673    3.157944   -0.059035
 ---------------------------------------------------------------------

 SCF Done:  E(UB3LYP) =  -950.231108038     A.U. after   14 cycles

 The electronic state is 1-A.
 Alpha  occ. eigenvalues --  -19.16871 -19.15355 -19.12322 -19.11533 -14.32988
 Alpha  occ. eigenvalues --  -14.32760 -10.27781 -10.27049 -10.25901 -10.25518
 Alpha  occ. eigenvalues --  -10.24226 -10.24184 -10.20547 -10.20197 -10.19970
 Alpha  occ. eigenvalues --  -10.19898 -10.19785 -10.19710 -10.19696 -10.19450
 Alpha  occ. eigenvalues --   -1.08701  -1.08110  -1.04854  -1.04685  -0.94153
 Alpha  occ. eigenvalues --   -0.93691  -0.87332  -0.85670  -0.81018  -0.77397
 Alpha  occ. eigenvalues --   -0.75711  -0.74418  -0.68907  -0.66990  -0.66445
 Alpha  occ. eigenvalues --   -0.62367  -0.60395  -0.58827  -0.56929  -0.55604
 Alpha  occ. eigenvalues --   -0.54145  -0.52850  -0.52481  -0.50628  -0.48507
 Alpha  occ. eigenvalues --   -0.47977  -0.47501  -0.46392  -0.46233  -0.45138
 Alpha  occ. eigenvalues --   -0.43998  -0.43374  -0.42765  -0.42310  -0.42110
 Alpha  occ. eigenvalues --   -0.40259  -0.39720  -0.39424  -0.38892  -0.37988
 Alpha  occ. eigenvalues --   -0.37513  -0.36949  -0.31386  -0.30524  -0.28578
 Alpha  occ. eigenvalues --   -0.27922  -0.27618  -0.26780  -0.22310  -0.20407
 Alpha virt. eigenvalues --   -0.11024  -0.05198  -0.03773  -0.00724  -0.00140
 Alpha virt. eigenvalues --    0.00285   0.00363   0.01323   0.01496   0.02957
 Alpha virt. eigenvalues --    0.03317   0.03493   0.03929   0.03958   0.05262

  Beta  occ. eigenvalues --  -19.16871 -19.15355 -19.12322 -19.11533 -14.32988
  Beta  occ. eigenvalues --  -14.32760 -10.27781 -10.27049 -10.25901 -10.25518
  Beta  occ. eigenvalues --  -10.24226 -10.24184 -10.20547 -10.20197 -10.19970
  Beta  occ. eigenvalues --  -10.19898 -10.19785 -10.19710 -10.19696 -10.19450
  Beta  occ. eigenvalues --   -1.08701  -1.08110  -1.04854  -1.04685  -0.94153
  Beta  occ. eigenvalues --   -0.93691  -0.87332  -0.85670  -0.81018  -0.77397
  Beta  occ. eigenvalues --   -0.75711  -0.74418  -0.68907  -0.66990  -0.66445
  Beta  occ. eigenvalues --   -0.62367  -0.60395  -0.58827  -0.56929  -0.55604
  Beta  occ. eigenvalues --   -0.54145  -0.52850  -0.52481  -0.50628  -0.48507
  Beta  occ. eigenvalues --   -0.47977  -0.47501  -0.46392  -0.46233  -0.45138
  Beta  occ. eigenvalues --   -0.43998  -0.43374  -0.42765  -0.42310  -0.42110
  Beta  occ. eigenvalues --   -0.40259  -0.39720  -0.39424  -0.38892  -0.37988
  Beta  occ. eigenvalues --   -0.37513  -0.36949  -0.31386  -0.30524  -0.28578
  Beta  occ. eigenvalues --   -0.27922  -0.27618  -0.26780  -0.22310  -0.20407
  Beta virt. eigenvalues --   -0.11024  -0.05198  -0.03773  -0.00724  -0.00140
  Beta virt. eigenvalues --    0.00285   0.00363   0.01323   0.01496   0.02957
  Beta virt. eigenvalues --    0.03317   0.03493   0.03929   0.03958   0.05262

 Mulliken charges and spin densities:
               1          2
     1  N   -0.417584   0.000000
     2  C    0.017030  -0.000000
     3  C   -0.122755   0.000000
     4  C   -0.305057   0.000000
     5  C   -0.128637  -0.000000
     6  O   -0.243367  -0.000000
     7  C    0.402551  -0.000000
     8  C   -0.528401   0.000000
     9  O   -0.348491  -0.000000
    10  C    0.589626  -0.000000
    11  C   -0.108972   0.000000
    12  O   -0.371452   0.000000
    13  C   -0.264453   0.000000
    14  C   -0.190317   0.000000
    15  C    0.025734  -0.000000
    16  N   -0.423848   0.000000
    17  C    0.195243   0.000000
    18  C   -0.462773   0.000000
    19  O   -0.382265   0.000000
    20  C    0.325023   0.000000
    21  H    0.289120  -0.000000
    22  H    0.333410   0.000000
    23  H    0.202666   0.000000
    24  H    0.188114  -0.000000
    25  H    0.306274   0.000000
    26  H    0.378114  -0.000000
    27  H    0.214947   0.000000
    28  H    0.201314  -0.000000
    29  H    0.336229  -0.000000
    30  H    0.292975   0.000000
 Sum of Mulliken charges =  -0.00000   0.00000

 Dipole moment (field-independent basis, Debye):
    X=              3.8082    Y=              5.1095    Z=              0.2195  Tot=              6.3763
 Quadrupole moment (field-independent basis, Debye-Ang):
   XX=            -67.5903   YY=           -117.5913   ZZ=           -120.0346
   XY=            -12.3831   XZ=              2.8781   YZ=             -0.0489

 Normal termination of Gaussian 16 at Tue Jan 16 05:08:23 2024.
