 Gaussian 16, Revision A.03,
 Gaussian 16:  ES64L-G16RevA.03 25-Dec-2016

 --------------------------------------
 #P UB3LYP/6-311++G(d,p) nosym opt freq
 --------------------------------------

 -------
 Reduced
 -------
 Symbolic Z-matrix:
 Charge = -2 Multiplicity = 1

 SCF Done:  E(UB3LYP) =  -1148.50601410     A.U. after   44 cycles
 SCF Done:  E(UB3LYP) =  -1148.53824276     A.U. after   35 cycles
 SCF Done:  E(UB3LYP) =  -1148.54420035     A.U. after   20 cycles
 SCF Done:  E(UB3LYP) =  -1148.54576265     A.U. after   16 cycles
 SCF Done:  E(UB3LYP) =  -1148.54583028     A.U. after   14 cycles
 SCF Done:  E(UB3LYP) =  -1148.54584377     A.U. after   14 cycles
 Optimization completed.
    -- Stationary point found.
 Normal termination of Gaussian 16 at Thu Dec 21 06:27:23 2023.

 ----------------------------------------------------------------------
 #P Geom=AllCheck Guess=TCheck SCRF=Check GenChk UB3LYP/6-311++G(d,p) F
 req
 ----------------------------------------------------------------------

 Structure from the checkpoint file:  "117-an.chk"
 -------
 Reduced
 -------
 Charge = -2 Multiplicity = 1

                          Input orientation:
 ---------------------------------------------------------------------
 Center     Atomic      Atomic             Coordinates (Angstroms)
 Number     Number       Type             X           Y           Z
 ---------------------------------------------------------------------
      1         17           0        3.012040    2.879765    0.339119
      2          6           0        2.610718    1.123862    0.261994
      3          6           0        3.719931    0.311019    0.343243
      4          6           0        3.558092   -1.101276    0.295631
      5          6           0        2.294956   -1.624736    0.169351
      6          6           0        1.135195   -0.812430    0.083644
      7          6           0       -0.130116   -1.495706   -0.046425
      8          8           0       -0.227175   -2.782590   -0.085159
      9          6           0       -1.279211   -0.630104   -0.130109
     10          6           0       -2.574712   -1.198832   -0.260379
     11          6           0       -3.712867   -0.425826   -0.345260
     12          6           0       -3.602270    0.993386   -0.302230
     13          6           0       -2.356350    1.574065   -0.176154
     14          6           0       -1.165066    0.810473   -0.086321
     15          6           0        0.100316    1.518774    0.044391
     16          8           0        0.135763    2.797189    0.077217
     17          6           0        1.267564    0.658205    0.129835
     18          1           0        4.702600    0.758259    0.442446
     19          1           0        4.431967   -1.746668    0.359444
     20          1           0        2.118624   -2.694782    0.128395
     21          1           0       -2.620352   -2.283361   -0.289753
     22          1           0       -4.690672   -0.895487   -0.444547
     23          1           0       -4.494397    1.614430   -0.368369
     24          1           0       -2.234580    2.652371   -0.140003
 ---------------------------------------------------------------------

 SCF Done:  E(UB3LYP) =  -1148.54584377     A.U. after    2 cycles

 Alpha  occ. eigenvalues -- -101.29889 -18.77092 -18.77049  -9.98342  -9.94014
 Alpha  occ. eigenvalues --   -9.93138  -9.92753  -9.92703  -9.92639  -9.92544
 Alpha  occ. eigenvalues --   -9.91685  -9.91624  -9.91513  -9.91506  -9.90300
 Alpha  occ. eigenvalues --   -9.90063  -9.90012  -9.21343  -6.97764  -6.96880
 Alpha  occ. eigenvalues --   -6.96787  -0.69476  -0.68625  -0.62417  -0.59274
 Alpha  occ. eigenvalues --   -0.57237  -0.52022  -0.49125  -0.47863  -0.47692
 Alpha  occ. eigenvalues --   -0.40294  -0.37937  -0.36168  -0.32338  -0.29065
 Alpha  occ. eigenvalues --   -0.28098  -0.26670  -0.21942  -0.20915  -0.20389
 Alpha  occ. eigenvalues --   -0.19419  -0.17399  -0.16775  -0.14879  -0.14865
 Alpha  occ. eigenvalues --   -0.13775  -0.13212  -0.12154  -0.11039  -0.09491
 Alpha  occ. eigenvalues --   -0.09011  -0.08660  -0.07499  -0.06857  -0.06318
 Alpha  occ. eigenvalues --   -0.05881   0.00024   0.01032   0.01515   0.02087
 Alpha  occ. eigenvalues --    0.04845   0.05618   0.13644
 Alpha virt. eigenvalues --    0.16274   0.16644   0.18028   0.18548   0.20270
 Alpha virt. eigenvalues --    0.20476   0.21535   0.21771   0.22639   0.22899
 Alpha virt. eigenvalues --    0.24217   0.25480   0.26321   0.26624   0.27077

  Beta  occ. eigenvalues -- -101.29889 -18.77092 -18.77049  -9.98342  -9.94014
  Beta  occ. eigenvalues --   -9.93138  -9.92753  -9.92703  -9.92639  -9.92544
  Beta  occ. eigenvalues --   -9.91685  -9.91624  -9.91513  -9.91506  -9.90300
  Beta  occ. eigenvalues --   -9.90063  -9.90012  -9.21343  -6.97764  -6.96880
  Beta  occ. eigenvalues --   -6.96787  -0.69476  -0.68625  -0.62417  -0.59274
  Beta  occ. eigenvalues --   -0.57237  -0.52022  -0.49125  -0.47863  -0.47692
  Beta  occ. eigenvalues --   -0.40294  -0.37937  -0.36168  -0.32338  -0.29065
  Beta  occ. eigenvalues --   -0.28098  -0.26670  -0.21942  -0.20915  -0.20389
  Beta  occ. eigenvalues --   -0.19419  -0.17399  -0.16775  -0.14879  -0.14865
  Beta  occ. eigenvalues --   -0.13775  -0.13212  -0.12154  -0.11039  -0.09491
  Beta  occ. eigenvalues --   -0.09011  -0.08660  -0.07499  -0.06857  -0.06318
  Beta  occ. eigenvalues --   -0.05881   0.00024   0.01032   0.01515   0.02087
  Beta  occ. eigenvalues --    0.04845   0.05618   0.13644
  Beta virt. eigenvalues --    0.16274   0.16644   0.18028   0.18548   0.20270
  Beta virt. eigenvalues --    0.20476   0.21535   0.21771   0.22639   0.22899
  Beta virt. eigenvalues --    0.24217   0.25480   0.26321   0.26624   0.27077

 Mulliken charges and spin densities:
               1          2
     1  Cl   0.270661   0.000000
     2  C    1.138505  -0.000000
     3  C   -0.284390   0.000000
     4  C   -0.650477  -0.000000
     5  C    0.249148   0.000000
     6  C    0.362002   0.000000
     7  C   -1.062194  -0.000000
     8  O   -0.514645   0.000000
     9  C    0.226264   0.000000
    10  C    0.015740  -0.000000
    11  C   -0.385304   0.000000
    12  C   -0.466165  -0.000000
    13  C    0.118231   0.000000
    14  C    0.211852   0.000000
    15  C   -1.517602  -0.000000
    16  O   -0.397571  -0.000000
    17  C   -0.018539  -0.000000
    18  H    0.092797  -0.000000
    19  H    0.073129  -0.000000
    20  H    0.134793  -0.000000
    21  H    0.125850   0.000000
    22  H    0.070795  -0.000000
    23  H    0.070885  -0.000000
    24  H    0.136234   0.000000
 Sum of Mulliken charges =  -2.00000   0.00000

 Dipole moment (field-independent basis, Debye):
    X=             -1.7835    Y=             -1.9934    Z=             -0.2076  Tot=              2.6829
 Quadrupole moment (field-independent basis, Debye-Ang):
   XX=           -161.4423   YY=           -171.5249   ZZ=           -118.8869
   XY=             -9.1691   XZ=             -4.0941   YZ=             -2.0606

  Exact polarizability: 422.715  -4.880 265.528  25.981   2.644 136.003
 Approx polarizability: 743.430 -27.057 497.733  49.170   4.673 196.504

                      1                      2                      3
                      A                      A                      A
 Frequencies --     29.2511                56.7349               125.2043
 Red. masses --     12.2256                 6.5578                 4.2846
 Frc consts  --      0.0062                 0.0124                 0.0396
 IR Inten    --      2.3956                 4.3746                 0.0599

                      4                      5                      6
                      A                      A                      A
 Frequencies --    165.6544               174.4401               198.1135
 Red. masses --      7.7488                10.6334                 4.7663
 Frc consts  --      0.1253                 0.1906                 0.1102
 IR Inten    --      2.7678                 5.4227                 0.0132

                      7                      8                      9
                      A                      A                      A
 Frequencies --    251.4882               267.7008               314.1665
 Red. masses --      5.4844                 7.4764                11.2017
 Frc consts  --      0.2044                 0.3157                 0.6514
 IR Inten    --      0.0034                 0.9881                 0.8484

                     10                     11                     12
                      A                      A                      A
 Frequencies --    366.5066               370.5516               382.3159
 Red. masses --      7.0658                11.7082                 7.9151
 Frc consts  --      0.5592                 0.9472                 0.6816
 IR Inten    --      3.9196                 1.5422                 0.9285

                     13                     14                     15
                      A                      A                      A
 Frequencies --    407.8684               439.4809               456.8750
 Red. masses --      7.9728                 3.4455                 8.5081
 Frc consts  --      0.7815                 0.3921                 1.0463
 IR Inten    --      6.5710                 0.9787                 7.3592

                     16                     17                     18
                      A                      A                      A
 Frequencies --    486.2010               497.9511               533.5966
 Red. masses --      4.2690                12.0082                 4.5133
 Frc consts  --      0.5946                 1.7543                 0.7571
 IR Inten    --      0.0062                 0.6926                 4.8350

                     19                     20                     21
                      A                      A                      A
 Frequencies --    602.5675               615.8160               644.3028
 Red. masses --      6.5574                 4.6054                 6.9856
 Frc consts  --      1.4028                 1.0290                 1.7086
 IR Inten    --     34.7341                 1.3848                13.0909

                     22                     23                     24
                      A                      A                      A
 Frequencies --    673.7048               684.8860               700.7236
 Red. masses --      1.6454                 7.0377                 2.1490
 Frc consts  --      0.4400                 1.9450                 0.6217
 IR Inten    --    101.9595                 2.4835                 7.7426

                     25                     26                     27
                      A                      A                      A
 Frequencies --    721.4797               731.7081               753.8820
 Red. masses --      1.8511                 7.4453                 2.3245
 Frc consts  --      0.5677                 2.3486                 0.7784
 IR Inten    --      6.5641                67.2793                23.3553

                     28                     29                     30
                      A                      A                      A
 Frequencies --    770.6480               785.4153               818.5161
 Red. masses --      1.7658                 1.4475                 6.9235
 Frc consts  --      0.6179                 0.5261                 2.7329
 IR Inten    --      0.0302                 0.0250                 8.7587

                     31                     32                     33
                      A                      A                      A
 Frequencies --    829.2009               929.6531               939.8595
 Red. masses --      4.3987                 7.0462                 7.2675
 Frc consts  --      1.7820                 3.5880                 3.7823
 IR Inten    --      0.2634                 7.4105                11.4191

                     34                     35                     36
                      A                      A                      A
 Frequencies --    954.1415               961.5401               964.4546
 Red. masses --      1.2585                 1.2985                 1.3433
 Frc consts  --      0.6751                 0.7073                 0.7362
 IR Inten    --      0.2393                 0.2274                 4.5210

                     37                     38                     39
                      A                      A                      A
 Frequencies --   1012.2445              1057.4510              1084.3514
 Red. masses --      2.0790                 2.1681                 3.4163
 Frc consts  --      1.2551                 1.4284                 2.3667
 IR Inten    --    100.8259               139.2788                51.8413

                     40                     41                     42
                      A                      A                      A
 Frequencies --   1097.0518              1107.8714              1146.2108
 Red. masses --      1.9835                 1.7124                 1.3134
 Frc consts  --      1.4065                 1.2383                 1.0167
 IR Inten    --     25.2673               247.1993                24.5264

                     43                     44                     45
                      A                      A                      A
 Frequencies --   1180.1329              1190.4763              1210.4049
 Red. masses --      2.8775                 1.9273                 2.2999
 Frc consts  --      2.3612                 1.6093                 1.9852
 IR Inten    --      0.7356                56.2904               144.1622

                     46                     47                     48
                      A                      A                      A
 Frequencies --   1233.7486              1293.4326              1335.3202
 Red. masses --      2.3529                 4.6665                 2.4667
 Frc consts  --      2.1101                 4.5997                 2.5914
 IR Inten    --    164.2302               305.0569               314.0461

                     49                     50                     51
                      A                      A                      A
 Frequencies --   1348.7415              1359.3757              1420.7880
 Red. masses --      7.8615                 2.5858                 3.1942
 Frc consts  --      8.4258                 2.8153                 3.7990
 IR Inten    --    240.6449               521.9472               185.8516

                     52                     53                     54
                      A                      A                      A
 Frequencies --   1460.7082              1463.8888              1470.8834
 Red. masses --      3.4550                 4.6208                 3.9057
 Frc consts  --      4.3433                 5.8343                 4.9785
 IR Inten    --      7.5389               225.2477                24.9276

                     55                     56                     57
                      A                      A                      A
 Frequencies --   1482.9487              1514.7623              1567.4893
 Red. masses --      4.7423                 5.5002                 5.6051
 Frc consts  --      6.1446                 7.4356                 8.1141
 IR Inten    --    390.0452                84.7549                 3.9856

                     58                     59                     60
                      A                      A                      A
 Frequencies --   1576.7393              1588.2663              3086.0658
 Red. masses --      6.8682                 5.7144                 1.0824
 Frc consts  --     10.0604                 8.4932                 6.0737
 IR Inten    --      9.3900                15.7518                47.5292

                     61                     62                     63
                      A                      A                      A
 Frequencies --   3106.9398              3110.6727              3155.7035
 Red. masses --      1.0852                 1.0905                 1.0902
 Frc consts  --      6.1720                 6.2168                 6.3964
 IR Inten    --     79.7688               128.7273                25.8210

                     64                     65                     66
                      A                      A                      A
 Frequencies --   3158.4392              3159.5450              3163.8760
 Red. masses --      1.0911                 1.0895                 1.0923
 Frc consts  --      6.4129                 6.4081                 6.4423
 IR Inten    --     66.0720                26.3296                40.6871

 - Thermochemistry -
 -------------------
 Temperature   298.150 Kelvin.  Pressure   1.00000 Atm.
 Atom     1 has atomic number 17 and mass  34.96885

 Molecular mass:   242.01346 amu.
 Principal axes and moments of inertia in atomic units:
                           1         2         3
     Eigenvalues --  2422.395265165.572797587.96804
           X            0.95937  -0.26742  -0.08992
           Y            0.26642   0.96358  -0.02317
           Z            0.09284  -0.00173   0.99568
 This molecule is an asymmetric top.
 Rotational symmetry number  1.
 Warning -- assumption of classical behavior for rotation
           may cause significant error
 Rotational temperatures (Kelvin)      0.03576     0.01677     0.01141
 Rotational constants (GHZ):           0.74502     0.34938     0.23784
 Zero-point vibrational energy     429167.1 (Joules/Mol)
                                  102.57339 (Kcal/Mol)
 Warning -- explicit consideration of  20 degrees of freedom as
           vibrations may cause significant error
 Vibrational temperatures:     42.09    81.63   180.14   238.34   250.98
          (Kelvin)            285.04   361.84   385.16   452.02   527.32
                              533.14   550.07   586.83   632.32   657.34
                              699.53   716.44   767.73   866.96   886.02
                              927.01   969.31   985.40  1008.18  1038.05
                             1052.76  1084.67  1108.79  1130.04  1177.66
                             1193.04  1337.56  1352.25  1372.80  1383.44
                             1387.64  1456.39  1521.44  1560.14  1578.41
                             1593.98  1649.14  1697.95  1712.83  1741.50
                             1775.09  1860.96  1921.23  1940.54  1955.84
                             2044.20  2101.63  2106.21  2116.27  2133.63
                             2179.41  2255.27  2268.58  2285.16  4440.16
                             4470.19  4475.56  4540.35  4544.29  4545.88
                             4552.11

 Zero-point correction=                           0.163461 (Hartree/Particle)
 Thermal correction to Energy=                    0.176263
 Thermal correction to Enthalpy=                  0.177208
 Thermal correction to Gibbs Free Energy=         0.123378
 Sum of electronic and zero-point Energies=          -1148.382383
 Sum of electronic and thermal Energies=             -1148.369580
 Sum of electronic and thermal Enthalpies=           -1148.368636
 Sum of electronic and thermal Free Energies=        -1148.422466

                     E (Thermal)             CV                S
                      KCal/Mol        Cal/Mol-Kelvin    Cal/Mol-Kelvin
 Total                  110.607             51.452            113.294
 Electronic               0.000              0.000              0.000
 Translational            0.889              2.981             42.353
 Rotational               0.889              2.981             32.918
 Vibrational            108.829             45.490             38.024
 Vibration     1          0.593              1.984              5.880
 Vibration     2          0.596              1.975              4.568
 Vibration     3          0.610              1.928              3.018
 Vibration     4          0.624              1.885              2.484
 Vibration     5          0.627              1.874              2.387
 Vibration     6          0.637              1.843              2.151
 Vibration     7          0.663              1.760              1.720
 Vibration     8          0.673              1.732              1.611
 Vibration     9          0.702              1.647              1.340
 Vibration    10          0.739              1.541              1.094
 Vibration    11          0.743              1.533              1.078
 Vibration    12          0.752              1.508              1.030
 Vibration    13          0.772              1.453              0.934
 Vibration    14          0.800              1.384              0.828
 Vibration    15          0.815              1.346              0.775
 Vibration    16          0.842              1.281              0.694
 Vibration    17          0.853              1.255              0.663
 Vibration    18          0.889              1.176              0.579
 Vibration    19          0.961              1.026              0.445
 Vibration    20          0.975              0.998              0.423

 Optimization completed.
    -- Stationary point found.
 Normal termination of Gaussian 16 at Thu Dec 21 07:39:03 2023.
