 Q-Chem 5.4, Q-Chem, Inc., Pleasanton, CA (2021)
 Q-Chem 5.4.0 for Intel X86 EM64T Linux

User input:
--------------------------------------------------------------
$molecule
0 1
C                 -0.2232580000      3.8392630000     -0.1334010000
C                 -1.4506300000      3.2017420000     -0.2859260000
C                 -1.4965410000      1.8377530000     -0.5800620000
C                  0.9588340000      3.1087100000     -0.2762220000
C                  0.9159230000      1.7363390000     -0.5718420000
C                 -0.3184360000      1.1068310000     -0.7222110000
C                  2.2671490000      3.7692460000     -0.1174410000
C                  3.4983750000      2.9449520000     -0.2860510000
C                  3.4825090000      1.6174470000     -0.5613790000
C                  2.1802090000      0.9384530000     -0.7270400000
O                  2.4081260000      4.9584630000      0.1451680000
O                  2.1227100000     -0.2562120000     -0.9832910000
H                 -0.1619330000      4.8961910000      0.0953360000
H                 -2.3701930000      3.7648520000     -0.1763370000
H                 -2.4538220000      1.3429030000     -0.6986550000
H                 -0.3360830000      0.0482790000     -0.9499250000
O                  4.6404860000      3.6347630000     -0.1326300000
C                  4.7404100000      0.8143400000     -0.7374980000
C                  5.1998460000      0.7378440000     -2.2095510000
C                  6.4756190000     -0.0924740000     -2.3838170000
C                  6.9498640000     -0.1790660000     -3.8389170000
C                  8.2253830000     -1.0097340000     -4.0191860000
H                  4.3765590000      4.5520250000      0.0719380000
H                  4.5583940000     -0.1989380000     -0.3708750000
H                  5.5361290000      1.2579230000     -0.1335960000
H                  5.3677810000      1.7530790000     -2.5865500000
H                  4.3948830000      0.3037010000     -2.8119220000
H                  6.3023440000     -1.1050610000     -1.9979900000
H                  7.2752460000      0.3376440000     -1.7670090000
H                  7.1208550000      0.8343100000     -4.2247140000
H                  6.1489730000     -0.6078930000     -4.4548450000
H                  8.0550610000     -2.0232880000     -3.6331850000
H                  9.0269990000     -0.5815860000     -3.4031180000
C                  8.7014470000     -1.0985970000     -5.4736190000
C                  9.9759540000     -1.9304470000     -5.6443560000
H                  8.8720670000     -0.0860900000     -5.8594980000
H                  7.9009520000     -1.5268670000     -6.0891550000
H                 10.8049630000     -1.5068880000     -5.0684330000
H                 10.2880190000     -1.9741920000     -6.6916100000
H                  9.8264460000     -2.9585200000     -5.2993650000
$end
$rem
MAX_SCF_CYCLES=200
BASIS  =  6-311++G(d,p)
GUI  =  2
JOB_TYPE  =  SP
THRESH = 14
SCF_CONVERGENCE = 8
SCF_ALGORITHM = RCA_DIIS
scf_guess = GWH
METHOD  =  B3LYP
SOLVENT_METHOD = PCM
$end
$pcm
theory = CPCM
$end
$solvent
dielectric 37.219
opticaldielectric 1.43
$end

--------------------------------------------------------------

             Standard Nuclear Orientation (Angstroms)
    I     Atom           X                Y                Z
 ----------------------------------------------------------------
    1      C      -0.2232580000     3.8392630000    -0.1334010000
    2      C      -1.4506300000     3.2017420000    -0.2859260000
    3      C      -1.4965410000     1.8377530000    -0.5800620000
    4      C       0.9588340000     3.1087100000    -0.2762220000
    5      C       0.9159230000     1.7363390000    -0.5718420000
    6      C      -0.3184360000     1.1068310000    -0.7222110000
    7      C       2.2671490000     3.7692460000    -0.1174410000
    8      C       3.4983750000     2.9449520000    -0.2860510000
    9      C       3.4825090000     1.6174470000    -0.5613790000
   10      C       2.1802090000     0.9384530000    -0.7270400000
   11      O       2.4081260000     4.9584630000     0.1451680000
   12      O       2.1227100000    -0.2562120000    -0.9832910000
   13      H      -0.1619330000     4.8961910000     0.0953360000
   14      H      -2.3701930000     3.7648520000    -0.1763370000
   15      H      -2.4538220000     1.3429030000    -0.6986550000
   16      H      -0.3360830000     0.0482790000    -0.9499250000
   17      O       4.6404860000     3.6347630000    -0.1326300000
   18      C       4.7404100000     0.8143400000    -0.7374980000
   19      C       5.1998460000     0.7378440000    -2.2095510000
   20      C       6.4756190000    -0.0924740000    -2.3838170000
   21      C       6.9498640000    -0.1790660000    -3.8389170000
   22      C       8.2253830000    -1.0097340000    -4.0191860000
   23      H       4.3765590000     4.5520250000     0.0719380000
   24      H       4.5583940000    -0.1989380000    -0.3708750000
   25      H       5.5361290000     1.2579230000    -0.1335960000
   26      H       5.3677810000     1.7530790000    -2.5865500000
   27      H       4.3948830000     0.3037010000    -2.8119220000
   28      H       6.3023440000    -1.1050610000    -1.9979900000
   29      H       7.2752460000     0.3376440000    -1.7670090000
   30      H       7.1208550000     0.8343100000    -4.2247140000
   31      H       6.1489730000    -0.6078930000    -4.4548450000
   32      H       8.0550610000    -2.0232880000    -3.6331850000
   33      H       9.0269990000    -0.5815860000    -3.4031180000
   34      C       8.7014470000    -1.0985970000    -5.4736190000
   35      C       9.9759540000    -1.9304470000    -5.6443560000
   36      H       8.8720670000    -0.0860900000    -5.8594980000
   37      H       7.9009520000    -1.5268670000    -6.0891550000
   38      H      10.8049630000    -1.5068880000    -5.0684330000
   39      H      10.2880190000    -1.9741920000    -6.6916100000
   40      H       9.8264460000    -2.9585200000    -5.2993650000
 ----------------------------------------------------------------

   98    -885.8088291156      7.25E-09 Convergence criterion met
 Total energy in the final basis set = -885.80882912

                    Orbital Energies (a.u.)
 --------------------------------------------------------------

 Alpha MOs
 -- Occupied --
-19.1779 -19.1495 -19.1299 -10.2935 -10.2811 -10.2668 -10.2104 -10.2092
-10.2032 -10.2005 -10.1984 -10.1968 -10.1967 -10.1748 -10.1655 -10.1591
-10.1586 -10.1572 -10.1564 -10.1521  -1.1081  -1.0671  -1.0636  -0.8923
 -0.8435  -0.8079  -0.7910  -0.7797  -0.7681  -0.7337  -0.7002  -0.6762
 -0.6541  -0.6352  -0.6073  -0.6021  -0.5776  -0.5739  -0.5717  -0.5423
 -0.5183  -0.4974  -0.4805  -0.4762  -0.4713  -0.4679  -0.4576  -0.4521
 -0.4439  -0.4362  -0.4292  -0.4243  -0.4135  -0.4120  -0.4083  -0.3989
 -0.3841  -0.3775  -0.3759  -0.3714  -0.3698  -0.3635  -0.3414  -0.3386
 -0.3238  -0.3231  -0.3176  -0.3131  -0.3027  -0.2896  -0.2800  -0.2795
 -0.2561

          Ground-State Mulliken Net Atomic Charges

     Atom                 Charge (a.u.)
  ----------------------------------------
      1 C                     0.186076
      2 C                    -0.391226
      3 C                    -0.419880
      4 C                     0.506208
      5 C                    -0.128747
      6 C                     0.174223
      7 C                    -0.795113
      8 C                    -0.435761
      9 C                     1.874071
     10 C                    -0.764631
     11 O                    -0.322532
     12 O                    -0.293335
     13 H                     0.202659
     14 H                     0.227179
     15 H                     0.223151
     16 H                     0.201477
     17 O                    -0.235364
     18 C                    -0.395547
     19 C                    -0.614316
     20 C                    -0.088537
     21 C                    -0.109518
     22 C                    -0.280689
     23 H                     0.321461
     24 H                     0.222009
     25 H                     0.236842
     26 H                     0.178820
     27 H                     0.180433
     28 H                     0.124851
     29 H                     0.123203
     30 H                     0.130654
     31 H                     0.130778
     32 H                     0.131556
     33 H                     0.131665
     34 C                    -0.238942
     35 C                    -0.702260
     36 H                     0.135627
     37 H                     0.135754
     38 H                     0.144624
     39 H                     0.148486
     40 H                     0.144590
  ----------------------------------------
  Sum of atomic charges =     0.000000

                    Cartesian Multipole Moments
 -----------------------------------------------------------------
    Charge (ESU x 10^10)
                -0.0000
    Dipole Moment (Debye)
         X      -2.7169      Y       1.5507      Z       0.0632
       Tot       3.1289
    Quadrupole Moments (Debye-Ang)
        XX    -116.1034     XY      -3.4445     YY    -124.2522
        XZ       0.7424     YZ      -2.0617     ZZ    -122.8587

 Total job time:  1798.34s(wall), 10951.89s(cpu)
        *  Thank you very much for using Q-Chem.  Have a nice day.  *
