 Gaussian 16, Revision A.03,
 Gaussian 16:  ES64L-G16RevA.03 25-Dec-2016

 ----------------------------------------------------------------
 #P UB3LYP/6-311++G(d,p) SCRF=(PCM,Solvent=n,n-DiMethylFormamide)
 ----------------------------------------------------------------

 ------------------
 Radical PCM in DMF
 ------------------
 Symbolic Z-matrix:
 Charge = -1 Multiplicity = 2

                         Standard orientation:
 ---------------------------------------------------------------------
 Center     Atomic      Atomic             Coordinates (Angstroms)
 Number     Number       Type             X           Y           Z
 ---------------------------------------------------------------------
      1          6           0        1.025121    1.393758   -0.198501
      2          6           0        0.411196    0.073839   -0.000959
      3          6           0        1.218274   -1.035448    0.179188
      4          6           0        2.661185   -1.005507    0.168083
      5          6           0        3.247907    0.302412   -0.047008
      6          6           0        2.476593    1.415340   -0.216698
      7          8           0        0.362872    2.456359   -0.357564
      8          8           0        3.363025   -2.044221    0.340095
      9          6           0       -1.063616   -0.078977    0.000725
     10          6           0       -1.918750    0.913351    0.517815
     11          6           0       -1.665433   -1.246212   -0.506853
     12          6           0       -3.045654   -1.428806   -0.477662
     13          6           0       -3.298781    0.729275    0.547933
     14          6           0       -3.875348   -0.441716    0.054062
     15          1           0        0.775475   -2.008352    0.370054
     16          1           0        4.333181    0.358714   -0.061222
     17          1           0        2.925296    2.392321   -0.374604
     18          1           0       -1.483001    1.833886    0.878632
     19          1           0       -1.037453   -2.013064   -0.945722
     20          1           0       -3.474414   -2.340936   -0.882152
     21          1           0       -3.930478    1.511194    0.959181
     22          1           0       -4.951950   -0.578721    0.074830
 ---------------------------------------------------------------------

 SCF Done:  E(UB3LYP) =  -612.835662148     A.U. after   20 cycles

 The electronic state is 2-A.
 Alpha  occ. eigenvalues --  -19.07847 -19.07745 -10.22407 -10.21921 -10.18453
 Alpha  occ. eigenvalues --  -10.17841 -10.17456 -10.17393 -10.17310 -10.17296
 Alpha  occ. eigenvalues --  -10.16900 -10.16485 -10.16417 -10.16239  -1.00200
 Alpha  occ. eigenvalues --   -0.99694  -0.86105  -0.82348  -0.77350  -0.74620
 Alpha  occ. eigenvalues --   -0.72377  -0.68152  -0.62228  -0.60843  -0.58237
 Alpha  occ. eigenvalues --   -0.56002  -0.51156  -0.47767  -0.47151  -0.46005
 Alpha  occ. eigenvalues --   -0.44481  -0.43497  -0.42061  -0.41682  -0.40633
 Alpha  occ. eigenvalues --   -0.40323  -0.38277  -0.37689  -0.36826  -0.36112
 Alpha  occ. eigenvalues --   -0.34896  -0.34150  -0.29152  -0.27546  -0.25816
 Alpha  occ. eigenvalues --   -0.24249  -0.23811  -0.23396  -0.16326
 Alpha virt. eigenvalues --   -0.03651  -0.01372  -0.00196   0.00675   0.00798
 Alpha virt. eigenvalues --    0.01368   0.02321   0.02514   0.02938   0.04143
 Alpha virt. eigenvalues --    0.04458   0.04717   0.05347   0.05915   0.06843

  Beta  occ. eigenvalues --  -19.07162 -19.07042 -10.22273 -10.21794 -10.18472
  Beta  occ. eigenvalues --  -10.17725 -10.17461 -10.17380 -10.17315 -10.17276
  Beta  occ. eigenvalues --  -10.16881 -10.16383 -10.16315 -10.16121  -0.99003
  Beta  occ. eigenvalues --   -0.98450  -0.86033  -0.81809  -0.77155  -0.74598
  Beta  occ. eigenvalues --   -0.72165  -0.67147  -0.61961  -0.60768  -0.57969
  Beta  occ. eigenvalues --   -0.55730  -0.51045  -0.47577  -0.46814  -0.45788
  Beta  occ. eigenvalues --   -0.44348  -0.43255  -0.42014  -0.41466  -0.39721
  Beta  occ. eigenvalues --   -0.39107  -0.37792  -0.36797  -0.35947  -0.34943
  Beta  occ. eigenvalues --   -0.34375  -0.34098  -0.28049  -0.25744  -0.25083
  Beta  occ. eigenvalues --   -0.23606  -0.23204  -0.22611
  Beta virt. eigenvalues --   -0.09269  -0.02843  -0.01318  -0.00177   0.00763
  Beta virt. eigenvalues --    0.01293   0.01852   0.02399   0.02550   0.03480
  Beta virt. eigenvalues --    0.04337   0.04713   0.05326   0.05630   0.05975

 Mulliken charges and spin densities:
               1          2
     1  C   -1.085463   0.050104
     2  C    1.599753   0.123787
     3  C   -0.619621   0.041653
     4  C   -0.537993   0.127462
     5  C    0.047029   0.070926
     6  C   -0.002046   0.099626
     7  O   -0.454135   0.246920
     8  O   -0.512389   0.245540
     9  C    1.199440  -0.017969
    10  C   -0.456430   0.008085
    11  C   -0.694368   0.023308
    12  C   -0.291132  -0.008924
    13  C   -0.143178  -0.000730
    14  C   -0.507238   0.016475
    15  H    0.165800  -0.008711
    16  H    0.188265  -0.005900
    17  H    0.189446  -0.007484
    18  H    0.178284  -0.002461
    19  H    0.172819  -0.001562
    20  H    0.190334   0.000549
    21  H    0.193425   0.000402
    22  H    0.179397  -0.001096
 Sum of Mulliken charges =  -1.00000   1.00000

 Dipole moment (field-independent basis, Debye):
    X=             -8.4130    Y=             -0.3346    Z=             -0.0124  Tot=              8.4196
 Quadrupole moment (field-independent basis, Debye-Ang):
   XX=           -108.5044   YY=           -107.8605   ZZ=            -88.0033
   XY=             18.7047   XZ=             -3.5524   YZ=              7.2072

 Normal termination of Gaussian 16 at Wed Jan 24 22:50:01 2024.
