 Gaussian 16, Revision A.03,
 Gaussian 16:  ES64L-G16RevA.03 25-Dec-2016

 ---------------------------------------------------------
 #P UB3LYP/genecp SCRF=(PCM,Solvent=n,n-DiMethylFormamide)
 ---------------------------------------------------------

 ------------------
 Radical PCM in DMF
 ------------------
 Symbolic Z-matrix:
 Charge = -1 Multiplicity = 2

                         Standard orientation:
 ---------------------------------------------------------------------
 Center     Atomic      Atomic             Coordinates (Angstroms)
 Number     Number       Type             X           Y           Z
 ---------------------------------------------------------------------
      1         53           0       -2.984692    1.867151   -0.000023
      2          6           0       -1.231924    0.684753    0.000110
      3          6           0       -1.231973   -0.684791    0.000110
      4         53           0       -2.984928   -1.867007   -0.000023
      5          6           0       -0.000002   -1.476721    0.000159
      6          8           0       -0.000180   -2.720962   -0.000002
      7          6           0        1.231877   -0.684868    0.000072
      8          6           0        1.231921    0.684868    0.000070
      9         53           0        2.984875    1.867008   -0.000029
     10          6           0        0.000121    1.476671    0.000176
     11          8           0        0.000095    2.720929    0.000065
     12         53           0        2.984755   -1.867137   -0.000013
 ---------------------------------------------------------------------

 SCF Done:  E(UB3LYP) =  -1570.50736028     A.U. after   18 cycles

 The electronic state is 2-A.
 Alpha  occ. eigenvalues --  -19.10068 -19.10067 -10.25648 -10.25647 -10.23035
 Alpha  occ. eigenvalues --  -10.23033 -10.22972 -10.22971  -6.84523  -6.84522
 Alpha  occ. eigenvalues --   -6.84522  -6.84522  -4.86975  -4.86975  -4.86975
 Alpha  occ. eigenvalues --   -4.86975  -4.85840  -4.85840  -4.85840  -4.85840
 Alpha  occ. eigenvalues --   -4.85726  -4.85726  -4.85726  -4.85726  -1.91788
 Alpha  occ. eigenvalues --   -1.91788  -1.91787  -1.91787  -1.91429  -1.91429
 Alpha  occ. eigenvalues --   -1.91429  -1.91428  -1.91344  -1.91344  -1.91339
 Alpha  occ. eigenvalues --   -1.91339  -1.90362  -1.90362  -1.90361  -1.90361
 Alpha  occ. eigenvalues --   -1.90360  -1.90360  -1.90357  -1.90357  -1.03438
 Alpha  occ. eigenvalues --   -1.03197  -0.86022  -0.80017  -0.73501  -0.72062
 Alpha  occ. eigenvalues --   -0.70663  -0.66820  -0.66737  -0.57656  -0.57607
 Alpha  occ. eigenvalues --   -0.51670  -0.45968  -0.44330  -0.44052  -0.40557
 Alpha  occ. eigenvalues --   -0.39140  -0.38641  -0.38520  -0.34960  -0.33928
 Alpha  occ. eigenvalues --   -0.32440  -0.28650  -0.28431  -0.27765  -0.27587
 Alpha  occ. eigenvalues --   -0.27418  -0.26477  -0.26161  -0.24953  -0.23838
 Alpha  occ. eigenvalues --   -0.23151  -0.18162
 Alpha virt. eigenvalues --   -0.06892  -0.04680  -0.03975  -0.02501   0.00446
 Alpha virt. eigenvalues --    0.00910   0.01228   0.03588   0.03676   0.06070
 Alpha virt. eigenvalues --    0.06417   0.07031   0.08352   0.08679   0.08735

  Beta  occ. eigenvalues --  -19.09400 -19.09399 -10.25527 -10.25525 -10.22912
  Beta  occ. eigenvalues --  -10.22910 -10.22847 -10.22847  -6.84521  -6.84521
  Beta  occ. eigenvalues --   -6.84520  -6.84520  -4.86978  -4.86978  -4.86978
  Beta  occ. eigenvalues --   -4.86978  -4.85832  -4.85832  -4.85832  -4.85832
  Beta  occ. eigenvalues --   -4.85726  -4.85726  -4.85726  -4.85726  -1.91790
  Beta  occ. eigenvalues --   -1.91790  -1.91789  -1.91789  -1.91425  -1.91425
  Beta  occ. eigenvalues --   -1.91425  -1.91425  -1.91347  -1.91347  -1.91343
  Beta  occ. eigenvalues --   -1.91343  -1.90356  -1.90356  -1.90355  -1.90355
  Beta  occ. eigenvalues --   -1.90355  -1.90355  -1.90352  -1.90352  -1.02301
  Beta  occ. eigenvalues --   -1.02033  -0.85424  -0.79769  -0.72911  -0.71938
  Beta  occ. eigenvalues --   -0.70560  -0.66741  -0.66177  -0.57216  -0.57204
  Beta  occ. eigenvalues --   -0.51433  -0.45437  -0.43306  -0.42574  -0.38849
  Beta  occ. eigenvalues --   -0.38558  -0.38305  -0.37850  -0.34717  -0.33384
  Beta  occ. eigenvalues --   -0.29972  -0.28621  -0.28286  -0.27626  -0.27239
  Beta  occ. eigenvalues --   -0.26977  -0.25963  -0.25141  -0.24938  -0.23415
  Beta  occ. eigenvalues --   -0.22945
  Beta virt. eigenvalues --   -0.11326  -0.06771  -0.04604  -0.02482  -0.02301
  Beta virt. eigenvalues --    0.00956   0.01385   0.02897   0.03596   0.03721
  Beta virt. eigenvalues --    0.06128   0.06530   0.07045   0.08368   0.08801

 Mulliken charges and spin densities:
               1          2
     1  I   -0.085345   0.001123
     2  C    0.998808   0.113795
     3  C    0.999112   0.113765
     4  I   -0.085356   0.001119
     5  C   -2.038482   0.022371
     6  O   -0.289210   0.247604
     7  C    0.999535   0.114015
     8  C    0.999294   0.113951
     9  I   -0.085360   0.001132
    10  C   -2.038411   0.022369
    11  O   -0.289218   0.247620
    12  I   -0.085366   0.001136
 Sum of Mulliken charges =  -1.00000   1.00000

 Dipole moment (field-independent basis, Debye):
    X=             -0.0003    Y=              0.0001    Z=             -0.0000  Tot=              0.0003
 Quadrupole moment (field-independent basis, Debye-Ang):
   XX=           -162.5407   YY=           -190.6760   ZZ=           -156.3014
   XY=             -0.0012   XZ=              0.0002   YZ=             -0.0005

 Normal termination of Gaussian 16 at Mon Jan 22 18:38:31 2024.
