 Gaussian 16, Revision A.03,
 Gaussian 16:  ES64L-G16RevA.03 25-Dec-2016

 --------------------------------------
 #P UB3LYP/6-311++G(d,p) nosym opt freq
 --------------------------------------

 -------
 Reduced
 -------
 Symbolic Z-matrix:
 Charge = -2 Multiplicity = 1

 SCF Done:  E(UB3LYP) =  -990.155541889     A.U. after   27 cycles
 Optimization completed.
    -- Stationary point found.
 Normal termination of Gaussian 16 at Tue Jan  9 01:59:05 2024.

 ----------------------------------------------------------------------
 #P Geom=AllCheck Guess=TCheck SCRF=Check GenChk UB3LYP/6-311++G(d,p) F
 req
 ----------------------------------------------------------------------

 Structure from the checkpoint file:  "312-an.chk"
 -------
 Reduced
 -------
 Charge = -2 Multiplicity = 1

                          Input orientation:
 ---------------------------------------------------------------------
 Center     Atomic      Atomic             Coordinates (Angstroms)
 Number     Number       Type             X           Y           Z
 ---------------------------------------------------------------------
      1          6           0        3.765589    0.139792   -0.197973
      2          6           0        2.736584    0.127069    0.955120
      3          6           0        1.299913    0.245695    0.525761
      4          6           0        0.585466   -0.983880    0.314580
      5          8           0        1.167467   -2.109078    0.450901
      6          6           0       -0.840704   -0.857805   -0.052299
      7          6           0       -1.670168   -1.993609   -0.286537
      8          8           0       -1.210696   -3.304577   -0.193985
      9          6           0       -3.002094   -1.821136   -0.630131
     10          8           0       -3.801137   -2.960049   -0.859787
     11          6           0       -3.554184   -0.552231   -0.764667
     12          8           0       -4.889941   -0.391792   -1.126114
     13          6           0       -2.815959    0.608986   -0.560105
     14          6           0       -1.433394    0.456654   -0.187645
     15          6           0       -0.654429    1.634682    0.038621
     16          6           0        0.672125    1.506382    0.388179
     17          8           0        1.399884    2.686768    0.601032
     18          8           0       -1.218922    2.888880   -0.103098
     19          8           0       -3.452007    1.763442   -0.724387
     20          1           0        3.558076   -0.691982   -0.876130
     21          1           0        3.711104    1.068519   -0.777470
     22          1           0        4.796777    0.034398    0.179309
     23          1           0        2.831879   -0.832681    1.475071
     24          1           0        3.019541    0.909772    1.686488
     25          1           0       -1.959726   -3.848440   -0.465853
     26          1           0        2.274028    2.413614    0.893548
     27          1           0       -2.165386    2.707818   -0.364807
     28          1           0       -4.651321   -2.617701   -1.158958
     29          1           0       -4.934196    0.593346   -1.137790
 ---------------------------------------------------------------------

 SCF Done:  E(UB3LYP) =  -990.155541889     A.U. after    2 cycles

 Alpha  occ. eigenvalues --  -18.93603 -18.91252 -18.90396 -18.89833 -18.85806
 Alpha  occ. eigenvalues --  -18.81621 -18.78013  -9.97712  -9.97187  -9.96231
 Alpha  occ. eigenvalues --   -9.96010  -9.95570  -9.95097  -9.94644  -9.94587
 Alpha  occ. eigenvalues --   -9.94067  -9.91587  -9.91311  -9.89696  -0.84290
 Alpha  occ. eigenvalues --   -0.81459  -0.80779  -0.79920  -0.76754  -0.71072
 Alpha  occ. eigenvalues --   -0.70362  -0.58644  -0.55756  -0.52864  -0.47255
 Alpha  occ. eigenvalues --   -0.46815  -0.43750  -0.39797  -0.37772  -0.35595
 Alpha  occ. eigenvalues --   -0.32731  -0.31605  -0.29603  -0.28668  -0.25946
 Alpha  occ. eigenvalues --   -0.24883  -0.23080  -0.21314  -0.20329  -0.20002
 Alpha  occ. eigenvalues --   -0.19478  -0.18562  -0.17836  -0.16663  -0.15051
 Alpha  occ. eigenvalues --   -0.14847  -0.14342  -0.13851  -0.13273  -0.13031
 Alpha  occ. eigenvalues --   -0.12608  -0.12403  -0.10887  -0.10607  -0.09507
 Alpha  occ. eigenvalues --   -0.08646  -0.08385  -0.07580  -0.02579  -0.00035
 Alpha  occ. eigenvalues --    0.00589   0.03829   0.04706   0.06288   0.11862
 Alpha virt. eigenvalues --    0.14898   0.16460   0.17795   0.18708   0.19174
 Alpha virt. eigenvalues --    0.20421   0.20796   0.22338   0.22539   0.23087
 Alpha virt. eigenvalues --    0.24997   0.25108   0.25986   0.26222   0.26881

  Beta  occ. eigenvalues --  -18.93603 -18.91252 -18.90396 -18.89833 -18.85806
  Beta  occ. eigenvalues --  -18.81621 -18.78013  -9.97712  -9.97187  -9.96231
  Beta  occ. eigenvalues --   -9.96010  -9.95570  -9.95097  -9.94644  -9.94587
  Beta  occ. eigenvalues --   -9.94067  -9.91587  -9.91311  -9.89696  -0.84290
  Beta  occ. eigenvalues --   -0.81459  -0.80779  -0.79920  -0.76754  -0.71072
  Beta  occ. eigenvalues --   -0.70362  -0.58644  -0.55756  -0.52864  -0.47255
  Beta  occ. eigenvalues --   -0.46815  -0.43750  -0.39797  -0.37772  -0.35595
  Beta  occ. eigenvalues --   -0.32731  -0.31605  -0.29603  -0.28668  -0.25946
  Beta  occ. eigenvalues --   -0.24883  -0.23080  -0.21314  -0.20329  -0.20002
  Beta  occ. eigenvalues --   -0.19478  -0.18562  -0.17836  -0.16663  -0.15051
  Beta  occ. eigenvalues --   -0.14847  -0.14342  -0.13851  -0.13273  -0.13031
  Beta  occ. eigenvalues --   -0.12608  -0.12403  -0.10887  -0.10607  -0.09507
  Beta  occ. eigenvalues --   -0.08646  -0.08385  -0.07580  -0.02579  -0.00035
  Beta  occ. eigenvalues --    0.00589   0.03829   0.04706   0.06288   0.11862
  Beta virt. eigenvalues --    0.14898   0.16460   0.17795   0.18708   0.19174
  Beta virt. eigenvalues --    0.20421   0.20796   0.22338   0.22539   0.23087
  Beta virt. eigenvalues --    0.24997   0.25108   0.25986   0.26222   0.26881

 Mulliken charges and spin densities:
               1          2
     1  C    0.232487   0.000000
     2  C   -1.104630  -0.000000
     3  C    1.784208   0.000000
     4  C   -0.547046   0.000000
     5  O   -0.474852   0.000000
     6  C    0.746172  -0.000000
     7  C   -0.294940  -0.000000
     8  O   -0.245461  -0.000000
     9  C   -0.329865  -0.000000
    10  O   -0.384121   0.000000
    11  C   -0.151294   0.000000
    12  O   -0.385597  -0.000000
    13  C   -0.587585   0.000000
    14  C    1.028338  -0.000000
    15  C   -0.441012  -0.000000
    16  C   -0.723968  -0.000000
    17  O   -0.296717   0.000000
    18  O   -0.464742   0.000000
    19  O   -0.634913  -0.000000
    20  H    0.173404   0.000000
    21  H    0.031011   0.000000
    22  H   -0.403225  -0.000000
    23  H    0.122424   0.000000
    24  H   -0.030258  -0.000000
    25  H    0.238261   0.000000
    26  H    0.245308   0.000000
    27  H    0.375949  -0.000000
    28  H    0.265412   0.000000
    29  H    0.257253  -0.000000
 Sum of Mulliken charges =  -2.00000  -0.00000

 Dipole moment (field-independent basis, Debye):
    X=              4.7990    Y=             -0.1768    Z=              0.4804  Tot=              4.8262
 Quadrupole moment (field-independent basis, Debye-Ang):
   XX=           -194.9042   YY=           -172.7923   ZZ=           -124.7518
   XY=              9.8611   XZ=            -10.8783   YZ=              3.4524

  Exact polarizability:1256.882  74.240 274.120  92.687   8.192 191.780
 Approx polarizability:1589.228  95.227 439.841 136.875   9.880 243.126

                      1                      2                      3
                      A                      A                      A
 Frequencies --     49.8940                53.6596                63.0718
 Red. masses --      3.6325                 5.0615                 5.1018
 Frc consts  --      0.0053                 0.0086                 0.0120
 IR Inten    --      4.3790                 1.7033                 3.6558

                      4                      5                      6
                      A                      A                      A
 Frequencies --     99.4878               113.7326               149.1507
 Red. masses --      7.9226                 6.6617                 3.9890
 Frc consts  --      0.0462                 0.0508                 0.0523
 IR Inten    --      3.7360                 3.1706                17.4684

                      7                      8                      9
                      A                      A                      A
 Frequencies --    174.9635               187.9618               204.7015
 Red. masses --     10.3067                 4.5506                 2.3534
 Frc consts  --      0.1859                 0.0947                 0.0581
 IR Inten    --      0.0467                20.5633                10.9806

                     10                     11                     12
                      A                      A                      A
 Frequencies --    236.7047               241.9841               262.4814
 Red. masses --      1.3867                 1.5688                 1.4527
 Frc consts  --      0.0458                 0.0541                 0.0590
 IR Inten    --      2.7886                34.5770               116.6571

                     13                     14                     15
                      A                      A                      A
 Frequencies --    278.3927               291.7753               312.8018
 Red. masses --      3.8629                 3.4460                 4.0262
 Frc consts  --      0.1764                 0.1728                 0.2321
 IR Inten    --     30.4081                 5.9064                27.1556

                     16                     17                     18
                      A                      A                      A
 Frequencies --    322.5105               329.5905               341.5648
 Red. masses --      4.8080                 7.3171                 7.4155
 Frc consts  --      0.2946                 0.4683                 0.5097
 IR Inten    --     13.0745                 9.2045                18.6180

                     19                     20                     21
                      A                      A                      A
 Frequencies --    358.6582               362.7733               368.0007
 Red. masses --      5.9442                 3.5421                 1.6473
 Frc consts  --      0.4505                 0.2747                 0.1314
 IR Inten    --     12.7323                10.1186                 5.5376

                     22                     23                     24
                      A                      A                      A
 Frequencies --    377.8515               400.5274               404.2270
 Red. masses --      2.8430                 7.5718                 9.8728
 Frc consts  --      0.2391                 0.7157                 0.9505
 IR Inten    --     14.2057                67.2122                26.3889

                     25                     26                     27
                      A                      A                      A
 Frequencies --    440.4302               480.0722               521.9612
 Red. masses --      5.7606                11.1851                 9.3479
 Frc consts  --      0.6584                 1.5188                 1.5005
 IR Inten    --     71.4807                23.8685               206.2988

                     28                     29                     30
                      A                      A                      A
 Frequencies --    542.0543               552.5241               592.0879
 Red. masses --      5.7574                 9.7523                 6.3566
 Frc consts  --      0.9967                 1.7541                 1.3129
 IR Inten    --      6.4673                10.8854                 3.7166

                     31                     32                     33
                      A                      A                      A
 Frequencies --    631.6946               676.4816               680.6247
 Red. masses --      9.8922                 8.1380                 1.3056
 Frc consts  --      2.3257                 2.1942                 0.3563
 IR Inten    --      6.2466                 4.1086                56.9560

                     34                     35                     36
                      A                      A                      A
 Frequencies --    703.9884               733.6918               747.8894
 Red. masses --      2.4408                 7.3926                 4.5738
 Frc consts  --      0.7127                 2.3446                 1.5073
 IR Inten    --     71.3935                 6.1537               233.0621

                     37                     38                     39
                      A                      A                      A
 Frequencies --    773.9431               778.2787               823.8004
 Red. masses --      2.8235                 8.6825                 3.4015
 Frc consts  --      0.9964                 3.0986                 1.3601
 IR Inten    --      2.3672                 5.4072                 5.8926

                     40                     41                     42
                      A                      A                      A
 Frequencies --    849.8491               898.0299               927.8135
 Red. masses --      1.0583                 2.9432                 5.1228
 Frc consts  --      0.4504                 1.3985                 2.5982
 IR Inten    --     64.9006               160.1553               332.7256

                     43                     44                     45
                      A                      A                      A
 Frequencies --    984.0243               998.8005              1061.1217
 Red. masses --      4.2283                 4.2084                 2.3186
 Frc consts  --      2.4123                 2.4736                 1.5382
 IR Inten    --     65.9547               158.0378                37.6650

                     46                     47                     48
                      A                      A                      A
 Frequencies --   1072.4217              1107.6483              1116.5286
 Red. masses --      2.0831                 5.3959                 4.6220
 Frc consts  --      1.4116                 3.9005                 3.3949
 IR Inten    --      8.5533                90.4307               169.8470

                     49                     50                     51
                      A                      A                      A
 Frequencies --   1192.2823              1206.8528              1241.0621
 Red. masses --      6.0695                 2.9424                 1.8155
 Frc consts  --      5.0835                 2.5250                 1.6475
 IR Inten    --    496.4805                41.6618               543.7825

                     52                     53                     54
                      A                      A                      A
 Frequencies --   1269.5588              1277.4534              1290.2721
 Red. masses --      1.7636                 2.3676                 1.5366
 Frc consts  --      1.6748                 2.2764                 1.5072
 IR Inten    --    130.0758               108.4376                25.4266

                     55                     56                     57
                      A                      A                      A
 Frequencies --   1312.3438              1326.0219              1341.2333
 Red. masses --      3.7823                 1.5358                 1.7027
 Frc consts  --      3.8379                 1.5910                 1.8046
 IR Inten    --    818.1101               484.0002               243.7341

                     58                     59                     60
                      A                      A                      A
 Frequencies --   1371.7170              1383.4506              1395.3770
 Red. masses --      1.2753                 4.7252                 3.5938
 Frc consts  --      1.4138                 5.3285                 4.1228
 IR Inten    --     27.0257                14.1541               408.6894

                     61                     62                     63
                      A                      A                      A
 Frequencies --   1426.6828              1443.1895              1456.5133
 Red. masses --      3.8444                 2.0707                 1.8824
 Frc consts  --      4.6103                 2.5410                 2.3528
 IR Inten    --   1030.6285               437.8102               327.1254

                     64                     65                     66
                      A                      A                      A
 Frequencies --   1476.0556              1478.1499              1495.7435
 Red. masses --      1.6232                 1.2358                 1.0721
 Frc consts  --      2.0836                 1.5908                 1.4132
 IR Inten    --    149.8951               194.8366                46.4489

                     67                     68                     69
                      A                      A                      A
 Frequencies --   1513.7976              1568.1624              1627.4822
 Red. masses --      3.6199                 2.4574                 4.0196
 Frc consts  --      4.8875                 3.5604                 6.2729
 IR Inten    --    951.8217               363.0935               183.0327

                     70                     71                     72
                      A                      A                      A
 Frequencies --   1630.6927              1676.1692              2869.3185
 Red. masses --      6.1744                 3.1503                 1.0720
 Frc consts  --      9.6736                 5.2147                 5.1999
 IR Inten    --     88.3922               895.3265               254.3046

                     73                     74                     75
                      A                      A                      A
 Frequencies --   2937.0787              3018.4492              3036.2684
 Red. masses --      1.0553                 1.0823                 1.0828
 Frc consts  --      5.3637                 5.8099                 5.8813
 IR Inten    --    104.2133                 5.4509                57.2626

                     76                     77                     78
                      A                      A                      A
 Frequencies --   3083.5784              3103.7473              3429.8899
 Red. masses --      1.0978                 1.0721                 1.0635
 Frc consts  --      6.1503                 6.0848                 7.3713
 IR Inten    --     14.1894              1160.9851               100.1928

                     79                     80                     81
                      A                      A                      A
 Frequencies --   3784.1660              3810.2750              3833.5344
 Red. masses --      1.0649                 1.0657                 1.0650
 Frc consts  --      8.9849                 9.1158                 9.2212
 IR Inten    --     91.2854               125.3006                25.1528

 - Thermochemistry -
 -------------------
 Temperature   298.150 Kelvin.  Pressure   1.00000 Atm.
 Atom     1 has atomic number  6 and mass  12.00000

 Molecular mass:   266.04265 amu.
 Principal axes and moments of inertia in atomic units:
                           1         2         3
     Eigenvalues --  3012.205436046.728098883.47322
           X            0.93098  -0.30543  -0.19996
           Y            0.30679   0.95145  -0.02494
           Z            0.19787  -0.03812   0.97949
 This molecule is an asymmetric top.
 Rotational symmetry number  1.
 Warning -- assumption of classical behavior for rotation
           may cause significant error
 Rotational temperatures (Kelvin)      0.02875     0.01432     0.00975
 Rotational constants (GHZ):           0.59914     0.29847     0.20316
 Zero-point vibrational energy     538252.5 (Joules/Mol)
                                  128.64544 (Kcal/Mol)
 Warning -- explicit consideration of  30 degrees of freedom as
           vibrations may cause significant error
 Vibrational temperatures:     71.79    77.20    90.75   143.14   163.64
          (Kelvin)            214.59   251.73   270.44   294.52   340.57
                              348.16   377.65   400.55   419.80   450.05
                              464.02   474.21   491.44   516.03   521.95
                              529.47   543.64   576.27   581.59   633.68
                              690.72   750.99   779.90   794.96   851.88
                              908.87   973.31   979.27  1012.88  1055.62
                             1076.05  1113.53  1119.77  1185.27  1222.74
                             1292.06  1334.92  1415.79  1437.05  1526.72
                             1542.98  1593.66  1606.44  1715.43  1736.39
                             1785.61  1826.61  1837.97  1856.41  1888.17
                             1907.85  1929.74  1973.59  1990.48  2007.64
                             2052.68  2076.43  2095.60  2123.71  2126.73
                             2152.04  2178.02  2256.24  2341.58  2346.20
                             2411.63  4128.31  4225.80  4342.88  4368.51
                             4436.58  4465.60  4934.85  5444.57  5482.14
                             5515.60

 Zero-point correction=                           0.205010 (Hartree/Particle)
 Thermal correction to Energy=                    0.222766
 Thermal correction to Enthalpy=                  0.223710
 Thermal correction to Gibbs Free Energy=         0.160393
 Sum of electronic and zero-point Energies=           -989.950532
 Sum of electronic and thermal Energies=              -989.932776
 Sum of electronic and thermal Enthalpies=            -989.931832
 Sum of electronic and thermal Free Energies=         -989.995148

                     E (Thermal)             CV                S
                      KCal/Mol        Cal/Mol-Kelvin    Cal/Mol-Kelvin
 Total                  139.788             67.832            133.261
 Electronic               0.000              0.000              0.000
 Translational            0.889              2.981             42.635
 Rotational               0.889              2.981             33.447
 Vibrational            138.010             61.870             57.178
 Vibration     1          0.595              1.978              4.822
 Vibration     2          0.596              1.976              4.678
 Vibration     3          0.597              1.972              4.359
 Vibration     4          0.604              1.949              3.464
 Vibration     5          0.607              1.938              3.204
 Vibration     6          0.618              1.904              2.683
 Vibration     7          0.627              1.873              2.381
 Vibration     8          0.633              1.856              2.248
 Vibration     9          0.640              1.833              2.090
 Vibration    10          0.656              1.785              1.828
 Vibration    11          0.658              1.776              1.788
 Vibration    12          0.670              1.742              1.645
 Vibration    13          0.679              1.713              1.544
 Vibration    14          0.687              1.689              1.464
 Vibration    15          0.701              1.649              1.347
 Vibration    16          0.708              1.630              1.297
 Vibration    17          0.712              1.616              1.262
 Vibration    18          0.721              1.592              1.205
 Vibration    19          0.733              1.557              1.128
 Vibration    20          0.737              1.549              1.110
 Vibration    21          0.741              1.538              1.088
 Vibration    22          0.748              1.517              1.048
 Vibration    23          0.766              1.469              0.961
 Vibration    24          0.769              1.461              0.947
 Vibration    25          0.800              1.382              0.825
 Vibration    26          0.836              1.294              0.710
 Vibration    27          0.877              1.201              0.605
 Vibration    28          0.897              1.157              0.561
 Vibration    29          0.908              1.134              0.539
 Vibration    30          0.950              1.049              0.463

                           ! Non-Optimized Parameters !
 Normal termination of Gaussian 16 at Tue Jan  9 02:44:23 2024.
