 Q-Chem 5.4, Q-Chem, Inc., Pleasanton, CA (2021)
 Q-Chem 5.4.0 for Intel X86 EM64T Linux

User input:
--------------------------------------------------------------
$molecule
-2 1
C                  3.7655890000      0.1397920000     -0.1979730000
C                  2.7365840000      0.1270690000      0.9551200000
C                  1.2999130000      0.2456950000      0.5257610000
C                  0.5854660000     -0.9838800000      0.3145800000
O                  1.1674670000     -2.1090780000      0.4509010000
C                 -0.8407040000     -0.8578050000     -0.0522990000
C                 -1.6701680000     -1.9936090000     -0.2865370000
O                 -1.2106960000     -3.3045770000     -0.1939850000
C                 -3.0020940000     -1.8211360000     -0.6301310000
O                 -3.8011370000     -2.9600490000     -0.8597870000
C                 -3.5541840000     -0.5522310000     -0.7646670000
O                 -4.8899410000     -0.3917920000     -1.1261140000
C                 -2.8159590000      0.6089860000     -0.5601050000
C                 -1.4333940000      0.4566540000     -0.1876450000
C                 -0.6544290000      1.6346820000      0.0386210000
C                  0.6721250000      1.5063820000      0.3881790000
O                  1.3998840000      2.6867680000      0.6010320000
O                 -1.2189220000      2.8888800000     -0.1030980000
O                 -3.4520070000      1.7634420000     -0.7243870000
H                  3.5580760000     -0.6919820000     -0.8761300000
H                  3.7111040000      1.0685190000     -0.7774700000
H                  4.7967770000      0.0343980000      0.1793090000
H                  2.8318790000     -0.8326810000      1.4750710000
H                  3.0195410000      0.9097720000      1.6864880000
H                 -1.9597260000     -3.8484400000     -0.4658530000
H                  2.2740280000      2.4136140000      0.8935480000
H                 -2.1653860000      2.7078180000     -0.3648070000
H                 -4.6513210000     -2.6177010000     -1.1589580000
H                 -4.9341960000      0.5933460000     -1.1377900000
$end
$rem
MAX_SCF_CYCLES=200
BASIS  =  6-311++G(d,p)
GUI  =  2
JOB_TYPE  =  SP
METHOD  =  B3LYP
SOLVENT_METHOD = COSMO
$end
$solvent
dielectric 37.219
opticaldielectric 1.43
$end

--------------------------------------------------------------

             Standard Nuclear Orientation (Angstroms)
    I     Atom           X                Y                Z
 ----------------------------------------------------------------
    1      C      -4.4065867198    -1.0717063789     0.9696666465
    2      C      -3.6632669715    -0.8202201547    -0.3618238950
    3      C      -2.2691817168    -0.2741325465    -0.2177424323
    4      C      -1.1998798079    -1.2344896343    -0.1831837469
    5      O      -1.4426091879    -2.4842508661    -0.2337646702
    6      C       0.1700588329    -0.6863228118    -0.0981118334
    7      C       1.3241474325    -1.5227550099    -0.0608374923
    8      O       1.2589372605    -2.9129807335    -0.0974101521
    9      C       2.5877537475    -0.9584614227     0.0210311239
   10      O       3.7133735296    -1.8068848715     0.0596597852
   11      C       2.7601393196     0.4198995968     0.0795744134
   12      O       4.0343170749     0.9743717964     0.1778749595
   13      C       1.6898291862     1.3081809913     0.0542946580
   14      C       0.3673110847     0.7474560011    -0.0454591666
   15      C      -0.7502769545     1.6392369810    -0.0836219906
   16      C      -2.0229174998     1.1185502262    -0.1711922264
   17      O      -3.0906381795     2.0279472947    -0.2061234811
   18      O      -0.5605845331     3.0073838604    -0.0208514024
   19      O       1.9800527825     2.6025637337     0.1225432500
   20      H      -3.8375100434    -1.7848590868     1.5716396530
   21      H      -4.5143482191    -0.1496126810     1.5522899384
   22      H      -5.4147156607    -1.4852133380     0.7979508135
   23      H      -3.5730902209    -1.7819900695    -0.8789476970
   24      H      -4.2989906203    -0.1776711458    -1.0025843924
   25      H       2.1720646462    -3.2057984025     0.0084260576
   26      H      -3.8862254197     1.5025596910    -0.3298783185
   27      H       0.4294513691     3.1186689547     0.0463326133
   28      H       4.4675999249    -1.2221274545     0.1964793089
   29      H       3.7901946679     1.9294267949     0.2073013629
 ----------------------------------------------------------------

   12    -990.1555379987      6.91e-06  Convergence criterion met
 Total energy in the final basis set =     -990.1555379987
    6    -990.4334953871      2.95e-06  Convergence criterion met
 Total energy in the final basis set =     -990.4334953871

                    Orbital Energies (a.u.)
 --------------------------------------------------------------

 Alpha MOs
 -- Occupied --
-19.1474 -19.1349 -19.1335 -19.1300 -19.1049 -19.0567 -19.0251 -10.2071
-10.2048 -10.1972 -10.1943 -10.1922 -10.1898 -10.1850 -10.1551 -10.1524
-10.1517 -10.1459 -10.1300  -1.0606  -1.0406  -1.0389  -1.0252  -1.0126
 -0.9521  -0.9503  -0.8234  -0.7833  -0.7515  -0.7066  -0.6993  -0.6648
 -0.6228  -0.6041  -0.5808  -0.5584  -0.5494  -0.5215  -0.5165  -0.4848
 -0.4836  -0.4603  -0.4428  -0.4310  -0.4294  -0.4137  -0.4092  -0.4029
 -0.3957  -0.3874  -0.3804  -0.3733  -0.3671  -0.3635  -0.3583  -0.3563
 -0.3538  -0.3412  -0.3344  -0.3285  -0.3221  -0.3196  -0.3148  -0.2685
 -0.2424  -0.2311  -0.2006  -0.1946  -0.1796  -0.1229

          Ground-State Mulliken Net Atomic Charges

     Atom                 Charge (a.u.)
  ----------------------------------------
      1 C                    -0.600769
      2 C                    -0.162242
      3 C                     1.261535
      4 C                    -0.428687
      5 O                    -0.663337
      6 C                     0.549975
      7 C                    -0.296341
      8 O                    -0.333144
      9 C                    -0.346668
     10 O                    -0.398597
     11 C                    -0.169798
     12 O                    -0.405985
     13 C                    -0.379110
     14 C                     0.876791
     15 C                    -0.499852
     16 C                    -0.777293
     17 O                    -0.353186
     18 O                    -0.531188
     19 O                    -0.744938
     20 H                     0.170647
     21 H                     0.141982
     22 H                     0.132657
     23 H                     0.175196
     24 H                     0.124917
     25 H                     0.308058
     26 H                     0.308809
     27 H                     0.399439
     28 H                     0.324273
     29 H                     0.316856
  ----------------------------------------
  Sum of atomic charges =    -2.000000

                    Cartesian Multipole Moments
 -----------------------------------------------------------------
    Charge (ESU x 10^10)
                -9.6064
    Dipole Moment (Debye)
         X      -0.0106      Y      -1.3654      Z       0.8168
       Tot       1.5911
    Quadrupole Moments (Debye-Ang)
        XX    -140.3920     XY     -11.8216     YY    -182.5793
        XZ       0.8874     YZ      -3.0650     ZZ    -120.4174

 Total job time:  83.87s(wall), 643.24s(cpu)
        *  Thank you very much for using Q-Chem.  Have a nice day.  *
