 Q-Chem 5.4, Q-Chem, Inc., Pleasanton, CA (2021)
 Q-Chem 5.4.0 for Intel X86 EM64T Linux

User input:
--------------------------------------------------------------
$molecule
-2 1
C                 -1.3673760000      2.0357070000     -4.7058270000
C                 -1.3805700000      0.6869930000     -4.9929490000
C                 -1.2847940000     -0.2589200000     -3.9324510000
C                 -1.2668470000      2.5236320000     -3.3759940000
C                 -1.1698560000      1.5668760000     -2.3033440000
C                 -1.1799130000      0.1851820000     -2.6311370000
C                 -1.2488170000      3.9416500000     -3.1379580000
C                 -1.0488340000      1.9709960000     -0.9286340000
C                 -1.1636350000      4.3604070000     -1.7606680000
C                 -1.0651220000      3.3901140000     -0.6728040000
C                 -1.1213080000      5.7787900000     -1.4338970000
C                 -0.8910200000      6.1844720000     -0.1314510000
C                 -0.7950140000      5.2408640000      0.9264340000
C                 -0.9286480000      3.8843220000      0.6901210000
O                 -1.2917310000      4.7695050000     -4.1513130000
O                 -0.9156780000      1.0625080000      0.0045970000
H                 -1.4338750000      2.7826100000     -5.4901820000
H                 -1.4630730000      0.3454700000     -6.0236240000
H                 -1.2938820000     -1.3258820000     -4.1498060000
H                 -1.1005430000     -0.5084600000     -1.8004380000
H                 -0.6661970000      5.6045300000      1.9410640000
H                 -0.8328760000      7.2423380000      0.1048630000
N                 -1.3345230000      6.7027290000     -2.4605260000
N                 -0.9536390000      2.9588320000      1.7371350000
C                 -0.8455130000      8.0457040000     -2.3543480000
C                 -0.3564530000      3.2653750000      3.0034860000
H                 -1.2859300000      6.2116040000     -3.3770280000
H                 -0.8578880000      1.9989540000      1.3460130000
H                  0.2142550000      8.1096600000     -2.0276830000
H                 -1.4260680000      8.6524220000     -1.6393520000
H                 -0.9275970000      8.5327060000     -3.3327830000
H                 -0.9473060000      3.9924080000      3.5854000000
H                  0.6667900000      3.6900070000      2.9226030000
H                 -0.2954190000      2.3476730000      3.5996110000
$end

$rem
BASIS  =  6-311++G(d,p)
GUI  =  2
JOB_TYPE  =  SP
METHOD  =  B3LYP
SCF_CONVERGENCE  = 8
SOLVENT_METHOD = sm12
$end

$smx
solvent dimethylformamide
charges CM5
$end

--------------------------------------------------------------

             Standard Nuclear Orientation (Angstroms)
    I     Atom           X                Y                Z
 ----------------------------------------------------------------
    1      C      -1.3673760000     2.0357070000    -4.7058270000
    2      C      -1.3805700000     0.6869930000    -4.9929490000
    3      C      -1.2847940000    -0.2589200000    -3.9324510000
    4      C      -1.2668470000     2.5236320000    -3.3759940000
    5      C      -1.1698560000     1.5668760000    -2.3033440000
    6      C      -1.1799130000     0.1851820000    -2.6311370000
    7      C      -1.2488170000     3.9416500000    -3.1379580000
    8      C      -1.0488340000     1.9709960000    -0.9286340000
    9      C      -1.1636350000     4.3604070000    -1.7606680000
   10      C      -1.0651220000     3.3901140000    -0.6728040000
   11      C      -1.1213080000     5.7787900000    -1.4338970000
   12      C      -0.8910200000     6.1844720000    -0.1314510000
   13      C      -0.7950140000     5.2408640000     0.9264340000
   14      C      -0.9286480000     3.8843220000     0.6901210000
   15      O      -1.2917310000     4.7695050000    -4.1513130000
   16      O      -0.9156780000     1.0625080000     0.0045970000
   17      H      -1.4338750000     2.7826100000    -5.4901820000
   18      H      -1.4630730000     0.3454700000    -6.0236240000
   19      H      -1.2938820000    -1.3258820000    -4.1498060000
   20      H      -1.1005430000    -0.5084600000    -1.8004380000
   21      H      -0.6661970000     5.6045300000     1.9410640000
   22      H      -0.8328760000     7.2423380000     0.1048630000
   23      N      -1.3345230000     6.7027290000    -2.4605260000
   24      N      -0.9536390000     2.9588320000     1.7371350000
   25      C      -0.8455130000     8.0457040000    -2.3543480000
   26      C      -0.3564530000     3.2653750000     3.0034860000
   27      H      -1.2859300000     6.2116040000    -3.3770280000
   28      H      -0.8578880000     1.9989540000     1.3460130000
   29      H       0.2142550000     8.1096600000    -2.0276830000
   30      H      -1.4260680000     8.6524220000    -1.6393520000
   31      H      -0.9275970000     8.5327060000    -3.3327830000
   32      H      -0.9473060000     3.9924080000     3.5854000000
   33      H       0.6667900000     3.6900070000     2.9226030000
   34      H      -0.2954190000     2.3476730000     3.5996110000
 ----------------------------------------------------------------

   17    -878.3057109200      9.07e-09  Convergence criterion met
 Total energy in the final basis set =     -878.5884509448

                    Orbital Energies (a.u.)
 --------------------------------------------------------------

 Alpha MOs
 -- Occupied --
-19.0372 -19.0372 -14.2931 -14.2931 -10.1995 -10.1995 -10.1958 -10.1958
-10.1941 -10.1941 -10.1733 -10.1728 -10.1682 -10.1681 -10.1604 -10.1601
-10.1558 -10.1554 -10.1546 -10.1541  -0.9574  -0.9544  -0.9118  -0.9075
 -0.8454  -0.8172  -0.7696  -0.7434  -0.7339  -0.7275  -0.6856  -0.6621
 -0.6524  -0.6188  -0.6080  -0.5676  -0.5532  -0.5265  -0.5138  -0.4903
 -0.4897  -0.4647  -0.4530  -0.4524  -0.4490  -0.4362  -0.4312  -0.4193
 -0.4192  -0.4021  -0.3961  -0.3924  -0.3921  -0.3717  -0.3710  -0.3628
 -0.3594  -0.3526  -0.3422  -0.3375  -0.3221  -0.3185  -0.2993  -0.2475
 -0.2470  -0.2370  -0.2326  -0.2156  -0.2115  -0.1752  -0.1204

          Ground-State Mulliken Net Atomic Charges

     Atom                 Charge (a.u.)
  ----------------------------------------
      1 C                     0.179039
      2 C                     1.673550
      3 C                     1.671242
      4 C                    -0.808935
      5 C                    -0.812831
      6 C                     0.178101
      7 C                    -2.171612
      8 C                    -2.175671
      9 C                    -1.127018
     10 C                    -1.132696
     11 C                    -1.433862
     12 C                     1.132619
     13 C                     1.123054
     14 C                    -1.430602
     15 O                    -0.299586
     16 O                    -0.299497
     17 H                     0.162560
     18 H                     0.406155
     19 H                     0.405927
     20 H                     0.162272
     21 H                     0.291566
     22 H                     0.290875
     23 N                    -0.232580
     24 N                    -0.231320
     25 C                     0.208274
     26 C                     0.208123
     27 H                     0.298663
     28 H                     0.298034
     29 H                     0.176787
     30 H                     0.208068
     31 H                     0.348823
     32 H                     0.207835
     33 H                     0.176042
     34 H                     0.348602
  ----------------------------------------
  Sum of atomic charges =    -2.000000

                    Cartesian Multipole Moments
 -----------------------------------------------------------------
    Charge (ESU x 10^10)
                -9.6064
    Dipole Moment (Debye)
         X      11.4530      Y     -31.0930      Z      17.0831
       Tot      37.2797
    Quadrupole Moments (Debye-Ang)
        XX    -149.8081     XY      38.4382     YY    -272.3115
        XZ     -22.5360     YZ      56.9338     ZZ    -202.3712

 Total job time:  1179.10s(wall), 9094.85s(cpu)
        *  Thank you very much for using Q-Chem.  Have a nice day.  *
