 Gaussian 16, Revision A.03,
 Gaussian 16:  ES64L-G16RevA.03 25-Dec-2016

 --------------------------------------
 #P UB3LYP/6-311++G(d,p) nosym opt freq
 --------------------------------------

 -------
 Reduced
 -------
 Symbolic Z-matrix:
 Charge = -2 Multiplicity = 1

 SCF Done:  E(UB3LYP) =  -728.203115255     A.U. after   70 cycles
 SCF Done:  E(UB3LYP) =  -728.234788634     A.U. after   40 cycles
 SCF Done:  E(UB3LYP) =  -728.243285452     A.U. after   36 cycles
 SCF Done:  E(UB3LYP) =  -728.244750728     A.U. after   27 cycles
 SCF Done:  E(UB3LYP) =  -728.244876106     A.U. after   25 cycles
 SCF Done:  E(UB3LYP) =  -728.244834999     A.U. after   24 cycles
 SCF Done:  E(UB3LYP) =  -728.244921055     A.U. after   26 cycles
 SCF Done:  E(UB3LYP) =  -728.244923130     A.U. after   23 cycles
 SCF Done:  E(UB3LYP) =  -728.244923502     A.U. after   22 cycles
 Optimization completed.
    -- Stationary point found.
 Normal termination of Gaussian 16 at Thu Dec 21 06:34:48 2023.

 ----------------------------------------------------------------------
 #P Geom=AllCheck Guess=TCheck SCRF=Check GenChk UB3LYP/6-311++G(d,p) F
 req
 ----------------------------------------------------------------------

 Structure from the checkpoint file:  "123-an.chk"
 -------
 Reduced
 -------
 Charge = -2 Multiplicity = 1

                          Input orientation:
 ---------------------------------------------------------------------
 Center     Atomic      Atomic             Coordinates (Angstroms)
 Number     Number       Type             X           Y           Z
 ---------------------------------------------------------------------
      1          6           0       -2.884358   -1.925635   -0.140170
      2          6           0       -2.391694   -0.494023   -0.050414
      3          6           0       -3.351359    0.499679    0.049627
      4          6           0       -2.995704    1.874700    0.138391
      5          6           0       -1.667745    2.224075    0.123927
      6          6           0       -0.632220    1.256913    0.023445
      7          6           0        0.728428    1.746065    0.017829
      8          8           0        1.020634    3.001749    0.098867
      9          6           0        1.735503    0.720372   -0.085455
     10          6           0        3.108211    1.084917   -0.100458
     11          6           0        4.119368    0.152063   -0.197058
     12          6           0        3.790412   -1.232606   -0.285908
     13          6           0        2.465323   -1.618629   -0.273832
     14          6           0        1.399300   -0.686825   -0.175638
     15          6           0        0.037288   -1.182231   -0.170294
     16          8           0       -0.209393   -2.447976   -0.252602
     17          6           0       -0.988115   -0.162183   -0.067565
     18          1           0       -3.984392   -1.937492   -0.112114
     19          1           0       -2.489163   -2.538703    0.672604
     20          1           0       -2.534075   -2.415027   -1.051339
     21          1           0       -4.403086    0.214941    0.059788
     22          1           0       -3.772353    2.634634    0.216225
     23          1           0       -1.344690    3.258401    0.188729
     24          1           0        3.321533    2.147623   -0.031088
     25          1           0        5.161886    0.468420   -0.205561
     26          1           0        4.580307   -1.978857   -0.362689
     27          1           0        2.180155   -2.664366   -0.339870
 ---------------------------------------------------------------------

 SCF Done:  E(UB3LYP) =  -728.244923502     A.U. after    1 cycles

 Alpha  occ. eigenvalues --  -18.76559 -18.76371  -9.92934  -9.92759  -9.92378
 Alpha  occ. eigenvalues --   -9.92049  -9.91977  -9.91893  -9.91562  -9.91281
 Alpha  occ. eigenvalues --   -9.91024  -9.90991  -9.90501  -9.89919  -9.89216
 Alpha  occ. eigenvalues --   -9.89162  -9.89140  -0.68406  -0.67821  -0.58798
 Alpha  occ. eigenvalues --   -0.58410  -0.51598  -0.50826  -0.48426  -0.46651
 Alpha  occ. eigenvalues --   -0.43196  -0.39183  -0.36667  -0.35098  -0.31207
 Alpha  occ. eigenvalues --   -0.27990  -0.27098  -0.25405  -0.20748  -0.20060
 Alpha  occ. eigenvalues --   -0.19937  -0.18801  -0.16990  -0.16127  -0.15225
 Alpha  occ. eigenvalues --   -0.14727  -0.13044  -0.12748  -0.12618  -0.11264
 Alpha  occ. eigenvalues --   -0.10278  -0.09545  -0.08169  -0.07471  -0.06876
 Alpha  occ. eigenvalues --   -0.05921  -0.05399   0.00768   0.01823   0.02502
 Alpha  occ. eigenvalues --    0.02854   0.05465   0.06027   0.14331
 Alpha virt. eigenvalues --    0.16411   0.16546   0.17673   0.18249   0.19558
 Alpha virt. eigenvalues --    0.21034   0.21176   0.21245   0.22135   0.22770
 Alpha virt. eigenvalues --    0.23039   0.23511   0.25597   0.26053   0.26459

  Beta  occ. eigenvalues --  -18.76559 -18.76371  -9.92934  -9.92759  -9.92378
  Beta  occ. eigenvalues --   -9.92049  -9.91977  -9.91893  -9.91562  -9.91281
  Beta  occ. eigenvalues --   -9.91024  -9.90991  -9.90501  -9.89919  -9.89216
  Beta  occ. eigenvalues --   -9.89162  -9.89140  -0.68406  -0.67821  -0.58798
  Beta  occ. eigenvalues --   -0.58410  -0.51598  -0.50826  -0.48426  -0.46651
  Beta  occ. eigenvalues --   -0.43196  -0.39183  -0.36667  -0.35098  -0.31207
  Beta  occ. eigenvalues --   -0.27990  -0.27098  -0.25405  -0.20748  -0.20060
  Beta  occ. eigenvalues --   -0.19937  -0.18801  -0.16990  -0.16127  -0.15225
  Beta  occ. eigenvalues --   -0.14727  -0.13044  -0.12748  -0.12618  -0.11264
  Beta  occ. eigenvalues --   -0.10278  -0.09545  -0.08169  -0.07471  -0.06876
  Beta  occ. eigenvalues --   -0.05921  -0.05399   0.00768   0.01823   0.02502
  Beta  occ. eigenvalues --    0.02854   0.05465   0.06027   0.14331
  Beta virt. eigenvalues --    0.16411   0.16546   0.17673   0.18249   0.19558
  Beta virt. eigenvalues --    0.21034   0.21176   0.21245   0.22135   0.22770
  Beta virt. eigenvalues --    0.23039   0.23511   0.25597   0.26053   0.26459

 Mulliken charges and spin densities:
               1          2
     1  C   -0.627423   0.000000
     2  C    0.911774  -0.000000
     3  C   -0.495464  -0.000000
     4  C   -0.381913  -0.000000
     5  C   -0.075298   0.000000
     6  C    0.556477   0.000000
     7  C   -0.929606  -0.000000
     8  O   -0.516613   0.000000
     9  C    0.316901   0.000000
    10  C   -0.057094  -0.000000
    11  C   -0.419195   0.000000
    12  C   -0.498800   0.000000
    13  C    0.034084  -0.000000
    14  C    0.274782  -0.000000
    15  C   -0.926035   0.000000
    16  O   -0.492305  -0.000000
    17  C    0.365885   0.000000
    18  H    0.054648   0.000000
    19  H    0.149055   0.000000
    20  H    0.149566   0.000000
    21  H    0.011597  -0.000000
    22  H    0.083252  -0.000000
    23  H    0.122020   0.000000
    24  H    0.122153   0.000000
    25  H    0.066983  -0.000000
    26  H    0.066823   0.000000
    27  H    0.133749  -0.000000
 Sum of Mulliken charges =  -2.00000  -0.00000

 Dipole moment (field-independent basis, Debye):
    X=             -3.1236    Y=             -2.8796    Z=              0.7029  Tot=              4.3061
 Quadrupole moment (field-independent basis, Debye-Ang):
   XX=           -158.5041   YY=           -161.5714   ZZ=           -113.8797
   XY=             -3.5710   XZ=              1.3455   YZ=             -3.0720

  Exact polarizability: 426.606 -29.009 269.071 -10.265   9.641 149.401
 Approx polarizability: 732.847 -62.242 491.954 -20.140  22.445 206.825

                      1                      2                      3
                      A                      A                      A
 Frequencies --     48.9491                65.5665               125.4874
 Red. masses --      5.6866                 4.3108                 4.2745
 Frc consts  --      0.0080                 0.0109                 0.0397
 IR Inten    --      6.5224                 0.1218                 0.0394

                      4                      5                      6
                      A                      A                      A
 Frequencies --    161.3948               172.9785               218.7413
 Red. masses --      2.0742                 2.0329                 4.3630
 Frc consts  --      0.0318                 0.0358                 0.1230
 IR Inten    --      4.6889                 0.1119                 6.6812

                      7                      8                      9
                      A                      A                      A
 Frequencies --    219.2022               252.6247               310.0144
 Red. masses --      2.5378                 4.5099                 6.3153
 Frc consts  --      0.0718                 0.1696                 0.3576
 IR Inten    --      1.0107                 0.5729                 2.0645

                     10                     11                     12
                      A                      A                      A
 Frequencies --    342.4613               373.7645               385.2408
 Red. masses --      4.8576                11.9645                 6.3979
 Frc consts  --      0.3357                 0.9848                 0.5594
 IR Inten    --      3.0940                 1.1676                 0.6050

                     13                     14                     15
                      A                      A                      A
 Frequencies --    386.1794               435.8178               447.3786
 Red. masses --      7.9330                 3.3628                 4.4136
 Frc consts  --      0.6970                 0.3763                 0.5205
 IR Inten    --      0.4122                 0.1654                 1.9012

                     16                     17                     18
                      A                      A                      A
 Frequencies --    490.1934               496.4639               525.8007
 Red. masses --      4.1092                10.3294                 3.5820
 Frc consts  --      0.5818                 1.5000                 0.5835
 IR Inten    --      0.3566                 0.2558                 9.0326

                     19                     20                     21
                      A                      A                      A
 Frequencies --    545.5567               603.0288               620.3897
 Red. masses --      5.2332                 6.3514                 4.2900
 Frc consts  --      0.9177                 1.3608                 0.9728
 IR Inten    --      3.6524                25.9015                 2.0229

                     22                     23                     24
                      A                      A                      A
 Frequencies --    654.3331               671.4981               689.1789
 Red. masses --      6.3280                 1.6282                 6.9724
 Frc consts  --      1.5963                 0.4326                 1.9512
 IR Inten    --      1.7388               113.0615                 1.0544

                     25                     26                     27
                      A                      A                      A
 Frequencies --    706.2536               720.7343               755.5564
 Red. masses --      2.1116                 1.6124                 2.6129
 Frc consts  --      0.6206                 0.4935                 0.8788
 IR Inten    --      1.5878                 4.5981                26.0803

                     28                     29                     30
                      A                      A                      A
 Frequencies --    765.4542               782.6962               792.7422
 Red. masses --      1.6987                 1.4348                 5.8927
 Frc consts  --      0.5864                 0.5179                 2.1819
 IR Inten    --      0.4286                 0.0060                 7.3593

                     31                     32                     33
                      A                      A                      A
 Frequencies --    831.7021               856.8086               928.4356
 Red. masses --      5.0969                 6.3812                 5.3846
 Frc consts  --      2.0773                 2.7601                 2.7347
 IR Inten    --      0.0893                14.6264                 0.6389

                     34                     35                     36
                      A                      A                      A
 Frequencies --    949.3136               954.5098               958.2813
 Red. masses --      1.2444                 1.2950                 1.3516
 Frc consts  --      0.6607                 0.6951                 0.7313
 IR Inten    --      0.0786                 0.1908                 4.7854

                     37                     38                     39
                      A                      A                      A
 Frequencies --    970.8538              1007.3042              1022.4464
 Red. masses --      2.8435                 2.0838                 2.3475
 Frc consts  --      1.5791                 1.2458                 1.4459
 IR Inten    --      7.6656               129.5350                48.6137

                     40                     41                     42
                      A                      A                      A
 Frequencies --   1045.4859              1078.1876              1091.9534
 Red. masses --      1.4992                 1.8899                 2.1123
 Frc consts  --      0.9655                 1.2944                 1.4840
 IR Inten    --      0.4386               123.5295                72.1959

                     43                     44                     45
                      A                      A                      A
 Frequencies --   1109.9326              1146.9325              1165.2715
 Red. masses --      1.4834                 1.2400                 2.9508
 Frc consts  --      1.0767                 0.9611                 2.3607
 IR Inten    --    174.9943                16.5257                60.5834

                     46                     47                     48
                      A                      A                      A
 Frequencies --   1188.3426              1213.8374              1225.1428
 Red. masses --      2.0791                 2.6954                 2.5620
 Frc consts  --      1.7298                 2.3399                 2.2657
 IR Inten    --     64.1222               181.2506                28.4831

                     49                     50                     51
                      A                      A                      A
 Frequencies --   1236.9747              1308.0803              1345.3345
 Red. masses --      2.3780                 5.5954                 6.6471
 Frc consts  --      2.1438                 5.6410                 7.0883
 IR Inten    --    154.4836                92.4595               381.5947

                     52                     53                     54
                      A                      A                      A
 Frequencies --   1349.4020              1363.2610              1400.8335
 Red. masses --      2.5612                 2.6984                 1.3716
 Frc consts  --      2.7477                 2.9547                 1.5858
 IR Inten    --    253.7357               685.2717                22.3780

                     55                     56                     57
                      A                      A                      A
 Frequencies --   1407.7406              1442.4143              1452.6390
 Red. masses --      2.2767                 1.0482                 3.0908
 Frc consts  --      2.6583                 1.2849                 3.8427
 IR Inten    --     91.3638                 1.5082                 2.4892

                     58                     59                     60
                      A                      A                      A
 Frequencies --   1466.3474              1474.4040              1477.9662
 Red. masses --      2.3555                 3.4790                 2.5029
 Frc consts  --      2.9840                 4.4560                 3.2213
 IR Inten    --      9.5772               142.6766               262.4475

                     61                     62                     63
                      A                      A                      A
 Frequencies --   1481.6379              1529.7577              1574.0631
 Red. masses --      2.3667                 5.7800                 4.9000
 Frc consts  --      3.0611                 7.9694                 7.1530
 IR Inten    --      2.4196               104.7244                 1.5383

                     64                     65                     66
                      A                      A                      A
 Frequencies --   1579.3213              1584.1685              2958.9593
 Red. masses --      6.7612                 5.5408                 1.0555
 Frc consts  --      9.9361                 8.1926                 5.4448
 IR Inten    --      0.3783                 3.9710               210.0752

                     67                     68                     69
                      A                      A                      A
 Frequencies --   3068.4801              3079.3521              3080.7723
 Red. masses --      1.0779                 1.0989                 1.0825
 Frc consts  --      5.9794                 6.1394                 6.0536
 IR Inten    --     15.7036                11.5632                74.1870

                     70                     71                     72
                      A                      A                      A
 Frequencies --   3081.9728              3106.0191              3106.8426
 Red. masses --      1.0823                 1.0910                 1.0903
 Frc consts  --      6.0567                 6.2012                 6.2004
 IR Inten    --     35.0338               242.8348                47.6715

                     73                     74                     75
                      A                      A                      A
 Frequencies --   3152.6639              3155.6475              3158.5493
 Red. masses --      1.0901                 1.0909                 1.0909
 Frc consts  --      6.3838                 6.4005                 6.4120
 IR Inten    --     30.7802                66.0104                26.9830

 - Thermochemistry -
 -------------------
 Temperature   298.150 Kelvin.  Pressure   1.00000 Atm.
 Atom     1 has atomic number  6 and mass  12.00000

 Molecular mass:   222.06808 amu.
 Principal axes and moments of inertia in atomic units:
                           1         2         3
     Eigenvalues --  2094.534374416.268076500.04261
           X            0.99678   0.07458   0.02952
           Y           -0.07232   0.99483  -0.07135
           Z           -0.03469   0.06898   0.99701
 This molecule is an asymmetric top.
 Rotational symmetry number  1.
 Warning -- assumption of classical behavior for rotation
           may cause significant error
 Rotational temperatures (Kelvin)      0.04135     0.01961     0.01333
 Rotational constants (GHZ):           0.86164     0.40866     0.27765
 Zero-point vibrational energy     525962.3 (Joules/Mol)
                                  125.70800 (Kcal/Mol)
 Warning -- explicit consideration of  21 degrees of freedom as
           vibrations may cause significant error
 Vibrational temperatures:     70.43    94.34   180.55   232.21   248.88
          (Kelvin)            314.72   315.38   363.47   446.04   492.73
                              537.76   554.28   555.63   627.04   643.68
                              705.28   714.30   756.51   784.93   867.62
                              892.60   941.44   966.14   991.57  1016.14
                             1036.98  1087.08  1101.32  1126.13  1140.58
                             1196.63  1232.76  1335.81  1365.85  1373.33
                             1378.75  1396.84  1449.29  1471.07  1504.22
                             1551.27  1571.08  1596.95  1650.18  1676.57
                             1709.76  1746.44  1762.71  1779.73  1882.04
                             1935.64  1941.49  1961.43  2015.49  2025.42
                             2075.31  2090.02  2109.75  2121.34  2126.46
                             2131.75  2200.98  2264.73  2272.29  2279.27
                             4257.28  4414.86  4430.50  4432.54  4434.27
                             4468.87  4470.05  4535.98  4540.27  4544.45

 Zero-point correction=                           0.200328 (Hartree/Particle)
 Thermal correction to Energy=                    0.213399
 Thermal correction to Enthalpy=                  0.214343
 Thermal correction to Gibbs Free Energy=         0.160961
 Sum of electronic and zero-point Energies=           -728.044595
 Sum of electronic and thermal Energies=              -728.031525
 Sum of electronic and thermal Enthalpies=            -728.030580
 Sum of electronic and thermal Free Energies=         -728.083963

                     E (Thermal)             CV                S
                      KCal/Mol        Cal/Mol-Kelvin    Cal/Mol-Kelvin
 Total                  133.910             53.400            112.352
 Electronic               0.000              0.000              0.000
 Translational            0.889              2.981             42.096
 Rotational               0.889              2.981             32.464
 Vibrational            132.132             47.439             37.792
 Vibration     1          0.595              1.978              4.859
 Vibration     2          0.597              1.971              4.282
 Vibration     3          0.610              1.928              3.014
 Vibration     4          0.622              1.890              2.533
 Vibration     5          0.626              1.876              2.403
 Vibration     6          0.647              1.813              1.969
 Vibration     7          0.647              1.812              1.966
 Vibration     8          0.664              1.758              1.712
 Vibration     9          0.699              1.655              1.362
 Vibration    10          0.722              1.591              1.201
 Vibration    11          0.745              1.526              1.064
 Vibration    12          0.754              1.502              1.019
 Vibration    13          0.755              1.500              1.015
 Vibration    14          0.796              1.392              0.840
 Vibration    15          0.807              1.367              0.804
 Vibration    16          0.846              1.272              0.683
 Vibration    17          0.852              1.258              0.667
 Vibration    18          0.881              1.193              0.597
 Vibration    19          0.901              1.149              0.553
 Vibration    20          0.961              1.025              0.444
 Vibration    21          0.980              0.989              0.416

                           ! Non-Optimized Parameters !
 Normal termination of Gaussian 16 at Thu Dec 21 07:10:36 2023.
