 Gaussian 16, Revision A.03,
 Gaussian 16:  ES64L-G16RevA.03 25-Dec-2016

 --------------------------------------
 #P UB3LYP/6-311++G(d,p) nosym opt freq
 --------------------------------------

 --------
 Oxidized
 --------
 Symbolic Z-matrix:
 Charge =  0 Multiplicity = 1

 SCF Done:  E(UB3LYP) =  -1035.64009614     A.U. after   15 cycles
 SCF Done:  E(UB3LYP) =  -1035.64664882     A.U. after   14 cycles
 SCF Done:  E(UB3LYP) =  -1035.64933191     A.U. after   13 cycles
 SCF Done:  E(UB3LYP) =  -1035.65150699     A.U. after   13 cycles
 SCF Done:  E(UB3LYP) =  -1035.65290216     A.U. after   13 cycles
 SCF Done:  E(UB3LYP) =  -1035.65306456     A.U. after   13 cycles
 SCF Done:  E(UB3LYP) =  -1035.65364728     A.U. after   12 cycles
 SCF Done:  E(UB3LYP) =  -1035.65368398     A.U. after   12 cycles
 SCF Done:  E(UB3LYP) =  -1035.65370642     A.U. after   11 cycles
 SCF Done:  E(UB3LYP) =  -1035.65373453     A.U. after   11 cycles
 SCF Done:  E(UB3LYP) =  -1035.65373599     A.U. after   10 cycles
 SCF Done:  E(UB3LYP) =  -1035.65373615     A.U. after    9 cycles
 SCF Done:  E(UB3LYP) =  -1035.65373639     A.U. after    8 cycles
 Optimization completed.
    -- Stationary point found.
 Normal termination of Gaussian 16 at Thu Dec 21 10:56:43 2023.

 ----------------------------------------------------------------------
 #P Geom=AllCheck Guess=TCheck SCRF=Check GenChk UB3LYP/6-311++G(d,p) F
 req
 ----------------------------------------------------------------------

 Structure from the checkpoint file:  "173.chk"
 --------
 Oxidized
 --------
 Charge =  0 Multiplicity = 1

                          Input orientation:
 ---------------------------------------------------------------------
 Center     Atomic      Atomic             Coordinates (Angstroms)
 Number     Number       Type             X           Y           Z
 ---------------------------------------------------------------------
      1          6           0       -1.418579    2.267635   -3.985416
      2          6           0       -1.398204    0.885680   -4.105713
      3          6           0       -1.138064    0.087432   -2.985153
      4          6           0       -1.179299    2.870544   -2.743063
      5          6           0       -0.919119    2.071861   -1.621877
      6          6           0       -0.900223    0.676532   -1.751831
      7          6           0       -1.208347    4.349042   -2.634796
      8          6           0       -0.659638    2.682120   -0.295680
      9          6           0       -0.955447    4.962951   -1.330691
     10          6           0       -0.684686    4.140437   -0.176485
     11          6           0       -0.980520    6.382679   -1.212614
     12          6           0       -0.726475    6.940124    0.073494
     13          6           0       -0.474285    6.162156    1.165870
     14          6           0       -0.437453    4.739972    1.092248
     15          8           0       -1.448458    5.015412   -3.658762
     16          8           0       -0.428353    1.930383    0.669517
     17          1           0       -1.617697    2.906023   -4.836678
     18          1           0       -1.583904    0.423479   -5.068908
     19          1           0       -1.122475   -0.992575   -3.081071
     20          1           0       -0.696312    0.081039   -0.871126
     21          1           0       -0.294611    6.649347    2.114542
     22          1           0       -0.734986    8.014454    0.197376
     23          7           0       -1.252709    7.194007   -2.270164
     24          7           0       -0.156822    4.002923    2.200733
     25          1           0       -1.402793    6.692585   -3.144895
     26          1           0       -0.172386    2.996442    2.039912
     27          6           0        0.039624    4.504617    3.557681
     28          6           0        0.835699    3.461971    4.347743
     29          6           0       -1.292708    4.836951    4.250337
     30          6           0       -1.232266    8.653846   -2.280331
     31          6           0        0.198603    9.212076   -2.359903
     32          6           0       -2.088391    9.140775   -3.452923
     33          1           0        0.646432    5.416012    3.506924
     34          1           0        1.011472    3.809590    5.368345
     35          1           0        1.801758    3.267536    3.876697
     36          1           0        0.285892    2.517255    4.404626
     37          1           0       -1.875187    5.558088    3.672409
     38          1           0       -1.116065    5.259136    5.244137
     39          1           0       -1.896546    3.932178    4.363307
     40          1           0       -1.699527    9.014550   -1.356749
     41          1           0        0.818842    8.841620   -1.540517
     42          1           0        0.189359   10.305173   -2.313633
     43          1           0        0.670390    8.911532   -3.299629
     44          1           0       -1.681322    8.782849   -4.403814
     45          1           0       -2.105235   10.232579   -3.485156
     46          1           0       -3.115739    8.780853   -3.363658
 ---------------------------------------------------------------------

 SCF Done:  E(UB3LYP) =  -1035.65373639     A.U. after    1 cycles

 Alpha  occ. eigenvalues --  -19.10156 -19.10155 -14.32711 -14.32710 -10.25463
 Alpha  occ. eigenvalues --  -10.25462 -10.23351 -10.23350 -10.22338 -10.22338
 Alpha  occ. eigenvalues --  -10.19385 -10.19317 -10.18867 -10.18828 -10.18778
 Alpha  occ. eigenvalues --  -10.18725 -10.18428 -10.18376 -10.17961 -10.17960
 Alpha  occ. eigenvalues --  -10.17120 -10.17120 -10.16943 -10.16943  -1.03481
 Alpha  occ. eigenvalues --   -1.03254  -0.95184  -0.94617  -0.87277  -0.85559
 Alpha  occ. eigenvalues --   -0.80301  -0.79966  -0.78318  -0.76050  -0.75526
 Alpha  occ. eigenvalues --   -0.72330  -0.70101  -0.70084  -0.67551  -0.65630
 Alpha  occ. eigenvalues --   -0.64569  -0.61739  -0.60447  -0.59953  -0.58089
 Alpha  occ. eigenvalues --   -0.54542  -0.54295  -0.52854  -0.50807  -0.49655
 Alpha  occ. eigenvalues --   -0.49029  -0.47758  -0.47138  -0.46154  -0.45784
 Alpha  occ. eigenvalues --   -0.45457  -0.44208  -0.43350  -0.43128  -0.43089
 Alpha  occ. eigenvalues --   -0.42763  -0.42271  -0.41964  -0.41156  -0.39994
 Alpha  occ. eigenvalues --   -0.39945  -0.39822  -0.39370  -0.38999  -0.37864
 Alpha  occ. eigenvalues --   -0.37826  -0.36938  -0.36514  -0.36204  -0.35675
 Alpha  occ. eigenvalues --   -0.35582  -0.35068  -0.34953  -0.32825  -0.27497
 Alpha  occ. eigenvalues --   -0.27104  -0.26226  -0.26067  -0.25595  -0.25145
 Alpha  occ. eigenvalues --   -0.18665
 Alpha virt. eigenvalues --   -0.09860  -0.04879  -0.02539  -0.01616  -0.00834
 Alpha virt. eigenvalues --    0.00031   0.00137   0.00517   0.01138   0.01574
 Alpha virt. eigenvalues --    0.01669   0.01719   0.02405   0.03348   0.03415

  Beta  occ. eigenvalues --  -19.10156 -19.10155 -14.32711 -14.32710 -10.25463
  Beta  occ. eigenvalues --  -10.25462 -10.23351 -10.23350 -10.22338 -10.22338
  Beta  occ. eigenvalues --  -10.19385 -10.19317 -10.18867 -10.18828 -10.18778
  Beta  occ. eigenvalues --  -10.18725 -10.18428 -10.18376 -10.17961 -10.17960
  Beta  occ. eigenvalues --  -10.17120 -10.17120 -10.16943 -10.16943  -1.03481
  Beta  occ. eigenvalues --   -1.03254  -0.95184  -0.94617  -0.87277  -0.85559
  Beta  occ. eigenvalues --   -0.80301  -0.79966  -0.78318  -0.76050  -0.75526
  Beta  occ. eigenvalues --   -0.72330  -0.70101  -0.70084  -0.67551  -0.65630
  Beta  occ. eigenvalues --   -0.64569  -0.61739  -0.60447  -0.59953  -0.58089
  Beta  occ. eigenvalues --   -0.54542  -0.54295  -0.52854  -0.50807  -0.49655
  Beta  occ. eigenvalues --   -0.49029  -0.47758  -0.47138  -0.46154  -0.45784
  Beta  occ. eigenvalues --   -0.45457  -0.44208  -0.43350  -0.43128  -0.43089
  Beta  occ. eigenvalues --   -0.42763  -0.42271  -0.41964  -0.41156  -0.39994
  Beta  occ. eigenvalues --   -0.39945  -0.39822  -0.39370  -0.38999  -0.37864
  Beta  occ. eigenvalues --   -0.37826  -0.36938  -0.36514  -0.36204  -0.35675
  Beta  occ. eigenvalues --   -0.35582  -0.35068  -0.34953  -0.32825  -0.27497
  Beta  occ. eigenvalues --   -0.27104  -0.26226  -0.26067  -0.25595  -0.25145
  Beta  occ. eigenvalues --   -0.18665
  Beta virt. eigenvalues --   -0.09860  -0.04879  -0.02539  -0.01616  -0.00834
  Beta virt. eigenvalues --    0.00031   0.00137   0.00517   0.01138   0.01574
  Beta virt. eigenvalues --    0.01669   0.01719   0.02405   0.03348   0.03415

 Mulliken charges and spin densities:
               1          2
     1  C   -0.066314   0.000000
     2  C   -0.322032  -0.000000
     3  C   -0.322004  -0.000000
     4  C    0.412877  -0.000000
     5  C    0.412863  -0.000000
     6  C   -0.066142   0.000000
     7  C   -0.353819  -0.000000
     8  C   -0.353688  -0.000000
     9  C    0.034727  -0.000000
    10  C    0.034970  -0.000000
    11  C   -0.447469   0.000000
    12  C    0.050126  -0.000000
    13  C    0.050488  -0.000000
    14  C   -0.447785   0.000000
    15  O   -0.273973  -0.000000
    16  O   -0.273939  -0.000000
    17  H    0.173600  -0.000000
    18  H    0.168939  -0.000000
    19  H    0.168935  -0.000000
    20  H    0.173624   0.000000
    21  H    0.192707  -0.000000
    22  H    0.192692  -0.000000
    23  N   -0.044435  -0.000000
    24  N   -0.044268  -0.000000
    25  H    0.416015   0.000000
    26  H    0.415869   0.000000
    27  C    0.036591   0.000000
    28  C   -0.524518  -0.000000
    29  C   -0.473459   0.000000
    30  C    0.036695  -0.000000
    31  C   -0.473683   0.000000
    32  C   -0.524425   0.000000
    33  H    0.123400   0.000000
    34  H    0.153718   0.000000
    35  H    0.160219   0.000000
    36  H    0.147559  -0.000000
    37  H    0.134401   0.000000
    38  H    0.136450   0.000000
    39  H    0.164368   0.000000
    40  H    0.123378   0.000000
    41  H    0.134403   0.000000
    42  H    0.136445  -0.000000
    43  H    0.164393   0.000000
    44  H    0.147572  -0.000000
    45  H    0.153716  -0.000000
    46  H    0.160212  -0.000000
 Sum of Mulliken charges =  -0.00000   0.00000

 Dipole moment (field-independent basis, Debye):
    X=              0.3385    Y=              3.0760    Z=              2.1130  Tot=              3.7472
 Quadrupole moment (field-independent basis, Debye-Ang):
   XX=           -148.1310   YY=            -98.6520   ZZ=           -135.3751
   XY=             -0.0115   XZ=              0.7250   YZ=             14.0720

  Exact polarizability: 161.983   1.026 382.785  37.301  30.442 353.503
 Approx polarizability: 254.406   0.113 611.701  63.181  55.206 559.110

                      1                      2                      3
                      A                      A                      A
 Frequencies --     28.9912                35.7228                37.9414
 Red. masses --      4.2503                 3.1457                 4.0840
 Frc consts  --      0.0021                 0.0024                 0.0035
 IR Inten    --      3.4701                 0.2786                 0.0271

                      4                      5                      6
                      A                      A                      A
 Frequencies --     57.8311                69.5633                82.2585
 Red. masses --      2.9501                 4.5027                 4.4194
 Frc consts  --      0.0058                 0.0128                 0.0176
 IR Inten    --      0.0232                 0.6702                 0.0503

                      7                      8                      9
                      A                      A                      A
 Frequencies --     99.3077               116.4352               132.2035
 Red. masses --      3.2426                 3.6949                 5.7706
 Frc consts  --      0.0188                 0.0295                 0.0594
 IR Inten    --      0.2754                 0.0031                 0.0309

                     10                     11                     12
                      A                      A                      A
 Frequencies --    140.6714               182.5921               220.8178
 Red. masses --      4.5418                 6.7443                 1.3887
 Frc consts  --      0.0530                 0.1325                 0.0399
 IR Inten    --      0.2132                 0.1924                 0.3731

                     13                     14                     15
                      A                      A                      A
 Frequencies --    224.3000               228.1111               235.3029
 Red. masses --      1.0279                 1.4740                 3.6397
 Frc consts  --      0.0305                 0.0452                 0.1187
 IR Inten    --      0.4031                 0.1372                 1.0007

                     16                     17                     18
                      A                      A                      A
 Frequencies --    245.0052               252.0434               264.9575
 Red. masses --      3.3083                 1.1133                 4.0073
 Frc consts  --      0.1170                 0.0417                 0.1658
 IR Inten    --      0.5873                 0.0530                 2.8189

                     19                     20                     21
                      A                      A                      A
 Frequencies --    272.1222               318.7143               344.7322
 Red. masses --      1.6356                 3.4651                 5.0765
 Frc consts  --      0.0714                 0.2074                 0.3554
 IR Inten    --      0.3278                 0.0635                 3.2982

                     22                     23                     24
                      A                      A                      A
 Frequencies --    374.6658               390.3226               394.9348
 Red. masses --      3.5366                 3.5282                 4.1438
 Frc consts  --      0.2925                 0.3167                 0.3808
 IR Inten    --      2.7263                 7.7861                 1.5772

                     25                     26                     27
                      A                      A                      A
 Frequencies --    419.0359               420.1413               434.4706
 Red. masses --      4.1851                 3.0992                 5.8990
 Frc consts  --      0.4330                 0.3223                 0.6561
 IR Inten    --      1.5275                 2.3282                 0.1600

                     28                     29                     30
                      A                      A                      A
 Frequencies --    436.0072               445.8874               470.1245
 Red. masses --      3.5414                11.3426                 4.6562
 Frc consts  --      0.3967                 1.3287                 0.6063
 IR Inten    --      2.9460                10.2202                22.7634

                     31                     32                     33
                      A                      A                      A
 Frequencies --    476.3681               495.6917               506.0578
 Red. masses --      2.7551                 4.7741                 4.3366
 Frc consts  --      0.3684                 0.6911                 0.6543
 IR Inten    --      6.2613                 1.7969                 0.1809

                     34                     35                     36
                      A                      A                      A
 Frequencies --    515.9564               580.8670               620.5024
 Red. masses --      4.7924                 2.7033                 5.8504
 Frc consts  --      0.7517                 0.5374                 1.3272
 IR Inten    --     11.5029                24.2767                 1.6519

                     37                     38                     39
                      A                      A                      A
 Frequencies --    640.7428               669.1706               683.8105
 Red. masses --      6.0212                 3.6787                 5.4435
 Frc consts  --      1.4565                 0.9706                 1.4997
 IR Inten    --      0.5514                 0.1396                15.2027

                     40                     41                     42
                      A                      A                      A
 Frequencies --    694.2993               703.1632               728.8211
 Red. masses --      1.2018                 1.2122                 6.6281
 Frc consts  --      0.3413                 0.3531                 2.0743
 IR Inten    --     51.8281                 1.1430                 1.4371

                     43                     44                     45
                      A                      A                      A
 Frequencies --    741.7535               746.7856               787.7842
 Red. masses --      5.6642                 1.7564                 5.0141
 Frc consts  --      1.8362                 0.5771                 1.8334
 IR Inten    --      0.2158               109.1620                 6.6537

                     46                     47                     48
                      A                      A                      A
 Frequencies --    799.9099               812.3280               830.6212
 Red. masses --      6.3312                 2.0577                 1.9069
 Frc consts  --      2.3868                 0.8000                 0.7752
 IR Inten    --      0.0084                13.9318                17.1235

                     49                     50                     51
                      A                      A                      A
 Frequencies --    836.0944               841.4982               875.1278
 Red. masses --      2.7390                 2.5889                 4.7524
 Frc consts  --      1.1281                 1.0801                 2.1444
 IR Inten    --      0.2383                 6.1415                 2.4359

                     52                     53                     54
                      A                      A                      A
 Frequencies --    901.1290               909.5580               934.7018
 Red. masses --      4.3966                 1.3917                 1.2548
 Frc consts  --      2.1035                 0.6783                 0.6459
 IR Inten    --      7.3148                 0.0002                 0.1840

                     55                     56                     57
                      A                      A                      A
 Frequencies --    935.0674               941.0579               952.8074
 Red. masses --      1.2542                 3.2628                 1.4074
 Frc consts  --      0.6461                 1.7024                 0.7528
 IR Inten    --      2.5465                 1.1204                 4.4753

                     58                     59                     60
                      A                      A                      A
 Frequencies --    956.1218               964.0104               977.1007
 Red. masses --      1.5408                 1.3459                 2.4011
 Frc consts  --      0.8299                 0.7369                 1.3506
 IR Inten    --      4.0348                 3.1654                39.4509

                     61                     62                     63
                      A                      A                      A
 Frequencies --    999.8686              1012.0234              1039.6323
 Red. masses --      1.3766                 1.3109                 2.3561
 Frc consts  --      0.8109                 0.7910                 1.5004
 IR Inten    --      1.6266                 0.0007                 3.3227

                     64                     65                     66
                      A                      A                      A
 Frequencies --   1049.3665              1093.0129              1115.1619
 Red. masses --      2.3867                 2.2883                 2.2929
 Frc consts  --      1.5485                 1.6107                 1.6800
 IR Inten    --     52.8078               116.6297                 4.1529

                     67                     68                     69
                      A                      A                      A
 Frequencies --   1136.4803              1136.9286              1170.5500
 Red. masses --      2.1277                 2.1478                 2.4305
 Frc consts  --      1.6191                 1.6358                 1.9621
 IR Inten    --     18.3093                 2.2928                28.9039

                     70                     71                     72
                      A                      A                      A
 Frequencies --   1175.6965              1184.9771              1189.6782
 Red. masses --      1.2617                 1.7905                 2.0033
 Frc consts  --      1.0275                 1.4813                 1.6705
 IR Inten    --      3.6752                 0.0126                38.7940

                     73                     74                     75
                      A                      A                      A
 Frequencies --   1196.4686              1201.3160              1203.3230
 Red. masses --      2.2798                 2.4453                 1.4754
 Frc consts  --      1.9229                 2.0792                 1.2587
 IR Inten    --     10.4052                35.6017               242.7058

                     76                     77                     78
                      A                      A                      A
 Frequencies --   1260.5501              1274.9766              1299.4399
 Red. masses --      1.8248                 3.9976                 2.2056
 Frc consts  --      1.7084                 3.8287                 2.1943
 IR Inten    --      0.2691               571.3027               264.2058

                     79                     80                     81
                      A                      A                      A
 Frequencies --   1319.9947              1328.9014              1352.9068
 Red. masses --      1.9504                 2.2747                 2.0522
 Frc consts  --      2.0022                 2.3668                 2.2131
 IR Inten    --      0.2585               107.3254                47.5759

                     82                     83                     84
                      A                      A                      A
 Frequencies --   1358.8232              1359.6840              1361.1221
 Red. masses --      6.0468                 1.3438                 1.5395
 Frc consts  --      6.5782                 1.4637                 1.6804
 IR Inten    --      4.2209                25.4288                73.4593

                     85                     86                     87
                      A                      A                      A
 Frequencies --   1386.2345              1390.5306              1400.4909
 Red. masses --      1.4527                 1.9019                 1.2551
 Frc consts  --      1.6447                 2.1666                 1.4504
 IR Inten    --      7.2277                13.8692                13.8728

                     88                     89                     90
                      A                      A                      A
 Frequencies --   1400.5841              1413.1789              1420.5555
 Red. masses --      1.2569                 2.3881                 1.2786
 Frc consts  --      1.4527                 2.8099                 1.5202
 IR Inten    --     10.1639                79.7573                 0.1523

                     91                     92                     93
                      A                      A                      A
 Frequencies --   1421.1151              1435.5312              1483.7438
 Red. masses --      1.2502                 6.5236                 2.5368
 Frc consts  --      1.4876                 7.9207                 3.2905
 IR Inten    --     23.1628                31.4772                12.7653

                     94                     95                     96
                      A                      A                      A
 Frequencies --   1486.1171              1486.2636              1489.5416
 Red. masses --      1.0545                 1.0465                 1.0508
 Frc consts  --      1.3721                 1.3620                 1.3737
 IR Inten    --      7.0636                 0.0055                 1.4293

                     97                     98                     99
                      A                      A                      A
 Frequencies --   1489.7091              1498.1079              1500.0183
 Red. masses --      1.0564                 1.1165                 1.0540
 Frc consts  --      1.3813                 1.4764                 1.3973
 IR Inten    --      2.9528                 0.1167                16.3786

                    100                    101                    102
                      A                      A                      A
 Frequencies --   1506.3440              1508.8922              1510.5231
 Red. masses --      2.5521                 1.1087                 1.0563
 Frc consts  --      3.4118                 1.4872                 1.4200
 IR Inten    --      0.0153                15.7331                 2.4531

                    103                    104                    105
                      A                      A                      A
 Frequencies --   1526.3007              1551.7074              1599.1705
 Red. masses --      2.6297                 3.4253                 2.6137
 Frc consts  --      3.6094                 4.8592                 3.9382
 IR Inten    --      4.9207               482.9409               299.5581

                    106                    107                    108
                      A                      A                      A
 Frequencies --   1603.4067              1617.5932              1635.4238
 Red. masses --      4.2258                 4.7323                 3.4882
 Frc consts  --      6.4009                 7.2956                 5.4968
 IR Inten    --     97.4278               223.1824               311.5823

                    109                    110                    111
                      A                      A                      A
 Frequencies --   1652.1341              1680.8808              3010.0258
 Red. masses --      7.0244                 7.4716                 1.0834
 Frc consts  --     11.2966                12.4376                 5.7832
 IR Inten    --    142.1582                64.9306                15.5997

                    112                    113                    114
                      A                      A                      A
 Frequencies --   3010.4111              3023.6157              3023.6759
 Red. masses --      1.0834                 1.0351                 1.0351
 Frc consts  --      5.7849                 5.5754                 5.5757
 IR Inten    --     43.0021                24.6394                21.4306

                    115                    116                    117
                      A                      A                      A
 Frequencies --   3029.1439              3029.2347              3087.9419
 Red. masses --      1.0367                 1.0367                 1.1018
 Frc consts  --      5.6045                 5.6048                 6.1901
 IR Inten    --     52.2430                 1.7949                 3.8326

                    118                    119                    120
                      A                      A                      A
 Frequencies --   3087.9765              3095.3093              3095.3927
 Red. masses --      1.1018                 1.1005                 1.1004
 Frc consts  --      6.1902                 6.2120                 6.2122
 IR Inten    --      7.6549                55.4486                66.2585

                    121                    122                    123
                      A                      A                      A
 Frequencies --   3098.9918              3099.1997              3106.5603
 Red. masses --      1.1018                 1.1018                 1.1028
 Frc consts  --      6.2343                 6.2350                 6.2703
 IR Inten    --     34.1702                16.8054                36.3703

                    124                    125                    126
                      A                      A                      A
 Frequencies --   3106.6058              3165.0360              3180.5886
 Red. masses --      1.1027                 1.0868                 1.0925
 Frc consts  --      6.2703                 6.4144                 6.5114
 IR Inten    --     28.6785                 4.2397                21.6429

                    127                    128                    129
                      A                      A                      A
 Frequencies --   3194.8725              3203.1203              3205.2184
 Red. masses --      1.0858                 1.0920                 1.0937
 Frc consts  --      6.5302                 6.6014                 6.6202
 IR Inten    --      8.1802                 0.8279                14.5531

                    130                    131                    132
                      A                      A                      A
 Frequencies --   3211.7819              3403.2676              3407.1201
 Red. masses --      1.0937                 1.0796                 1.0794
 Frc consts  --      6.6470                 7.3676                 7.3823
 IR Inten    --     12.6791                50.1231                10.6280

 - Thermochemistry -
 -------------------
 Temperature   298.150 Kelvin.  Pressure   1.00000 Atm.
 Atom     1 has atomic number  6 and mass  12.00000

 Molecular mass:   322.16813 amu.
 Principal axes and moments of inertia in atomic units:
                           1         2         3
     Eigenvalues --  7811.830788278.22452**********
           X            0.14712   0.09038   0.98498
           Y           -0.57032   0.82137   0.00982
           Z            0.80814   0.56320  -0.17238
 This molecule is an asymmetric top.
 Rotational symmetry number  1.
 Warning -- assumption of classical behavior for rotation
           may cause significant error
 Rotational temperatures (Kelvin)      0.01109     0.01046     0.00559
 Rotational constants (GHZ):           0.23103     0.21801     0.11646
 Zero-point vibrational energy    1000222.8 (Joules/Mol)
                                  239.05899 (Kcal/Mol)
 Warning -- explicit consideration of  36 degrees of freedom as
           vibrations may cause significant error
 Vibrational temperatures:     41.71    51.40    54.59    83.21   100.09
          (Kelvin)            118.35   142.88   167.52   190.21   202.39
                              262.71   317.71   322.72   328.20   338.55
                              352.51   362.63   381.21   391.52   458.56
                              495.99   539.06   561.59   568.22   602.90
                              604.49   625.11   627.32   641.53   676.40
                              685.39   713.19   728.10   742.35   835.74
                              892.76   921.89   962.79   983.85   998.94
                             1011.70  1048.61  1067.22  1074.46  1133.45
                             1150.89  1168.76  1195.08  1202.95  1210.73
                             1259.11  1296.52  1308.65  1344.83  1345.35
                             1353.97  1370.88  1375.65  1387.00  1405.83
                             1438.59  1456.08  1495.80  1509.80  1572.60
                             1604.47  1635.14  1635.79  1684.16  1691.56
                             1704.92  1711.68  1721.45  1728.43  1731.31
                             1813.65  1834.41  1869.60  1899.18  1911.99
                             1946.53  1955.04  1956.28  1958.35  1994.48
                             2000.66  2014.99  2015.13  2033.25  2043.86
                             2044.67  2065.41  2134.78  2138.19  2138.40
                             2143.12  2143.36  2155.44  2158.19  2167.29
                             2170.96  2173.31  2196.01  2232.56  2300.85
                             2306.94  2327.36  2353.01  2377.05  2418.41
                             4330.76  4331.31  4350.31  4350.40  4358.26
                             4358.39  4442.86  4442.91  4453.46  4453.58
                             4458.76  4459.06  4469.65  4469.71  4553.78
                             4576.16  4596.71  4608.58  4611.59  4621.04
                             4896.54  4902.09

 Zero-point correction=                           0.380965 (Hartree/Particle)
 Thermal correction to Energy=                    0.403124
 Thermal correction to Enthalpy=                  0.404068
 Thermal correction to Gibbs Free Energy=         0.329445
 Sum of electronic and zero-point Energies=          -1035.272772
 Sum of electronic and thermal Energies=             -1035.250613
 Sum of electronic and thermal Enthalpies=           -1035.249668
 Sum of electronic and thermal Free Energies=        -1035.324291

                     E (Thermal)             CV                S
                      KCal/Mol        Cal/Mol-Kelvin    Cal/Mol-Kelvin
 Total                  252.964             86.809            157.057
 Electronic               0.000              0.000              0.000
 Translational            0.889              2.981             43.205
 Rotational               0.889              2.981             35.259
 Vibrational            251.187             80.848             78.593
 Vibration     1          0.593              1.984              5.897
 Vibration     2          0.594              1.982              5.483
 Vibration     3          0.594              1.982              5.364
 Vibration     4          0.596              1.974              4.530
 Vibration     5          0.598              1.969              4.166
 Vibration     6          0.600              1.961              3.836
 Vibration     7          0.604              1.950              3.468
 Vibration     8          0.608              1.936              3.159
 Vibration     9          0.612              1.921              2.914
 Vibration    10          0.615              1.913              2.795
 Vibration    11          0.630              1.863              2.302
 Vibration    12          0.648              1.809              1.952
 Vibration    13          0.649              1.804              1.924
 Vibration    14          0.651              1.798              1.894
 Vibration    15          0.655              1.787              1.838
 Vibration    16          0.660              1.771              1.766
 Vibration    17          0.664              1.759              1.716
 Vibration    18          0.671              1.737              1.629
 Vibration    19          0.675              1.725              1.583
 Vibration    20          0.705              1.638              1.317
 Vibration    21          0.723              1.586              1.190
 Vibration    22          0.746              1.524              1.061
 Vibration    23          0.758              1.491              0.999
 Vibration    24          0.762              1.481              0.981
 Vibration    25          0.782              1.429              0.895
 Vibration    26          0.783              1.426              0.891
 Vibration    27          0.795              1.395              0.844
 Vibration    28          0.796              1.392              0.839
 Vibration    29          0.805              1.370              0.808
 Vibration    30          0.827              1.316              0.737
 Vibration    31          0.833              1.302              0.720
 Vibration    32          0.851              1.260              0.669
 Vibration    33          0.861              1.237              0.643
 Vibration    34          0.871              1.215              0.619
 Vibration    35          0.938              1.073              0.484
 Vibration    36          0.981              0.989              0.416

                           ! Non-Optimized Parameters !
 Normal termination of Gaussian 16 at Thu Dec 21 16:49:31 2023.
