 Q-Chem 5.4, Q-Chem, Inc., Pleasanton, CA (2021)
 Q-Chem 5.4.0 for Intel X86 EM64T Linux

User input:
--------------------------------------------------------------
$molecule
-1 2
N                  3.5762560000     -1.2690170000      0.1384910000
C                  2.8831880000     -0.0904570000     -0.0825520000
C                  3.5807600000      1.0947900000     -0.3264540000
C                  2.9009340000      2.3099000000     -0.4873800000
C                  1.5234060000      2.3603070000     -0.4030820000
C                  0.7799930000      1.1843360000     -0.1711920000
C                 -0.6786910000      1.3010390000     -0.1048050000
O                 -1.2269810000      2.4372670000     -0.2565030000
C                 -1.4416950000      0.0827450000      0.1214030000
C                 -2.8760470000      0.1067490000      0.2117370000
N                 -3.5569920000      1.3127560000      0.2080370000
C                 -3.5796570000     -1.0922320000      0.3463540000
C                 -2.9047730000     -2.3186100000      0.4184140000
C                 -1.5257140000     -2.3655270000      0.3621490000
C                 -0.7776730000     -1.1790510000      0.2132680000
C                  0.6810430000     -1.2957260000      0.1475110000
O                  1.2251250000     -2.4415480000      0.2228880000
C                  1.4473990000     -0.0699260000     -0.0194540000
H                  2.9773710000     -2.0970940000      0.1121790000
H                  4.4950790000     -1.3284050000     -0.2716110000
H                  4.6664980000      1.0639280000     -0.3705340000
H                  3.4691310000      3.2173530000     -0.6722440000
H                  0.9768880000      3.2875440000     -0.5144390000
H                 -4.5156430000      1.2813970000     -0.1017220000
H                 -2.9759120000      2.1002960000     -0.0870890000
H                 -4.6640770000     -1.0583670000      0.4143670000
H                 -3.4773390000     -3.2355850000      0.5271290000
H                 -0.9818800000     -3.2988610000      0.4251340000
$end
$rem
MAX_SCF_CYCLES=200
BASIS  =  6-311++G(d,p)
GUI  =  2
JOB_TYPE  =  SP
METHOD  =  B3LYP
SOLVENT_METHOD = PCM
$end
$pcm
theory = CPCM
$end
$solvent
dielectric 37.219
opticaldielectric 1.43
$end

--------------------------------------------------------------

             Standard Nuclear Orientation (Angstroms)
    I     Atom           X                Y                Z
 ----------------------------------------------------------------
    1      N       3.5762560000    -1.2690170000     0.1384910000
    2      C       2.8831880000    -0.0904570000    -0.0825520000
    3      C       3.5807600000     1.0947900000    -0.3264540000
    4      C       2.9009340000     2.3099000000    -0.4873800000
    5      C       1.5234060000     2.3603070000    -0.4030820000
    6      C       0.7799930000     1.1843360000    -0.1711920000
    7      C      -0.6786910000     1.3010390000    -0.1048050000
    8      O      -1.2269810000     2.4372670000    -0.2565030000
    9      C      -1.4416950000     0.0827450000     0.1214030000
   10      C      -2.8760470000     0.1067490000     0.2117370000
   11      N      -3.5569920000     1.3127560000     0.2080370000
   12      C      -3.5796570000    -1.0922320000     0.3463540000
   13      C      -2.9047730000    -2.3186100000     0.4184140000
   14      C      -1.5257140000    -2.3655270000     0.3621490000
   15      C      -0.7776730000    -1.1790510000     0.2132680000
   16      C       0.6810430000    -1.2957260000     0.1475110000
   17      O       1.2251250000    -2.4415480000     0.2228880000
   18      C       1.4473990000    -0.0699260000    -0.0194540000
   19      H       2.9773710000    -2.0970940000     0.1121790000
   20      H       4.4950790000    -1.3284050000    -0.2716110000
   21      H       4.6664980000     1.0639280000    -0.3705340000
   22      H       3.4691310000     3.2173530000    -0.6722440000
   23      H       0.9768880000     3.2875440000    -0.5144390000
   24      H      -4.5156430000     1.2813970000    -0.1017220000
   25      H      -2.9759120000     2.1002960000    -0.0870890000
   26      H      -4.6640770000    -1.0583670000     0.4143670000
   27      H      -3.4773390000    -3.2355850000     0.5271290000
   28      H      -0.9818800000    -3.2988610000     0.4251340000
 ----------------------------------------------------------------

    8    -799.8624608154      6.14e-06  Convergence criterion met
 Total energy in the final basis set =     -799.8624608154

                    Orbital Energies (a.u.)
 --------------------------------------------------------------

 Alpha MOs
 -- Occupied --
-19.0759 -19.0759 -14.3013 -14.3013 -10.2255 -10.2255 -10.2139 -10.2139
-10.1702 -10.1702 -10.1696 -10.1696 -10.1684 -10.1684 -10.1595 -10.1594
-10.1554 -10.1553  -1.0041  -1.0015  -0.9102  -0.9093  -0.8449  -0.8284
 -0.7796  -0.7363  -0.7317  -0.7219  -0.6622  -0.6325  -0.6231  -0.5789
 -0.5554  -0.5516  -0.5237  -0.5026  -0.4934  -0.4773  -0.4686  -0.4534
 -0.4476  -0.4318  -0.4311  -0.4241  -0.4131  -0.4012  -0.3914  -0.3880
 -0.3749  -0.3674  -0.3562  -0.3559  -0.3472  -0.3392  -0.3111  -0.3037
 -0.2664  -0.2481  -0.2460  -0.2374  -0.2148  -0.2063  -0.1362

 Beta MOs
 -- Occupied --
-19.0713 -19.0713 -14.3011 -14.3011 -10.2234 -10.2234 -10.2138 -10.2138
-10.1701 -10.1701 -10.1688 -10.1688 -10.1679 -10.1679 -10.1585 -10.1585
-10.1549 -10.1549  -0.9961  -0.9933  -0.9094  -0.9083  -0.8423  -0.8270
 -0.7759  -0.7344  -0.7285  -0.7202  -0.6555  -0.6305  -0.6209  -0.5780
 -0.5533  -0.5496  -0.5222  -0.5018  -0.4925  -0.4750  -0.4662  -0.4525
 -0.4467  -0.4305  -0.4299  -0.4137  -0.4100  -0.3987  -0.3894  -0.3815
 -0.3662  -0.3584  -0.3554  -0.3501  -0.3427  -0.3365  -0.3048  -0.2974
 -0.2492  -0.2440  -0.2412  -0.2334  -0.2050  -0.2007

          Ground-State Mulliken Net Atomic Charges

     Atom                 Charge (a.u.)    Spin (a.u.)
  --------------------------------------------------------
      1 N                    -0.440131       0.010758
      2 C                     0.090691       0.020843
      3 C                    -0.241941       0.083497
      4 C                    -0.437212       0.036076
      5 C                    -0.227215       0.060493
      6 C                     0.510486       0.045807
      7 C                    -0.688494       0.099649
      8 O                    -0.485763       0.171577
      9 C                     0.280364      -0.013576
     10 C                     0.091573       0.020451
     11 N                    -0.440853       0.010775
     12 C                    -0.243085       0.083603
     13 C                    -0.437206       0.036068
     14 C                    -0.227660       0.060442
     15 C                     0.509941       0.045943
     16 C                    -0.688570       0.099496
     17 O                    -0.486138       0.171577
     18 C                     0.279754      -0.013728
     19 H                     0.319983      -0.002476
     20 H                     0.279592      -0.000572
     21 H                     0.179599      -0.005952
     22 H                     0.197666      -0.002934
     23 H                     0.164245      -0.002950
     24 H                     0.279417      -0.000579
     25 H                     0.319784      -0.002461
     26 H                     0.179507      -0.005949
     27 H                     0.197614      -0.002940
     28 H                     0.164054      -0.002939
  --------------------------------------------------------
  Sum of atomic charges =    -1.000000

                    Cartesian Multipole Moments
 -----------------------------------------------------------------
    Charge (ESU x 10^10)
                -4.8032
    Dipole Moment (Debye)
         X      -0.1058      Y      -0.2443      Z      -1.9088
       Tot       1.9273
    Quadrupole Moments (Debye-Ang)
        XX     -97.3316     XY       7.4391     YY    -131.6206
        XZ      -1.9182     YZ       1.6796     ZZ    -115.1769

 Total job time:  96.89s(wall), 414.13s(cpu)
        *  Thank you very much for using Q-Chem.  Have a nice day.  *
