 Q-Chem 5.4, Q-Chem, Inc., Pleasanton, CA (2021)
 Q-Chem 5.4.0 for Intel X86 EM64T Linux

User input:
--------------------------------------------------------------
$molecule
-1 2
C                  5.7700130000     -5.1277640000      1.2384480000
C                  6.7793810000     -5.0403890000      0.2961460000
C                  6.6907420000     -4.0962980000     -0.7443060000
C                  4.6442330000     -4.2829540000      1.1773920000
C                  4.5558100000     -3.3314370000      0.1280150000
C                  5.5926040000     -3.2578320000     -0.8208200000
C                  3.5954340000     -4.4205230000      2.2115630000
C                  2.4942240000     -3.5038610000      2.0447480000
C                  2.3922700000     -2.5754530000      1.0339810000
C                  3.3977890000     -2.4232670000      0.0189780000
O                  3.6810030000     -5.2630720000      3.1344360000
O                  3.3014410000     -1.5733840000     -0.9040070000
H                  5.8122080000     -5.8451540000      2.0499540000
H                  7.6399640000     -5.6999720000      0.3590600000
H                  5.4944800000     -2.5203550000     -1.6095500000
Cl                 1.1869240000     -3.5972710000      3.2410250000
H                  7.4825700000     -4.0270950000     -1.4843630000
H                  1.5316990000     -1.9197390000      0.9752400000
$end
$rem
MAX_SCF_CYCLES=200
BASIS  =  6-311++G(d,p)
GUI  =  2
JOB_TYPE  =  SP
METHOD  =  B3LYP
SOLVENT_METHOD = PCM
$end
$pcm
theory = CPCM
$end
$solvent
dielectric 37.219
opticaldielectric 1.43
$end

--------------------------------------------------------------

             Standard Nuclear Orientation (Angstroms)
    I     Atom           X                Y                Z
 ----------------------------------------------------------------
    1      C       5.7700130000    -5.1277640000     1.2384480000
    2      C       6.7793810000    -5.0403890000     0.2961460000
    3      C       6.6907420000    -4.0962980000    -0.7443060000
    4      C       4.6442330000    -4.2829540000     1.1773920000
    5      C       4.5558100000    -3.3314370000     0.1280150000
    6      C       5.5926040000    -3.2578320000    -0.8208200000
    7      C       3.5954340000    -4.4205230000     2.2115630000
    8      C       2.4942240000    -3.5038610000     2.0447480000
    9      C       2.3922700000    -2.5754530000     1.0339810000
   10      C       3.3977890000    -2.4232670000     0.0189780000
   11      O       3.6810030000    -5.2630720000     3.1344360000
   12      O       3.3014410000    -1.5733840000    -0.9040070000
   13      H       5.8122080000    -5.8451540000     2.0499540000
   14      H       7.6399640000    -5.6999720000     0.3590600000
   15      H       5.4944800000    -2.5203550000    -1.6095500000
   16      Cl      1.1869240000    -3.5972710000     3.2410250000
   17      H       7.4825700000    -4.0270950000    -1.4843630000
   18      H       1.5316990000    -1.9197390000     0.9752400000
 ----------------------------------------------------------------

    9    -995.0412275608      6.13e-06  Convergence criterion met
 Total energy in the final basis set =     -995.0412275608

                    Orbital Energies (a.u.)
 --------------------------------------------------------------

 Alpha MOs
 -- Occupied --
******** -19.0878 -19.0856 -10.2375 -10.2328 -10.2277 -10.1820 -10.1794
-10.1761 -10.1756 -10.1741 -10.1739 -10.1736  -9.4646  -7.2289  -7.2199
 -7.2192  -1.0162  -1.0095  -0.8735  -0.8589  -0.7958  -0.7551  -0.7379
 -0.6827  -0.6237  -0.6092  -0.5655  -0.5180  -0.5059  -0.4758  -0.4592
 -0.4307  -0.4301  -0.4270  -0.4247  -0.4078  -0.3994  -0.3904  -0.3655
 -0.3584  -0.3440  -0.3415  -0.3148  -0.2786  -0.2610  -0.2570  -0.2526
 -0.2491  -0.1636

 Beta MOs
 -- Occupied --
******** -19.0818 -19.0795 -10.2358 -10.2314 -10.2258 -10.1818 -10.1790
-10.1759 -10.1753 -10.1737 -10.1735 -10.1723  -9.4646  -7.2290  -7.2197
 -7.2192  -1.0056  -0.9987  -0.8701  -0.8579  -0.7918  -0.7533  -0.7356
 -0.6733  -0.6217  -0.6064  -0.5628  -0.5156  -0.5032  -0.4727  -0.4582
 -0.4289  -0.4251  -0.4203  -0.4155  -0.4047  -0.3965  -0.3696  -0.3571
 -0.3568  -0.3431  -0.3301  -0.3143  -0.2557  -0.2540  -0.2514  -0.2459
 -0.2435

          Ground-State Mulliken Net Atomic Charges

     Atom                 Charge (a.u.)    Spin (a.u.)
  --------------------------------------------------------
      1 C                    -0.025166       0.045459
      2 C                    -0.423306       0.012857
      3 C                    -0.439503       0.025119
      4 C                     0.168427      -0.009341
      5 C                     0.282638       0.027749
      6 C                     0.095958       0.026480
      7 C                    -1.257943       0.120550
      8 C                     1.134706       0.096877
      9 C                     0.111026       0.140111
     10 C                    -0.964079       0.083975
     11 O                    -0.446824       0.224123
     12 O                    -0.490116       0.220569
     13 H                     0.169669      -0.002713
     14 H                     0.207930      -0.001406
     15 H                     0.172359      -0.002405
     16 Cl                    0.283195       0.005275
     17 H                     0.204299      -0.001935
     18 H                     0.216730      -0.011343
  --------------------------------------------------------
  Sum of atomic charges =    -1.000000

                    Cartesian Multipole Moments
 -----------------------------------------------------------------
    Charge (ESU x 10^10)
                -4.8032
    Dipole Moment (Debye)
         X     -14.4946      Y      16.3834      Z      -7.2051
       Tot      23.0309
    Quadrupole Moments (Debye-Ang)
        XX    -125.6418     XY      47.3115     YY    -156.5461
        XZ     -23.3350     YZ      42.6395     ZZ    -117.6377

 Total job time:  41.81s(wall), 188.19s(cpu)
        *  Thank you very much for using Q-Chem.  Have a nice day.  *
