 Gaussian 16, Revision A.03,
 Gaussian 16:  ES64L-G16RevA.03 25-Dec-2016

 ----------------------------------------------------------------
 #P UB3LYP/6-311++G(d,p) SCRF=(PCM,Solvent=n,n-DiMethylFormamide)
 ----------------------------------------------------------------

 ------------------
 Radical PCM in DMF
 ------------------
 Symbolic Z-matrix:
 Charge = -1 Multiplicity = 2

                         Standard orientation:
 ---------------------------------------------------------------------
 Center     Atomic      Atomic             Coordinates (Angstroms)
 Number     Number       Type             X           Y           Z
 ---------------------------------------------------------------------
      1         17           0        3.118385   -1.871975   -0.000058
      2          6           0        2.369966   -0.263358   -0.000016
      3          6           0        3.269937    0.784974   -0.000009
      4          6           0        2.806108    2.112533    0.000073
      5          6           0        1.452002    2.357827    0.000100
      6          6           0        0.516456    1.302930    0.000018
      7          6           0       -0.901562    1.676951   -0.000087
      8          8           0       -1.265259    2.880070    0.000008
      9          6           0       -1.864480    0.582029   -0.000074
     10          6           0       -3.247636    0.870525   -0.000086
     11          6           0       -4.185782   -0.141263    0.000002
     12          6           0       -3.765077   -1.489081    0.000068
     13          6           0       -2.417682   -1.790538    0.000034
     14          6           0       -1.439349   -0.772117   -0.000035
     15          6           0       -0.020733   -1.163820   -0.000033
     16          8           0        0.294994   -2.373546    0.000131
     17          6           0        0.960695   -0.067703   -0.000020
     18          1           0        4.330991    0.568437   -0.000057
     19          1           0        3.519860    2.930298    0.000103
     20          1           0        1.052859    3.364727    0.000171
     21          1           0       -3.537990    1.914735   -0.000140
     22          1           0       -5.245400    0.096951    0.000012
     23          1           0       -4.501327   -2.287423    0.000140
     24          1           0       -2.066596   -2.815670    0.000036
 ---------------------------------------------------------------------

 SCF Done:  E(UB3LYP) =  -1148.70802698     A.U. after   20 cycles

 The electronic state is 2-A.
 Alpha  occ. eigenvalues -- -101.54652 -19.07746 -19.07671 -10.23855 -10.23143
 Alpha  occ. eigenvalues --  -10.22608 -10.19063 -10.18150 -10.18099 -10.17880
 Alpha  occ. eigenvalues --  -10.17491 -10.17457 -10.17407 -10.17388 -10.17271
 Alpha  occ. eigenvalues --  -10.17137 -10.17073  -9.46136  -7.22586  -7.21660
 Alpha  occ. eigenvalues --   -7.21551  -1.00890  -1.00421  -0.88684  -0.85901
 Alpha  occ. eigenvalues --   -0.83435  -0.78862  -0.75212  -0.74457  -0.73830
 Alpha  occ. eigenvalues --   -0.67001  -0.64151  -0.62322  -0.58545  -0.55570
 Alpha  occ. eigenvalues --   -0.53997  -0.52806  -0.47733  -0.47148  -0.46482
 Alpha  occ. eigenvalues --   -0.45942  -0.43199  -0.42884  -0.42536  -0.41642
 Alpha  occ. eigenvalues --   -0.41564  -0.40769  -0.38879  -0.38210  -0.38085
 Alpha  occ. eigenvalues --   -0.35826  -0.35108  -0.34960  -0.33841  -0.32913
 Alpha  occ. eigenvalues --   -0.31487  -0.27231  -0.25798  -0.25342  -0.25232
 Alpha  occ. eigenvalues --   -0.24706  -0.23395  -0.14391
 Alpha virt. eigenvalues --   -0.05829  -0.02697  -0.00869  -0.00227   0.00482
 Alpha virt. eigenvalues --    0.00855   0.01712   0.02340   0.02967   0.04352
 Alpha virt. eigenvalues --    0.04455   0.04565   0.04776   0.05330   0.05726

  Beta  occ. eigenvalues -- -101.54650 -19.07194 -19.07104 -10.23851 -10.22994
  Beta  occ. eigenvalues --  -10.22429 -10.18972 -10.18094 -10.18000 -10.17816
  Beta  occ. eigenvalues --  -10.17420 -10.17414 -10.17361 -10.17330 -10.17273
  Beta  occ. eigenvalues --  -10.17126 -10.17080  -9.46134  -7.22586  -7.21652
  Beta  occ. eigenvalues --   -7.21550  -0.99915  -0.99440  -0.88552  -0.85709
  Beta  occ. eigenvalues --   -0.83315  -0.78476  -0.75001  -0.74270  -0.73631
  Beta  occ. eigenvalues --   -0.66282  -0.63969  -0.62059  -0.58472  -0.55340
  Beta  occ. eigenvalues --   -0.53747  -0.52667  -0.47428  -0.47059  -0.46312
  Beta  occ. eigenvalues --   -0.45854  -0.43150  -0.42498  -0.41729  -0.41490
  Beta  occ. eigenvalues --   -0.41012  -0.40482  -0.38143  -0.38069  -0.36200
  Beta  occ. eigenvalues --   -0.35761  -0.34973  -0.34059  -0.33710  -0.32255
  Beta  occ. eigenvalues --   -0.31419  -0.25408  -0.25133  -0.24744  -0.24399
  Beta  occ. eigenvalues --   -0.24199  -0.22904
  Beta virt. eigenvalues --   -0.08509  -0.04882  -0.01616  -0.00634  -0.00212
  Beta virt. eigenvalues --    0.00483   0.00869   0.01719   0.02348   0.02978
  Beta virt. eigenvalues --    0.04477   0.04510   0.04574   0.05339   0.05410

 Mulliken charges and spin densities:
               1          2
     1  Cl   0.341598   0.000056
     2  C    0.977435   0.023091
     3  C   -0.084143   0.046734
     4  C   -0.610409   0.050020
     5  C    0.281918   0.024205
     6  C    0.229111   0.046987
     7  C   -0.774473   0.100567
     8  O   -0.447557   0.205924
     9  C    0.018373   0.006406
    10  C    0.107822   0.034569
    11  C   -0.427214   0.024470
    12  C   -0.458831   0.037837
    13  C    0.182334   0.022970
    14  C    0.069962   0.043414
    15  C   -1.278421   0.080438
    16  O   -0.349183   0.208606
    17  C   -0.037518   0.061256
    18  H    0.201233  -0.003519
    19  H    0.187065  -0.003873
    20  H    0.172199  -0.001448
    21  H    0.165309  -0.001924
    22  H    0.181753  -0.002143
    23  H    0.183087  -0.003159
    24  H    0.168548  -0.001483
 Sum of Mulliken charges =  -1.00000   1.00000

 Dipole moment (field-independent basis, Debye):
    X=              0.6894    Y=              0.4465    Z=             -0.0003  Tot=              0.8214
 Quadrupole moment (field-independent basis, Debye-Ang):
   XX=           -109.5468   YY=           -137.8702   ZZ=           -111.5221
   XY=             17.3037   XZ=             -0.0001   YZ=              0.0007

 Normal termination of Gaussian 16 at Sun Jan 14 01:07:37 2024.
