 Q-Chem 5.4, Q-Chem, Inc., Pleasanton, CA (2021)
 Q-Chem 5.4.0 for Intel X86 EM64T Linux

User input:
--------------------------------------------------------------
$molecule
-1 2
O                  2.3848220000      2.8801830000     -1.1795100000
N                  2.6613190000      2.3196040000     -0.1297210000
O                  3.2665190000      2.8384470000      0.8039710000
C                  2.3787240000      0.8649700000     -0.0335800000
C                  3.4979790000      0.0632760000     -0.0635790000
C                  3.3397830000     -1.3350460000     -0.1223290000
C                  2.0719330000     -1.8780040000     -0.1488490000
C                  0.9218140000     -1.0656320000     -0.0884450000
C                 -0.3921080000     -1.7149660000     -0.1072990000
O                 -0.5105780000     -2.9597140000     -0.1978050000
C                 -1.5543820000     -0.8289870000     -0.0113150000
C                 -2.8512600000     -1.3851900000     -0.0484440000
C                 -3.9721190000     -0.5858000000      0.0546850000
C                 -3.8293650000      0.8101190000      0.2047220000
C                 -2.5700030000      1.3744460000      0.2480700000
C                 -1.4106950000      0.5769540000      0.1374620000
C                 -0.0968720000      1.2277560000      0.1921220000
O                  0.0268450000      2.4523700000      0.4158180000
C                  1.0586310000      0.3570720000     -0.0016540000
H                  4.4817550000      0.5169650000     -0.0704110000
H                  4.2163270000     -1.9727330000     -0.1600110000
H                  1.9148620000     -2.9484390000     -0.2095850000
H                 -2.9298020000     -2.4604530000     -0.1590100000
H                 -4.9627850000     -1.0290780000      0.0221100000
H                 -4.7105370000      1.4392400000      0.2863960000
H                 -2.4308070000      2.4426410000      0.3661900000
$end
$rem
MAX_SCF_CYCLES=200
BASIS  =  6-311++G(d,p)
GUI  =  2
JOB_TYPE  =  SP
METHOD  =  B3LYP
SOLVENT_METHOD = COSMO
$end
$solvent
dielectric 37.219
opticaldielectric 1.43
$end

--------------------------------------------------------------

             Standard Nuclear Orientation (Angstroms)
    I     Atom           X                Y                Z
 ----------------------------------------------------------------
    1      O      -2.8199414468     1.8225872894     1.2167767931
    2      N      -2.8962169119     1.2656001611     0.1320170303
    3      O      -3.6069870626     1.6360444680    -0.7979413870
    4      C      -2.1956903607    -0.0345883744    -0.0223702204
    5      C      -3.0295352700    -1.1293802073    -0.0721544997
    6      C      -2.4678048772    -2.4209830368    -0.0739007124
    7      C      -1.0971620084    -2.5692554139    -0.0259033050
    8      C      -0.2363154313    -1.4535184611    -0.0048119185
    9      C       1.2098428416    -1.6893932039     0.0322082686
   10      O       1.6876963335    -2.8478412854     0.0679593980
   11      C       2.0613936351    -0.4978379372     0.0217268415
   12      C       3.4634407024    -0.6508445556     0.0807682050
   13      C       4.3010830959     0.4463331687     0.0575061649
   14      C       3.7567939421     1.7453033287    -0.0314067188
   15      C       2.3883314059     1.9174053142    -0.0948720867
   16      C       1.5132338595     0.8103535900    -0.0654880296
   17      C       0.0675145210     1.0496732957    -0.1381757654
   18      O      -0.4065322982     2.1948616032    -0.3080245185
   19      C      -0.7841937464    -0.1308024890    -0.0291028629
   20      H      -4.1032060636    -0.9849608748    -0.0805023373
   21      H      -3.1182393734    -3.2885597077    -0.0991932673
   22      H      -0.6331262642    -3.5483439737    -0.0101657686
   23      H       3.8527915552    -1.6603524933     0.1430886863
   24      H       5.3774151999     0.3116519222     0.1059396581
   25      H       4.4151273645     2.6085354186    -0.0502596324
   26      H       1.9432779013     2.9028218720    -0.1673289998
 ----------------------------------------------------------------

   11    -893.5808072683      7.71e-06  Convergence criterion met
 Total energy in the final basis set =     -893.5808072683
    5    -893.6625521703      5.58e-06  Convergence criterion met
 Total energy in the final basis set =     -893.6625521703

                    Orbital Energies (a.u.)
 --------------------------------------------------------------

 Alpha MOs
 -- Occupied --
-19.1729 -19.1728 -19.0890 -19.0888 -14.5618 -10.2385 -10.2379 -10.2377
-10.1977 -10.1965 -10.1887 -10.1857 -10.1840 -10.1817 -10.1806 -10.1772
-10.1766 -10.1748 -10.1744  -1.2472  -1.0743  -1.0196  -1.0161  -0.8883
 -0.8627  -0.8114  -0.7947  -0.7567  -0.7517  -0.7091  -0.6764  -0.6440
 -0.6326  -0.5933  -0.5765  -0.5620  -0.5422  -0.5364  -0.5324  -0.5142
 -0.4821  -0.4745  -0.4653  -0.4593  -0.4359  -0.4292  -0.4267  -0.4229
 -0.4141  -0.3948  -0.3882  -0.3837  -0.3784  -0.3570  -0.3538  -0.3444
 -0.3329  -0.3248  -0.3237  -0.2807  -0.2710  -0.2625  -0.2601  -0.2580
 -0.2504  -0.1536

 Beta MOs
 -- Occupied --
-19.1726 -19.1726 -19.0837 -19.0832 -14.5615 -10.2383 -10.2362 -10.2361
-10.1965 -10.1964 -10.1875 -10.1849 -10.1842 -10.1812 -10.1800 -10.1769
-10.1762 -10.1748 -10.1743  -1.2466  -1.0738  -1.0100  -1.0066  -0.8863
 -0.8612  -0.8091  -0.7914  -0.7547  -0.7499  -0.7062  -0.6709  -0.6418
 -0.6301  -0.5927  -0.5751  -0.5598  -0.5405  -0.5353  -0.5310  -0.5123
 -0.4793  -0.4736  -0.4638  -0.4585  -0.4285  -0.4236  -0.4216  -0.4210
 -0.4114  -0.3871  -0.3809  -0.3773  -0.3714  -0.3557  -0.3444  -0.3435
 -0.3300  -0.3234  -0.3220  -0.2663  -0.2610  -0.2555  -0.2546  -0.2522
 -0.2453

          Ground-State Mulliken Net Atomic Charges

     Atom                 Charge (a.u.)    Spin (a.u.)
  --------------------------------------------------------
      1 O                    -0.055638       0.007075
      2 N                    -0.120829       0.007874
      3 O                    -0.054789       0.011514
      4 C                    -0.249417       0.041096
      5 C                     0.177861       0.014539
      6 C                    -0.501934       0.072520
      7 C                    -0.226156      -0.003910
      8 C                     1.021038       0.066247
      9 C                    -0.260816       0.086901
     10 O                    -0.460615       0.193453
     11 C                     0.334374       0.011048
     12 C                     0.024114       0.023569
     13 C                    -0.516562       0.030412
     14 C                    -0.467435       0.027363
     15 C                     0.086677       0.037635
     16 C                     0.007206       0.026761
     17 C                    -0.964670       0.086693
     18 O                    -0.418680       0.209110
     19 C                     0.210536       0.063733
     20 H                     0.246648      -0.001266
     21 H                     0.227479      -0.004617
     22 H                     0.181800       0.000223
     23 H                     0.181383      -0.001531
     24 H                     0.206971      -0.002484
     25 H                     0.208971      -0.002232
     26 H                     0.182482      -0.001726
  --------------------------------------------------------
  Sum of atomic charges =    -1.000000

                    Cartesian Multipole Moments
 -----------------------------------------------------------------
    Charge (ESU x 10^10)
                -4.8032
    Dipole Moment (Debye)
         X       1.5493      Y      -3.1914      Z       0.1662
       Tot       3.5515
    Quadrupole Moments (Debye-Ang)
        XX    -120.0117     XY      32.0629     YY    -140.0176
        XZ      -0.7108     YZ       0.8392     ZZ    -118.2287

 Total job time:  102.51s(wall), 699.56s(cpu)
        *  Thank you very much for using Q-Chem.  Have a nice day.  *
