 Q-Chem 5.4, Q-Chem, Inc., Pleasanton, CA (2021)
 Q-Chem 5.4.0 for Intel X86 EM64T Linux

User input:
--------------------------------------------------------------
$molecule
-1 2
C                 -1.5659660000     -1.5467150000     -0.6388920000
C                 -1.1726870000     -0.1385550000     -0.1295840000
C                 -1.5563800000     -0.0031230000      1.3641990000
C                 -2.0008850000      0.8925350000     -0.9202580000
C                  0.3429290000      0.0757560000     -0.3021370000
C                  0.8487710000      1.0824070000     -1.0815740000
C                  2.2548030000      1.3525040000     -1.2967350000
O                  2.6473060000      2.2951380000     -2.0262360000
C                  3.1589890000      0.4482840000     -0.6030400000
C                  2.6855260000     -0.5710290000      0.1859350000
Cl                 3.7858490000     -1.6585820000      1.0201860000
C                  1.2625170000     -0.8318990000      0.3938160000
O                  0.8762460000     -1.7773350000      1.1254570000
Cl                 4.8780140000      0.7291410000     -0.8278730000
H                 -1.0285870000     -2.3177020000     -0.0881060000
H                 -2.6443710000     -1.7048850000     -0.5146010000
H                 -1.3300330000     -1.6476130000     -1.7033400000
H                 -1.0190160000     -0.7349020000      1.9660970000
H                 -2.6348290000     -0.1582100000      1.4919090000
H                 -1.3132030000      0.9992410000      1.7316670000
H                 -3.0665950000      0.6953790000     -0.7628960000
H                 -1.8063210000      0.8352570000     -1.9951340000
H                 -1.7992610000      1.9164590000     -0.5925230000
H                  0.1971830000      1.7684470000     -1.6079290000
$end
$rem
MAX_SCF_CYCLES=200
BASIS  =  6-311++G(d,p)
GUI  =  2
JOB_TYPE  =  SP
METHOD  =  B3LYP
SOLVENT_METHOD = PCM
$end
$pcm
theory = CPCM
$end
$solvent
dielectric 37.219
opticaldielectric 1.43
$end

--------------------------------------------------------------

             Standard Nuclear Orientation (Angstroms)
    I     Atom           X                Y                Z
 ----------------------------------------------------------------
    1      C      -1.5659660000    -1.5467150000    -0.6388920000
    2      C      -1.1726870000    -0.1385550000    -0.1295840000
    3      C      -1.5563800000    -0.0031230000     1.3641990000
    4      C      -2.0008850000     0.8925350000    -0.9202580000
    5      C       0.3429290000     0.0757560000    -0.3021370000
    6      C       0.8487710000     1.0824070000    -1.0815740000
    7      C       2.2548030000     1.3525040000    -1.2967350000
    8      O       2.6473060000     2.2951380000    -2.0262360000
    9      C       3.1589890000     0.4482840000    -0.6030400000
   10      C       2.6855260000    -0.5710290000     0.1859350000
   11      Cl      3.7858490000    -1.6585820000     1.0201860000
   12      C       1.2625170000    -0.8318990000     0.3938160000
   13      O       0.8762460000    -1.7773350000     1.1254570000
   14      Cl      4.8780140000     0.7291410000    -0.8278730000
   15      H      -1.0285870000    -2.3177020000    -0.0881060000
   16      H      -2.6443710000    -1.7048850000    -0.5146010000
   17      H      -1.3300330000    -1.6476130000    -1.7033400000
   18      H      -1.0190160000    -0.7349020000     1.9660970000
   19      H      -2.6348290000    -0.1582100000     1.4919090000
   20      H      -1.3132030000     0.9992410000     1.7316670000
   21      H      -3.0665950000     0.6953790000    -0.7628960000
   22      H      -1.8063210000     0.8352570000    -1.9951340000
   23      H      -1.7992610000     1.9164590000    -0.5925230000
   24      H       0.1971830000     1.7684470000    -1.6079290000
 ----------------------------------------------------------------

    8   -1458.2665978054      9.03e-06  Convergence criterion met
 Total energy in the final basis set =    -1458.2665978054

                    Orbital Energies (a.u.)
 --------------------------------------------------------------

 Alpha MOs
 -- Occupied --
********-101.5556 -19.0892 -19.0871 -10.2392 -10.2375 -10.2356 -10.2342
-10.1848 -10.1827 -10.1667 -10.1495 -10.1462 -10.1461  -9.4709  -9.4700
 -7.2352  -7.2346  -7.2262  -7.2253  -7.2252  -7.2242  -1.0177  -1.0147
 -0.8960  -0.8488  -0.8346  -0.7920  -0.7237  -0.6905  -0.6759  -0.6756
 -0.6061  -0.5836  -0.5323  -0.5035  -0.4785  -0.4570  -0.4450  -0.4404
 -0.4282  -0.4267  -0.4202  -0.4079  -0.4006  -0.3813  -0.3782  -0.3711
 -0.3615  -0.3523  -0.3421  -0.3351  -0.3268  -0.3267  -0.3210  -0.3054
 -0.2828  -0.2568  -0.2498  -0.2486  -0.1720

 Beta MOs
 -- Occupied --
********-101.5555 -19.0828 -19.0806 -10.2376 -10.2361 -10.2342 -10.2327
-10.1848 -10.1817 -10.1660 -10.1495 -10.1461 -10.1461  -9.4708  -9.4700
 -7.2352  -7.2346  -7.2260  -7.2252  -7.2251  -7.2242  -1.0065  -1.0032
 -0.8931  -0.8475  -0.8320  -0.7893  -0.7216  -0.6833  -0.6757  -0.6723
 -0.6025  -0.5796  -0.5304  -0.5014  -0.4753  -0.4552  -0.4434  -0.4328
 -0.4255  -0.4206  -0.4142  -0.4052  -0.3881  -0.3791  -0.3708  -0.3663
 -0.3577  -0.3454  -0.3411  -0.3286  -0.3260  -0.3228  -0.3205  -0.3050
 -0.2559  -0.2509  -0.2428  -0.2427

          Ground-State Mulliken Net Atomic Charges

     Atom                 Charge (a.u.)    Spin (a.u.)
  --------------------------------------------------------
      1 C                    -0.702980       0.010051
      2 C                     0.491814      -0.024921
      3 C                    -0.703364       0.010038
      4 C                    -0.524050       0.001566
      5 C                     0.678489       0.108438
      6 C                    -0.417991       0.044054
      7 C                    -0.847171       0.101494
      8 O                    -0.451924       0.234026
      9 C                     0.755781       0.094907
     10 C                    -0.059479       0.062088
     11 Cl                    0.355133       0.005907
     12 C                    -1.153574       0.105703
     13 O                    -0.384164       0.246961
     14 Cl                    0.324130       0.007206
     15 H                     0.176483      -0.001270
     16 H                     0.160406       0.000303
     17 H                     0.140823       0.000274
     18 H                     0.176739      -0.001266
     19 H                     0.160411       0.000309
     20 H                     0.140662       0.000272
     21 H                     0.181680       0.000081
     22 H                     0.140078      -0.000215
     23 H                     0.140439      -0.000211
     24 H                     0.221627      -0.005794
  --------------------------------------------------------
  Sum of atomic charges =    -1.000000

                    Cartesian Multipole Moments
 -----------------------------------------------------------------
    Charge (ESU x 10^10)
                -4.8032
    Dipole Moment (Debye)
         X     -12.8619      Y      -0.6822      Z       1.7500
       Tot      12.9984
    Quadrupole Moments (Debye-Ang)
        XX    -140.0493     XY     -10.2437     YY    -124.1789
        XZ      11.1991     YZ      17.8832     ZZ    -115.5583

 Total job time:  40.08s(wall), 279.07s(cpu)
        *  Thank you very much for using Q-Chem.  Have a nice day.  *
