 Gaussian 16, Revision A.03,
 Gaussian 16:  ES64L-G16RevA.03 25-Dec-2016

 ----------------------------------------------------------------------
 #P UB3LYP/6-311++G(d,p) nosym opt freq SCRF=(PCM,Solvent=n,n-DiMethylF
 ormamide)
 ----------------------------------------------------------------------

 -------
 Radical
 -------
 Symbolic Z-matrix:
 Charge = -1 Multiplicity = 2

 SCF Done:  E(UB3LYP) =  -1897.15415242     A.U. after   20 cycles
 SCF Done:  E(UB3LYP) =  -1897.15528109     A.U. after   17 cycles
 SCF Done:  E(UB3LYP) =  -1897.15565467     A.U. after   16 cycles
 SCF Done:  E(UB3LYP) =  -1897.15567081     A.U. after   16 cycles
 SCF Done:  E(UB3LYP) =  -1897.15583355     A.U. after   15 cycles
 SCF Done:  E(UB3LYP) =  -1897.15589944     A.U. after   14 cycles
 SCF Done:  E(UB3LYP) =  -1897.15592675     A.U. after   14 cycles
 SCF Done:  E(UB3LYP) =  -1897.15593935     A.U. after   13 cycles
 SCF Done:  E(UB3LYP) =  -1897.15595058     A.U. after   15 cycles
 SCF Done:  E(UB3LYP) =  -1897.15595216     A.U. after   11 cycles
 SCF Done:  E(UB3LYP) =  -1897.15595354     A.U. after   11 cycles
 SCF Done:  E(UB3LYP) =  -1897.15595386     A.U. after   10 cycles
 SCF Done:  E(UB3LYP) =  -1897.15595408     A.U. after   11 cycles
 Optimization completed.
    -- Stationary point found.
 Normal termination of Gaussian 16 at Sun Feb 11 00:50:37 2024.

 ----------------------------------------------------------------------
 #P Geom=AllCheck Guess=TCheck SCRF=Check GenChk UB3LYP/6-311++G(d,p) F
 req
 ----------------------------------------------------------------------

 Structure from the checkpoint file:  "220-rad.chk"
 -------
 Radical
 -------
 Charge = -1 Multiplicity = 2

                          Input orientation:
 ---------------------------------------------------------------------
 Center     Atomic      Atomic             Coordinates (Angstroms)
 Number     Number       Type             X           Y           Z
 ---------------------------------------------------------------------
      1          6           0        4.997187   -2.709629    0.060585
      2          6           0        5.717307   -1.759891   -0.631342
      3          6           0        5.086972   -0.657645   -1.251356
      4          6           0        3.596757   -2.596278    0.161436
      5          6           0        2.941610   -1.493437   -0.457057
      6          6           0        3.719384   -0.540324   -1.156864
      7          6           0        2.857113   -3.621260    0.901057
      8          6           0        1.404114   -3.448355    0.962585
      9          6           0        0.749160   -2.345615    0.343731
     10          6           0        1.492407   -1.323782   -0.389040
     11          6           0        0.636130   -4.404296    1.655576
     12          6           0       -0.658989   -2.242792    0.442845
     13          6           0       -1.402602   -3.180357    1.121988
     14          8           0        3.433477   -4.589837    1.448864
     15          8           0        0.913508   -0.346588   -0.934647
     16          1           0        5.489235   -3.550424    0.530577
     17          1           0       -2.479640   -3.092452    1.187703
     18          1           0        3.207885    0.291623   -1.623826
     19          1           0        1.139167   -5.240601    2.121731
     20          1           0       -1.144264   -1.401295   -0.035030
     21          6           0       -0.733179   -4.266746    1.728795
     22         16           0        7.490063   -1.930724   -0.761056
     23         16           0       -1.687974   -5.494128    2.606397
     24          8           0       -0.793534   -6.601468    2.972596
     25          8           0       -2.912730   -5.805184    1.855535
     26          7           0       -2.213839   -4.638775    3.958691
     27          1           0       -1.489519   -4.593142    4.672069
     28          1           0       -3.050936   -5.079791    4.334317
     29          8           0        7.872497   -3.231994   -0.194657
     30          8           0        7.923799   -1.610867   -2.128616
     31          7           0        8.043495   -0.648328    0.179803
     32          1           0        5.670365    0.075942   -1.793191
     33          1           0        8.988420   -0.400610   -0.106642
     34          1           0        8.024885   -0.880380    1.170443
 ---------------------------------------------------------------------

 SCF Done:  E(UB3LYP) =  -1897.15595408     A.U. after    2 cycles

 Alpha  occ. eigenvalues --  -89.07992 -89.07992 -19.13118 -19.13117 -19.13031
 Alpha  occ. eigenvalues --  -19.13024 -19.09277 -19.08850 -14.35188 -14.35183
 Alpha  occ. eigenvalues --  -10.24424 -10.23681 -10.22008 -10.22007 -10.19939
 Alpha  occ. eigenvalues --  -10.19933 -10.19750 -10.19749 -10.19316 -10.19314
 Alpha  occ. eigenvalues --  -10.19245 -10.19243 -10.18780 -10.18774  -8.14160
 Alpha  occ. eigenvalues --   -8.14159  -6.10447  -6.10446  -6.10411  -6.10410
 Alpha  occ. eigenvalues --   -6.10238  -6.10238  -1.13329  -1.13328  -1.02128
 Alpha  occ. eigenvalues --   -1.02122  -1.02025  -1.01300  -0.92344  -0.92337
 Alpha  occ. eigenvalues --   -0.88651  -0.87929  -0.81677  -0.78330  -0.77728
 Alpha  occ. eigenvalues --   -0.76976  -0.71272  -0.68630  -0.68075  -0.63509
 Alpha  occ. eigenvalues --   -0.62949  -0.60563  -0.58017  -0.56501  -0.56204
 Alpha  occ. eigenvalues --   -0.53636  -0.53563  -0.52677  -0.52043  -0.51003
 Alpha  occ. eigenvalues --   -0.49599  -0.49462  -0.48205  -0.46730  -0.46257
 Alpha  occ. eigenvalues --   -0.44902  -0.44534  -0.44109  -0.43866  -0.43510
 Alpha  occ. eigenvalues --   -0.42729  -0.41149  -0.39464  -0.39424  -0.39125
 Alpha  occ. eigenvalues --   -0.37586  -0.37431  -0.36979  -0.36535  -0.35983
 Alpha  occ. eigenvalues --   -0.34760  -0.34666  -0.33347  -0.33305  -0.32422
 Alpha  occ. eigenvalues --   -0.32339  -0.30636  -0.30566  -0.28360  -0.27975
 Alpha  occ. eigenvalues --   -0.27575  -0.26911  -0.26074  -0.25200  -0.16033
 Alpha virt. eigenvalues --   -0.07462  -0.05868  -0.02248  -0.01188  -0.00859
 Alpha virt. eigenvalues --    0.00390   0.00805   0.01447   0.01834   0.02684
 Alpha virt. eigenvalues --    0.03032   0.03383   0.03791   0.03934   0.04681

  Beta  occ. eigenvalues --  -89.07993 -89.07992 -19.13112 -19.13112 -19.13028
  Beta  occ. eigenvalues --  -19.13021 -19.08761 -19.08210 -14.35186 -14.35181
  Beta  occ. eigenvalues --  -10.24311 -10.23524 -10.21948 -10.21946 -10.19971
  Beta  occ. eigenvalues --  -10.19965 -10.19687 -10.19686 -10.19217 -10.19215
  Beta  occ. eigenvalues --  -10.19156 -10.19155 -10.18782 -10.18777  -8.14160
  Beta  occ. eigenvalues --   -8.14159  -6.10446  -6.10445  -6.10410  -6.10410
  Beta  occ. eigenvalues --   -6.10240  -6.10240  -1.13317  -1.13316  -1.02117
  Beta  occ. eigenvalues --   -1.02112  -1.01138  -1.00185  -0.92334  -0.92326
  Beta  occ. eigenvalues --   -0.88409  -0.87816  -0.81274  -0.78178  -0.77495
  Beta  occ. eigenvalues --   -0.76832  -0.70932  -0.68502  -0.67594  -0.63357
  Beta  occ. eigenvalues --   -0.62769  -0.60499  -0.57852  -0.56304  -0.56143
  Beta  occ. eigenvalues --   -0.53586  -0.53512  -0.52620  -0.51944  -0.50935
  Beta  occ. eigenvalues --   -0.49508  -0.49224  -0.48127  -0.46677  -0.46224
  Beta  occ. eigenvalues --   -0.44875  -0.44502  -0.43868  -0.43403  -0.42684
  Beta  occ. eigenvalues --   -0.42262  -0.40791  -0.39292  -0.38858  -0.37528
  Beta  occ. eigenvalues --   -0.37403  -0.37105  -0.36904  -0.35839  -0.35621
  Beta  occ. eigenvalues --   -0.34741  -0.34531  -0.33275  -0.33247  -0.32381
  Beta  occ. eigenvalues --   -0.32311  -0.30557  -0.30237  -0.27665  -0.26673
  Beta  occ. eigenvalues --   -0.26337  -0.26271  -0.25562  -0.24639
  Beta virt. eigenvalues --   -0.10181  -0.06683  -0.04858  -0.02032  -0.01178
  Beta virt. eigenvalues --   -0.00856   0.00700   0.01176   0.01514   0.01839
  Beta virt. eigenvalues --    0.02744   0.03049   0.03388   0.03831   0.04025

 Mulliken charges and spin densities:
               1          2
     1  C    0.067228  -0.014205
     2  C   -0.871549   0.029935
     3  C   -0.298011   0.053583
     4  C    0.376736   0.057873
     5  C    0.686721   0.056097
     6  C   -0.220387   0.027160
     7  C   -0.926334   0.061212
     8  C    0.367308   0.058084
     9  C    0.689298   0.056012
    10  C   -0.258103   0.085732
    11  C    0.063103  -0.014261
    12  C   -0.219202   0.027274
    13  C   -0.304328   0.053476
    14  O   -0.397672   0.190728
    15  O   -0.419565   0.238916
    16  H    0.235640   0.000622
    17  H    0.259092  -0.003672
    18  H    0.172682  -0.001377
    19  H    0.235360   0.000625
    20  H    0.172706  -0.001379
    21  C   -0.838693   0.030131
    22  S    0.390294   0.006794
    23  S    0.383239   0.006714
    24  O   -0.236132   0.001304
    25  O   -0.292528  -0.002026
    26  N   -0.411191  -0.001056
    27  H    0.305713  -0.000115
    28  H    0.329566   0.000734
    29  O   -0.234640   0.001282
    30  O   -0.289561  -0.002014
    31  N   -0.410731  -0.001092
    32  H    0.259196  -0.003695
    33  H    0.329236   0.000716
    34  H    0.305505  -0.000108
 Sum of Mulliken charges =  -1.00000   1.00000

 Dipole moment (field-independent basis, Debye):
    X=            -11.5493    Y=             19.8186    Z=              4.0482  Tot=             23.2928
 Quadrupole moment (field-independent basis, Debye-Ang):
   XX=           -226.7049   YY=           -271.3478   ZZ=           -151.7386
   XY=             52.3636   XZ=             19.6989   YZ=              7.2672

  Exact polarizability: 599.823  62.760 380.158 -87.648-121.608 287.935
 Approx polarizability: 596.351  22.176 441.861 -57.265-134.744 326.445

                      1                      2                      3
                      A                      A                      A
 Frequencies --     19.1681                23.4243                34.5814
 Red. masses --      7.5007                 7.5874                 9.1118
 Frc consts  --      0.0016                 0.0025                 0.0064
 IR Inten    --      4.6804                 4.0615                 6.3315

                      4                      5                      6
                      A                      A                      A
 Frequencies --     55.0552                75.1230                82.8580
 Red. masses --      5.7003                10.4531                 7.5101
 Frc consts  --      0.0102                 0.0348                 0.0304
 IR Inten    --      5.5289                 0.0541                12.2552

                      7                      8                      9
                      A                      A                      A
 Frequencies --    128.7624               132.9965               142.8404
 Red. masses --      3.8488                 7.3548                 3.7854
 Frc consts  --      0.0376                 0.0766                 0.0455
 IR Inten    --     23.5094                 2.1939                 4.3968

                     10                     11                     12
                      A                      A                      A
 Frequencies --    161.8540               186.9656               187.8005
 Red. masses --      4.3512                 4.9965                 2.3519
 Frc consts  --      0.0672                 0.1029                 0.0489
 IR Inten    --     18.7073                23.5386                66.2374

                     13                     14                     15
                      A                      A                      A
 Frequencies --    213.6649               228.6541               244.9392
 Red. masses --      1.6882                 8.1053                 2.7087
 Frc consts  --      0.0454                 0.2497                 0.0957
 IR Inten    --     16.4717                10.5802                44.4867

                     16                     17                     18
                      A                      A                      A
 Frequencies --    249.1566               272.9407               322.5822
 Red. masses --      9.7980                12.7518                 3.3582
 Frc consts  --      0.3584                 0.5597                 0.2059
 IR Inten    --      2.5737                 1.3006                12.0064

                     19                     20                     21
                      A                      A                      A
 Frequencies --    336.2808               354.3407               364.2378
 Red. masses --      3.6692                 5.0184                 4.7406
 Frc consts  --      0.2445                 0.3712                 0.3706
 IR Inten    --     35.1016                12.5240                24.6070

                     22                     23                     24
                      A                      A                      A
 Frequencies --    391.2465               413.0164               426.2236
 Red. masses --     10.2747                 3.5877                 5.8791
 Frc consts  --      0.9267                 0.3606                 0.6293
 IR Inten    --     30.2719                 3.1555                37.8645

                     25                     26                     27
                      A                      A                      A
 Frequencies --    428.6803               432.9484               456.9441
 Red. masses --      6.7336                 7.2488                 4.0472
 Frc consts  --      0.7291                 0.8005                 0.4979
 IR Inten    --     20.0764                10.3168                70.6024

                     28                     29                     30
                      A                      A                      A
 Frequencies --    458.3365               465.7812               488.1019
 Red. masses --      7.0938                 5.0250                 7.7017
 Frc consts  --      0.8780                 0.6423                 1.0811
 IR Inten    --      1.1175               101.7619                28.2915

                     31                     32                     33
                      A                      A                      A
 Frequencies --    497.9537               505.5672               552.5859
 Red. masses --     10.5185                 9.3047                 6.7648
 Frc consts  --      1.5367                 1.4012                 1.2170
 IR Inten    --      7.4511                74.4442               412.9773

                     34                     35                     36
                      A                      A                      A
 Frequencies --    559.1738               564.8983               637.6675
 Red. masses --      6.8482                 6.6008                 4.1357
 Frc consts  --      1.2616                 1.2410                 0.9908
 IR Inten    --     77.5447                73.1608                18.0253

                     37                     38                     39
                      A                      A                      A
 Frequencies --    649.8619               666.4527               670.2272
 Red. masses --      7.4669                 4.4029                 3.3594
 Frc consts  --      1.8579                 1.1522                 0.8891
 IR Inten    --     20.6210               382.9117               146.2885

                     40                     41                     42
                      A                      A                      A
 Frequencies --    682.9166               703.7876               713.6482
 Red. masses --      4.1934                 6.8094                 5.0286
 Frc consts  --      1.1523                 1.9872                 1.5089
 IR Inten    --    302.4700                 4.9678                 1.6716

                     43                     44                     45
                      A                      A                      A
 Frequencies --    725.5176               726.1266               795.7483
 Red. masses --      5.0247                 5.7853                 3.1071
 Frc consts  --      1.5583                 1.7972                 1.1592
 IR Inten    --     29.1689                44.7955                 2.4508

                     46                     47                     48
                      A                      A                      A
 Frequencies --    818.9317               837.6059               837.9715
 Red. masses --      1.3892                 2.6310                 2.3687
 Frc consts  --      0.5489                 1.0875                 0.9800
 IR Inten    --      1.0387               106.4813                61.2093

                     49                     50                     51
                      A                      A                      A
 Frequencies --    859.6957               876.5478               932.6227
 Red. masses --      1.8927                 2.8044                 6.5580
 Frc consts  --      0.8242                 1.2695                 3.3607
 IR Inten    --    377.9530               113.1607                20.6778

                     52                     53                     54
                      A                      A                      A
 Frequencies --    942.5910               948.6494               986.6431
 Red. masses --      1.3469                 1.4141                 1.3171
 Frc consts  --      0.7051                 0.7498                 0.7554
 IR Inten    --      0.8596                14.5069                 0.1219

                     55                     56                     57
                      A                      A                      A
 Frequencies --    989.0452               989.9069              1057.8204
 Red. masses --      5.3422                 1.3404                 3.2894
 Frc consts  --      3.0789                 0.7739                 2.1686
 IR Inten    --     33.7224                 6.9503                 1.4038

                     58                     59                     60
                      A                      A                      A
 Frequencies --   1058.0270              1076.3849              1079.3585
 Red. masses --      3.8591                 2.5195                 2.7189
 Frc consts  --      2.5452                 1.7199                 1.8663
 IR Inten    --    248.2231               141.4186               769.4333

                     61                     62                     63
                      A                      A                      A
 Frequencies --   1110.0400              1111.2385              1135.5451
 Red. masses --      1.5242                 1.5337                 2.2241
 Frc consts  --      1.1065                 1.1158                 1.6897
 IR Inten    --    359.1488               227.5931                18.2954

                     64                     65                     66
                      A                      A                      A
 Frequencies --   1135.7628              1182.1835              1195.6397
 Red. masses --      1.7562                 2.9788                 6.8598
 Frc consts  --      1.3348                 2.4528                 5.7778
 IR Inten    --     51.1422                10.5303               281.8577

                     67                     68                     69
                      A                      A                      A
 Frequencies --   1196.4005              1222.5339              1238.8513
 Red. masses --      2.3022                 1.6205                 5.5971
 Frc consts  --      1.9415                 1.4270                 5.0612
 IR Inten    --      5.2955                 8.8939               807.7853

                     70                     71                     72
                      A                      A                      A
 Frequencies --   1241.7532              1252.7369              1315.1366
 Red. masses --      8.2189                 1.8746                 2.0434
 Frc consts  --      7.4668                 1.7333                 2.0823
 IR Inten    --    280.2854                51.7078                20.4445

                     73                     74                     75
                      A                      A                      A
 Frequencies --   1367.3139              1368.1119              1382.4657
 Red. masses --     11.0586                11.3553                 3.6512
 Frc consts  --     12.1811                12.5225                 4.1114
 IR Inten    --    100.5144                 0.2056               654.1376

                     76                     77                     78
                      A                      A                      A
 Frequencies --   1449.5166              1478.3871              1478.9053
 Red. masses --      3.3156                 3.6933                 2.7767
 Frc consts  --      4.1045                 4.7560                 3.5782
 IR Inten    --     19.9802                74.5661               279.3099

                     79                     80                     81
                      A                      A                      A
 Frequencies --   1494.7765              1530.8090              1547.2183
 Red. masses --      6.2114                 7.9846                 6.5357
 Frc consts  --      8.1769                11.0241                 9.2182
 IR Inten    --   1173.9983                99.3063               255.0852

                     82                     83                     84
                      A                      A                      A
 Frequencies --   1581.4104              1581.7577              1606.0709
 Red. masses --      1.1060                 1.1019                 8.2926
 Frc consts  --      1.6296                 1.6243                12.6028
 IR Inten    --     61.7487                20.7538                 9.3619

                     85                     86                     87
                      A                      A                      A
 Frequencies --   1609.8931              1627.6887              3191.6367
 Red. masses --      5.9775                 7.4773                 1.0874
 Frc consts  --      9.1277                11.6718                 6.5261
 IR Inten    --    171.4464                57.5450                 4.5191

                     88                     89                     90
                      A                      A                      A
 Frequencies --   3192.3409              3204.9427              3205.7828
 Red. masses --      1.0874                 1.0951                 1.0949
 Frc consts  --      6.5289                 6.6276                 6.6296
 IR Inten    --      3.7495                 6.7242                 6.7433

                     91                     92                     93
                      A                      A                      A
 Frequencies --   3213.9556              3214.7381              3483.3212
 Red. masses --      1.0904                 1.0903                 1.0473
 Frc consts  --      6.6360                 6.6386                 7.4871
 IR Inten    --      6.5175                10.4355                75.2494

                     94                     95                     96
                      A                      A                      A
 Frequencies --   3484.0823              3580.6551              3581.5093
 Red. masses --      1.0473                 1.0975                 1.0974
 Frc consts  --      7.4902                 8.2902                 8.2938
 IR Inten    --     75.3545                66.8548                66.9946

 - Thermochemistry -
 -------------------
 Temperature   298.150 Kelvin.  Pressure   1.00000 Atm.
 Atom     1 has atomic number  6 and mass  12.00000

 Molecular mass:   365.99803 amu.
 Principal axes and moments of inertia in atomic units:
                           1         2         3
     Eigenvalues --  3259.08283********************
           X            0.88202  -0.46111   0.09698
           Y            0.34255   0.76880   0.54001
           Z           -0.32357  -0.44308   0.83605
 This molecule is an asymmetric top.
 Rotational symmetry number  1.
 Warning -- assumption of classical behavior for rotation
           may cause significant error
 Rotational temperatures (Kelvin)      0.02658     0.00404     0.00362
 Rotational constants (GHZ):           0.55376     0.08423     0.07548
 Zero-point vibrational energy     601234.5 (Joules/Mol)
                                  143.69848 (Kcal/Mol)
 Warning -- explicit consideration of  35 degrees of freedom as
           vibrations may cause significant error
 Vibrational temperatures:     27.58    33.70    49.75    79.21   108.09
          (Kelvin)            119.21   185.26   191.35   205.52   232.87
                              269.00   270.20   307.42   328.98   352.41
                              358.48   392.70   464.12   483.83   509.82
                              524.06   562.92   594.24   613.24   616.78
                              622.92   657.44   659.44   670.16   702.27
                              716.44   727.40   795.05   804.53   812.76
                              917.46   935.01   958.88   964.31   982.56
                             1012.59  1026.78  1043.86  1044.73  1144.90
                             1178.26  1205.13  1205.65  1236.91  1261.16
                             1341.84  1356.18  1364.89  1419.56  1423.02
                             1424.26  1521.97  1522.26  1548.68  1552.96
                             1597.10  1598.82  1633.80  1634.11  1700.90
                             1720.26  1721.35  1758.95  1782.43  1786.61
                             1802.41  1892.19  1967.26  1968.41  1989.06
                             2085.53  2127.07  2127.81  2150.65  2202.49
                             2226.10  2275.30  2275.80  2310.78  2316.28
                             2341.88  4592.05  4593.07  4611.20  4612.41
                             4624.17  4625.29  5011.72  5012.82  5151.76
                             5152.99

 Zero-point correction=                           0.228998 (Hartree/Particle)
 Thermal correction to Energy=                    0.250215
 Thermal correction to Enthalpy=                  0.251159
 Thermal correction to Gibbs Free Energy=         0.176468
 Sum of electronic and zero-point Energies=          -1896.926956
 Sum of electronic and thermal Energies=             -1896.905739
 Sum of electronic and thermal Enthalpies=           -1896.904795
 Sum of electronic and thermal Free Energies=        -1896.979487

                     E (Thermal)             CV                S
                      KCal/Mol        Cal/Mol-Kelvin    Cal/Mol-Kelvin
 Total                  157.012             81.304            157.201
 Electronic               0.000              0.000              1.377
 Translational            0.889              2.981             43.585
 Rotational               0.889              2.981             35.767
 Vibrational            155.235             75.342             76.472
 Vibration     1          0.593              1.986              6.719
 Vibration     2          0.593              1.985              6.320
 Vibration     3          0.594              1.983              5.548
 Vibration     4          0.596              1.976              4.627
 Vibration     5          0.599              1.966              4.014
 Vibration     6          0.600              1.961              3.822
 Vibration     7          0.611              1.924              2.964
 Vibration     8          0.613              1.920              2.902
 Vibration     9          0.616              1.910              2.765
 Vibration    10          0.622              1.889              2.528
 Vibration    11          0.632              1.858              2.258
 Vibration    12          0.632              1.857              2.249
 Vibration    13          0.644              1.820              2.012
 Vibration    14          0.651              1.797              1.889
 Vibration    15          0.660              1.771              1.767
 Vibration    16          0.662              1.764              1.737
 Vibration    17          0.676              1.723              1.578
 Vibration    18          0.708              1.630              1.297
 Vibration    19          0.717              1.603              1.230
 Vibration    20          0.730              1.566              1.147
 Vibration    21          0.738              1.546              1.104
 Vibration    22          0.759              1.489              0.995
 Vibration    23          0.777              1.442              0.916
 Vibration    24          0.788              1.413              0.871
 Vibration    25          0.790              1.408              0.863
 Vibration    26          0.794              1.398              0.849
 Vibration    27          0.815              1.346              0.775
 Vibration    28          0.816              1.342              0.771
 Vibration    29          0.823              1.326              0.749
 Vibration    30          0.844              1.276              0.689
 Vibration    31          0.853              1.255              0.663
 Vibration    32          0.861              1.238              0.644
 Vibration    33          0.908              1.134              0.539
 Vibration    34          0.915              1.120              0.525
 Vibration    35          0.921              1.107              0.514

 Optimization completed.
    -- Stationary point found.
 Normal termination of Gaussian 16 at Sun Feb 11 03:38:43 2024.
