 Q-Chem 5.4, Q-Chem, Inc., Pleasanton, CA (2021)
 Q-Chem 5.4.0 for Intel X86 EM64T Linux

User input:
--------------------------------------------------------------
$molecule
-1 2
C                 -1.8263900000      3.1489940000      0.2471810000
C                 -2.9569260000      2.4399920000     -0.1141610000
C                 -2.8509500000      1.0839200000     -0.4844030000
C                 -0.5562670000      2.5324910000      0.2516320000
C                 -0.4470420000      1.1622330000     -0.1225220000
C                 -1.6117930000      0.4639340000     -0.4856490000
C                  0.6268750000      3.2752790000      0.6300900000
C                  1.8807750000      2.5581460000      0.6021210000
C                  2.0221440000      1.2317410000      0.2521790000
C                  0.8573150000      0.4652820000     -0.1366270000
O                  0.6433600000      4.5009380000      0.9817940000
O                  0.9389300000     -0.7451830000     -0.4714540000
H                 -1.8823840000      4.1925800000      0.5359050000
H                 -3.9277910000      2.9272950000     -0.1131230000
H                 -3.7394280000      0.5275860000     -0.7681590000
H                 -1.5005570000     -0.5773620000     -0.7663510000
C                  3.3705300000      0.5577210000      0.2462250000
O                  2.9511580000      3.3227930000      0.9670350000
C                  4.0625190000      0.6047020000     -1.1290430000
H                  3.2281550000     -0.4891190000      0.5293370000
H                  4.0170400000      1.0309810000      0.9913250000
H                  2.5249180000      4.1875200000      1.1586830000
H                  3.4407920000      0.1141590000     -1.8821510000
H                  5.0325270000      0.0931270000     -1.1009190000
H                  4.2333310000      1.6384990000     -1.4435040000
$end
$rem
MAX_SCF_CYCLES=200
BASIS  =  6-311++G(d,p)
GUI  =  2
JOB_TYPE  =  SP
METHOD  =  B3LYP
SOLVENT_METHOD = PCM
$end
$pcm
theory = CPCM
$end
$solvent
dielectric 37.219
opticaldielectric 1.43
$end

--------------------------------------------------------------

             Standard Nuclear Orientation (Angstroms)
    I     Atom           X                Y                Z
 ----------------------------------------------------------------
    1      C      -1.8263900000     3.1489940000     0.2471810000
    2      C      -2.9569260000     2.4399920000    -0.1141610000
    3      C      -2.8509500000     1.0839200000    -0.4844030000
    4      C      -0.5562670000     2.5324910000     0.2516320000
    5      C      -0.4470420000     1.1622330000    -0.1225220000
    6      C      -1.6117930000     0.4639340000    -0.4856490000
    7      C       0.6268750000     3.2752790000     0.6300900000
    8      C       1.8807750000     2.5581460000     0.6021210000
    9      C       2.0221440000     1.2317410000     0.2521790000
   10      C       0.8573150000     0.4652820000    -0.1366270000
   11      O       0.6433600000     4.5009380000     0.9817940000
   12      O       0.9389300000    -0.7451830000    -0.4714540000
   13      H      -1.8823840000     4.1925800000     0.5359050000
   14      H      -3.9277910000     2.9272950000    -0.1131230000
   15      H      -3.7394280000     0.5275860000    -0.7681590000
   16      H      -1.5005570000    -0.5773620000    -0.7663510000
   17      C       3.3705300000     0.5577210000     0.2462250000
   18      O       2.9511580000     3.3227930000     0.9670350000
   19      C       4.0625190000     0.6047020000    -1.1290430000
   20      H       3.2281550000    -0.4891190000     0.5293370000
   21      H       4.0170400000     1.0309810000     0.9913250000
   22      H       2.5249180000     4.1875200000     1.1586830000
   23      H       3.4407920000     0.1141590000    -1.8821510000
   24      H       5.0325270000     0.0931270000    -1.1009190000
   25      H       4.2333310000     1.6384990000    -1.4435040000
 ----------------------------------------------------------------

    8    -689.3250529052      9.18e-06  Convergence criterion met
 Total energy in the final basis set =     -689.3250529052

                    Orbital Energies (a.u.)
 --------------------------------------------------------------

 Alpha MOs
 -- Occupied --
-19.1437 -19.0877 -19.0752 -10.2249 -10.2224 -10.2220 -10.1748 -10.1727
-10.1721 -10.1710 -10.1706 -10.1692 -10.1626 -10.1595 -10.1513  -1.0639
 -1.0014  -0.9972  -0.8586  -0.8103  -0.7662  -0.7509  -0.7206  -0.6733
 -0.6330  -0.6143  -0.5823  -0.5691  -0.5368  -0.5045  -0.4837  -0.4613
 -0.4536  -0.4394  -0.4279  -0.4267  -0.4180  -0.4126  -0.3970  -0.3897
 -0.3811  -0.3772  -0.3611  -0.3540  -0.3450  -0.3418  -0.3319  -0.3306
 -0.2679  -0.2616  -0.2580  -0.2412  -0.2286  -0.1520

 Beta MOs
 -- Occupied --
-19.1432 -19.0817 -19.0703 -10.2234 -10.2211 -10.2193 -10.1746 -10.1720
-10.1716 -10.1702 -10.1701 -10.1694 -10.1619 -10.1595 -10.1512  -1.0616
 -0.9926  -0.9870  -0.8562  -0.8070  -0.7638  -0.7487  -0.7190  -0.6647
 -0.6312  -0.6121  -0.5805  -0.5666  -0.5350  -0.5022  -0.4809  -0.4597
 -0.4524  -0.4334  -0.4258  -0.4218  -0.4138  -0.4084  -0.3942  -0.3791
 -0.3774  -0.3729  -0.3578  -0.3453  -0.3409  -0.3327  -0.3299  -0.3259
 -0.2563  -0.2510  -0.2486  -0.2365  -0.2199

          Ground-State Mulliken Net Atomic Charges

     Atom                 Charge (a.u.)    Spin (a.u.)
  --------------------------------------------------------
      1 C                     0.041559       0.075553
      2 C                    -0.419320       0.001981
      3 C                    -0.457422       0.068515
      4 C                     0.192458      -0.015470
      5 C                     0.463893       0.073356
      6 C                     0.090724       0.003091
      7 C                    -0.692812       0.188335
      8 C                    -0.645488       0.055221
      9 C                     1.520722       0.033290
     10 C                    -0.782230       0.087439
     11 O                    -0.541709       0.223812
     12 O                    -0.485950       0.187816
     13 H                     0.181383      -0.003459
     14 H                     0.194681      -0.000871
     15 H                     0.194646      -0.004895
     16 H                     0.174794      -0.000342
     17 C                    -0.213824       0.003881
     18 O                    -0.302820       0.017037
     19 C                    -0.625481       0.005051
     20 H                     0.170549       0.001686
     21 H                     0.180899       0.000091
     22 H                     0.304310      -0.002945
     23 H                     0.163250      -0.001173
     24 H                     0.138579       0.002420
     25 H                     0.154613       0.000580
  --------------------------------------------------------
  Sum of atomic charges =    -1.000000

                    Cartesian Multipole Moments
 -----------------------------------------------------------------
    Charge (ESU x 10^10)
                -4.8032
    Dipole Moment (Debye)
         X      -4.8875      Y      -8.4046      Z      -1.1743
       Tot       9.7931
    Quadrupole Moments (Debye-Ang)
        XX     -96.8805     XY      -7.7094     YY    -135.8164
        XZ      -0.3244     YZ      -9.7373     ZZ     -96.5437

 Total job time:  45.21s(wall), 294.21s(cpu)
        *  Thank you very much for using Q-Chem.  Have a nice day.  *
