 Q-Chem 5.4, Q-Chem, Inc., Pleasanton, CA (2021)
 Q-Chem 5.4.0 for Intel X86 EM64T Linux

User input:
--------------------------------------------------------------
$molecule
-2 1
C                 -1.7108190000     -2.4116760000      1.2050770000
C                 -2.2710770000     -2.1668160000     -0.1192970000
C                 -1.7314740000     -1.1043260000     -0.9199650000
C                 -0.6659440000     -0.2480580000     -0.5587640000
C                 -0.1249350000     -0.5404480000      0.7499650000
C                 -0.6147280000     -1.5428180000      1.5588180000
O                 -2.1014410000     -3.3154900000      2.0424480000
O                 -0.1979120000      0.7169080000     -1.2932540000
C                 -3.3586790000     -2.9890420000     -0.6484330000
C                 -4.0555030000     -3.9577280000      0.1385520000
C                 -3.8092050000     -2.8853510000     -2.0014480000
C                 -4.8510280000     -3.6535640000     -2.5071490000
C                 -5.0953410000     -4.7219500000     -0.3779910000
C                 -5.5220530000     -4.5891580000     -1.7083030000
H                 -2.1694260000     -0.8920620000     -1.8906480000
H                  0.7027330000      0.0851160000      1.0897730000
H                 -0.1799880000     -1.7220660000      2.5425300000
H                 -3.7206790000     -4.0758050000      1.1617810000
H                 -3.3177990000     -2.1907150000     -2.6702480000
H                 -5.1416060000     -3.5250430000     -3.5494850000
H                 -5.5888880000     -5.4421870000      0.2744230000
H                 -6.3351280000     -5.1914640000     -2.1066620000
$end

$rem
BASIS  =  6-311++G(d,p)
GUI  =  2
JOB_TYPE  =  SP
METHOD  =  B3LYP
SCF_CONVERGENCE  = 8
SOLVENT_METHOD = sm12
$end

$smx
solvent dimethylformamide
charges CM5
$end

--------------------------------------------------------------

             Standard Nuclear Orientation (Angstroms)
    I     Atom           X                Y                Z
 ----------------------------------------------------------------
    1      C      -1.7108190000    -2.4116760000     1.2050770000
    2      C      -2.2710770000    -2.1668160000    -0.1192970000
    3      C      -1.7314740000    -1.1043260000    -0.9199650000
    4      C      -0.6659440000    -0.2480580000    -0.5587640000
    5      C      -0.1249350000    -0.5404480000     0.7499650000
    6      C      -0.6147280000    -1.5428180000     1.5588180000
    7      O      -2.1014410000    -3.3154900000     2.0424480000
    8      O      -0.1979120000     0.7169080000    -1.2932540000
    9      C      -3.3586790000    -2.9890420000    -0.6484330000
   10      C      -4.0555030000    -3.9577280000     0.1385520000
   11      C      -3.8092050000    -2.8853510000    -2.0014480000
   12      C      -4.8510280000    -3.6535640000    -2.5071490000
   13      C      -5.0953410000    -4.7219500000    -0.3779910000
   14      C      -5.5220530000    -4.5891580000    -1.7083030000
   15      H      -2.1694260000    -0.8920620000    -1.8906480000
   16      H       0.7027330000     0.0851160000     1.0897730000
   17      H      -0.1799880000    -1.7220660000     2.5425300000
   18      H      -3.7206790000    -4.0758050000     1.1617810000
   19      H      -3.3177990000    -2.1907150000    -2.6702480000
   20      H      -5.1416060000    -3.5250430000    -3.5494850000
   21      H      -5.5888880000    -5.4421870000     0.2744230000
   22      H      -6.3351280000    -5.1914640000    -2.1066620000
 ----------------------------------------------------------------

   18    -612.6536306999      4.14e-09  Convergence criterion met
 Total energy in the final basis set =     -612.9504085468

                    Orbital Energies (a.u.)
 --------------------------------------------------------------

 Alpha MOs
 -- Occupied --
-19.0359 -19.0248 -10.1980 -10.1891 -10.1878 -10.1857 -10.1831 -10.1809
-10.1777 -10.1656 -10.1578 -10.1564 -10.1537 -10.1392  -0.9510  -0.9339
 -0.8591  -0.8022  -0.7665  -0.7502  -0.7092  -0.6665  -0.6194  -0.6081
 -0.5734  -0.5514  -0.5091  -0.4688  -0.4657  -0.4522  -0.4313  -0.4253
 -0.4229  -0.4034  -0.3881  -0.3695  -0.3644  -0.3634  -0.3446  -0.3423
 -0.3310  -0.3246  -0.2853  -0.2637  -0.2416  -0.2153  -0.2056  -0.2006
 -0.1351

          Ground-State Mulliken Net Atomic Charges

     Atom                 Charge (a.u.)
  ----------------------------------------
      1 C                    -1.377964
      2 C                    -0.278327
      3 C                    -2.072349
      4 C                    -1.354078
      5 C                    -0.172363
      6 C                    -0.370820
      7 O                    -0.296469
      8 O                    -0.422984
      9 C                    -0.745693
     10 C                    -1.054500
     11 C                    -1.484967
     12 C                     1.889645
     13 C                     1.642679
     14 C                     2.413580
     15 H                    -0.229588
     16 H                     0.119125
     17 H                     0.162891
     18 H                     0.150813
     19 H                     0.221970
     20 H                     0.399034
     21 H                     0.350688
     22 H                     0.509678
  ----------------------------------------
  Sum of atomic charges =    -2.000000

                    Cartesian Multipole Moments
 -----------------------------------------------------------------
    Charge (ESU x 10^10)
                -9.6064
    Dipole Moment (Debye)
         X      14.8843      Y      14.5747      Z      -0.3515
       Tot      20.8348
    Quadrupole Moments (Debye-Ang)
        XX    -138.0822     XY     -44.5013     YY    -151.8664
        XZ       4.4351     YZ      17.3141     ZZ    -114.8460

 Total job time:  361.95s(wall), 2713.68s(cpu)
        *  Thank you very much for using Q-Chem.  Have a nice day.  *
