 Gaussian 16, Revision A.03,
 Gaussian 16:  ES64L-G16RevA.03 25-Dec-2016

 ----------------------------------------------------------------
 #P UB3LYP/6-311++G(d,p) SCRF=(PCM,Solvent=n,n-DiMethylFormamide)
 ----------------------------------------------------------------

 -------
 Reduced
 -------
 Symbolic Z-matrix:
 Charge = -2 Multiplicity = 1

                         Standard orientation:
 ---------------------------------------------------------------------
 Center     Atomic      Atomic             Coordinates (Angstroms)
 Number     Number       Type             X           Y           Z
 ---------------------------------------------------------------------
      1          8           0        0.015831   -2.393138    0.349440
      2          6           0       -0.024605   -1.143901    0.187900
      3          6           0       -1.315955   -0.488713    0.054166
      4          6           0       -2.430212   -1.384530   -0.060066
      5          6           0       -3.733664   -0.971902   -0.179045
      6          6           0       -4.039408    0.420059   -0.166040
      7          6           0       -2.999231    1.314800   -0.072660
      8          6           0       -1.627075    0.934209    0.005547
      9          6           0       -0.695191    1.997010    0.114155
     10          6           0        0.676579    1.996257    0.210521
     11          6           0        1.633641    0.925490    0.074570
     12          6           0        2.996075    1.315922   -0.050527
     13          6           0        4.039625    0.403292   -0.174090
     14          6           0        3.750897   -0.955291   -0.202163
     15          6           0        2.410865   -1.365478   -0.109105
     16          6           0        1.341822   -0.472690    0.039223
     17          1           0       -2.190758   -2.440830   -0.056276
     18          1           0       -4.533003   -1.704159   -0.275112
     19          1           0       -5.068845    0.767260   -0.222817
     20          1           0       -3.218917    2.381312   -0.058692
     21          1           0       -1.153390    2.986050    0.147654
     22          1           0        1.134163    2.981583    0.282347
     23          1           0        3.224620    2.378121   -0.015964
     24          1           0        5.069545    0.756811   -0.228991
     25          1           0        4.547304   -1.690502   -0.285200
     26          1           0        2.157654   -2.417747   -0.116787
 ---------------------------------------------------------------------

 SCF Done:  E(UB3LYP) =  -653.165021695     A.U. after   22 cycles

 The electronic state is 1-A.
 Alpha  occ. eigenvalues --  -19.01770 -10.17039 -10.15619 -10.14554 -10.14317
 Alpha  occ. eigenvalues --  -10.13816 -10.13264 -10.13163 -10.13158 -10.12678
 Alpha  occ. eigenvalues --  -10.12582 -10.12488 -10.12447 -10.12059 -10.11564
 Alpha  occ. eigenvalues --  -10.11517  -0.94938  -0.82250  -0.80936  -0.75783
 Alpha  occ. eigenvalues --   -0.72015  -0.71453  -0.70419  -0.67320  -0.60400
 Alpha  occ. eigenvalues --   -0.59825  -0.55992  -0.55140  -0.52051  -0.50970
 Alpha  occ. eigenvalues --   -0.46374  -0.45288  -0.43808  -0.42406  -0.41065
 Alpha  occ. eigenvalues --   -0.39557  -0.38334  -0.38011  -0.36985  -0.36666
 Alpha  occ. eigenvalues --   -0.35792  -0.34287  -0.33385  -0.31703  -0.30962
 Alpha  occ. eigenvalues --   -0.30775  -0.29944  -0.28860  -0.27807  -0.23418
 Alpha  occ. eigenvalues --   -0.22149  -0.21156  -0.19331  -0.17425  -0.06710
 Alpha virt. eigenvalues --   -0.02772   0.00006   0.00725   0.01212   0.01671
 Alpha virt. eigenvalues --    0.02361   0.02551   0.02746   0.04237   0.04389
 Alpha virt. eigenvalues --    0.05036   0.05377   0.06078   0.06649   0.06762

  Beta  occ. eigenvalues --  -19.01770 -10.17039 -10.15619 -10.14554 -10.14317
  Beta  occ. eigenvalues --  -10.13816 -10.13264 -10.13163 -10.13158 -10.12678
  Beta  occ. eigenvalues --  -10.12582 -10.12488 -10.12447 -10.12059 -10.11564
  Beta  occ. eigenvalues --  -10.11517  -0.94938  -0.82250  -0.80936  -0.75783
  Beta  occ. eigenvalues --   -0.72015  -0.71453  -0.70419  -0.67320  -0.60400
  Beta  occ. eigenvalues --   -0.59825  -0.55992  -0.55140  -0.52051  -0.50970
  Beta  occ. eigenvalues --   -0.46374  -0.45288  -0.43808  -0.42406  -0.41065
  Beta  occ. eigenvalues --   -0.39557  -0.38334  -0.38011  -0.36985  -0.36666
  Beta  occ. eigenvalues --   -0.35792  -0.34287  -0.33385  -0.31703  -0.30962
  Beta  occ. eigenvalues --   -0.30775  -0.29944  -0.28860  -0.27807  -0.23418
  Beta  occ. eigenvalues --   -0.22149  -0.21156  -0.19331  -0.17425  -0.06710
  Beta virt. eigenvalues --   -0.02772   0.00006   0.00725   0.01212   0.01671
  Beta virt. eigenvalues --    0.02361   0.02551   0.02746   0.04237   0.04389
  Beta virt. eigenvalues --    0.05036   0.05377   0.06078   0.06649   0.06762

 Mulliken charges and spin densities:
               1          2
     1  O   -0.556585   0.000000
     2  C   -0.934033   0.000000
     3  C    0.693069  -0.000000
     4  C   -0.156349   0.000000
     5  C   -0.476415   0.000000
     6  C   -0.518418   0.000000
     7  C   -0.304485   0.000000
     8  C   -0.085915   0.000000
     9  C   -0.262109  -0.000000
    10  C   -0.470986  -0.000000
    11  C    0.111797   0.000000
    12  C   -0.247830   0.000000
    13  C   -0.424078   0.000000
    14  C   -0.558653   0.000000
    15  C    0.048790  -0.000000
    16  C    0.874128  -0.000000
    17  H    0.131441   0.000000
    18  H    0.138536  -0.000000
    19  H    0.131840  -0.000000
    20  H    0.106119   0.000000
    21  H    0.109271  -0.000000
    22  H    0.099201   0.000000
    23  H    0.115346  -0.000000
    24  H    0.144951   0.000000
    25  H    0.141042  -0.000000
    26  H    0.150324   0.000000
 Sum of Mulliken charges =  -2.00000   0.00000

 Dipole moment (field-independent basis, Debye):
    X=              1.7117    Y=              5.3299    Z=             -1.0606  Tot=              5.6976
 Quadrupole moment (field-independent basis, Debye-Ang):
   XX=           -147.9812   YY=           -127.3223   ZZ=           -112.5334
   XY=              0.0800   XZ=             -0.2982   YZ=              2.5003

 Normal termination of Gaussian 16 at Sat Jan 13 19:22:41 2024.
