 Q-Chem 5.4, Q-Chem, Inc., Pleasanton, CA (2021)
 Q-Chem 5.4.0 for Intel X86 EM64T Linux

User input:
--------------------------------------------------------------
$molecule
-1 2
C                 -5.0075000000     -1.0251720000      0.0456920000
O                 -3.6003650000     -1.0789870000      0.0538530000
C                 -2.8935880000      0.0900020000      0.0079670000
C                 -3.5308190000      1.3222770000     -0.0458250000
C                 -2.7750270000      2.5107380000     -0.0925330000
C                 -1.4022750000      2.4573280000     -0.0852120000
C                 -0.7248270000      1.2186750000     -0.0310130000
C                  0.7510360000      1.2823350000     -0.0282910000
O                  1.3206990000      2.3973960000     -0.0720850000
C                  1.4615680000      0.0035490000      0.0269900000
C                  2.8935880000     -0.0899970000      0.0348890000
O                  3.6003740000      1.0789270000     -0.0127320000
C                  5.0075200000      1.0249890000     -0.0066840000
C                  3.5308230000     -1.3222660000      0.0886250000
C                  2.7750210000     -2.5106790000      0.1365760000
C                  1.4022700000     -2.4572160000      0.1302680000
C                  0.7248080000     -1.2185690000      0.0760700000
C                 -0.7510500000     -1.2821930000      0.0740750000
O                 -1.3207220000     -2.3971800000      0.1197200000
C                 -1.4615680000     -0.0034650000      0.0174070000
H                 -5.3413230000     -2.0628000000      0.0873100000
H                 -5.4054480000     -0.4840580000      0.9150020000
H                 -5.3979270000     -0.5579190000     -0.8686920000
H                 -4.6105690000      1.3834820000     -0.0524010000
H                 -3.2900870000      3.4660820000     -0.1343560000
H                 -0.7927810000      3.3510680000     -0.1202590000
H                  5.3413680000      2.0625560000     -0.0495980000
H                  5.4040620000      0.4831110000     -0.8761590000
H                  5.3993070000      0.5584550000      0.9074870000
H                  4.6105770000     -1.3835030000      0.0941980000
H                  3.2900710000     -3.4660300000      0.1783260000
H                  0.7927830000     -3.3509350000      0.1660600000
$end
$rem
MAX_SCF_CYCLES=200
BASIS  =  6-311++G(d,p)
GUI  =  2
JOB_TYPE  =  SP
METHOD  =  B3LYP
SOLVENT_METHOD = COSMO
$end
$solvent
dielectric 37.219
opticaldielectric 1.43
$end

--------------------------------------------------------------

             Standard Nuclear Orientation (Angstroms)
    I     Atom           X                Y                Z
 ----------------------------------------------------------------
    1      C       4.9851109512     1.1292895798    -0.0022985278
    2      O       3.5771427301     1.1541014343    -0.0011049477
    3      C       2.8948603827    -0.0302400655    -0.0003666563
    4      C       3.5576278226    -1.2501572441    -0.0003817599
    5      C       2.8267470036    -2.4550039723     0.0001866342
    6      C       1.4531660465    -2.4299161979     0.0006729252
    7      C       0.7500570967    -1.2044479678     0.0006930837
    8      C      -0.7241746110    -1.2986406989     0.0011414877
    9      O      -1.2704960664    -2.4261719358     0.0021705039
   10      C      -1.4611936751    -0.0337265639     0.0004515742
   11      C      -2.8948608674     0.0302441022    -0.0003634732
   12      O      -3.5771462461    -1.1541051679    -0.0013614022
   13      C      -4.9851191036    -1.1292589864    -0.0022841441
   14      C      -3.5576319465     1.2501528636    -0.0004040823
   15      C      -2.8267453749     2.4550038018     0.0002714698
   16      C      -1.4531685905     2.4299054014     0.0007995006
   17      C      -0.7500457720     1.2044434979     0.0007801369
   18      C       0.7241786177     1.2986305481     0.0010595818
   19      O       1.2705028016     2.4261654131     0.0018830606
   20      C       1.4611883302     0.0337160907     0.0003612441
   21      H       5.2972532770     2.1744729733    -0.0030482309
   22      H       5.3904844675     0.6333794834     0.8902328925
   23      H       5.3889539678     0.6324563131    -0.8950046558
   24      H       4.6384297420    -1.2890983900    -0.0007774088
   25      H       3.3616004320    -3.4003345662     0.0001256358
   26      H       0.8624144271    -3.3368311910     0.0010408226
   27      H      -5.2972822239    -2.1744361313    -0.0028319351
   28      H      -5.3891020168    -0.6325633572    -0.8950077060
   29      H      -5.3903060704    -0.6331811422     0.8902347286
   30      H      -4.6384343005     1.2890839723    -0.0010119014
   31      H      -3.3615886425     3.4003385453     0.0002592730
   32      H      -0.8624266743     3.3368304079     0.0011768016
 ----------------------------------------------------------------

   11    -918.1020889812      3.65e-06  Convergence criterion met
 Total energy in the final basis set =     -918.1020889812
    5    -918.1980223330      5.63e-06  Convergence criterion met
 Total energy in the final basis set =     -918.1980223330

                    Orbital Energies (a.u.)
 --------------------------------------------------------------

 Alpha MOs
 -- Occupied --
-19.1509 -19.1509 -19.0719 -19.0719 -10.2379 -10.2379 -10.2267 -10.2267
-10.2129 -10.2128 -10.1768 -10.1768 -10.1735 -10.1735 -10.1714 -10.1714
-10.1666 -10.1666 -10.1595 -10.1595  -1.0697  -1.0696  -1.0036  -1.0014
 -0.8587  -0.8478  -0.7839  -0.7588  -0.7563  -0.7410  -0.6965  -0.6937
 -0.6656  -0.6279  -0.6210  -0.5773  -0.5579  -0.5415  -0.5346  -0.4977
 -0.4872  -0.4851  -0.4677  -0.4664  -0.4663  -0.4639  -0.4495  -0.4332
 -0.4239  -0.4201  -0.4151  -0.4066  -0.3952  -0.3833  -0.3814  -0.3749
 -0.3619  -0.3568  -0.3529  -0.3469  -0.3329  -0.3321  -0.3202  -0.3167
 -0.2687  -0.2502  -0.2390  -0.2319  -0.2291  -0.2287  -0.1387

 Beta MOs
 -- Occupied --
-19.1508 -19.1508 -19.0665 -19.0665 -10.2378 -10.2378 -10.2251 -10.2251
-10.2129 -10.2128 -10.1763 -10.1763 -10.1724 -10.1724 -10.1708 -10.1708
-10.1660 -10.1660 -10.1595 -10.1595  -1.0695  -1.0694  -0.9942  -0.9918
 -0.8560  -0.8466  -0.7800  -0.7570  -0.7553  -0.7388  -0.6958  -0.6923
 -0.6588  -0.6259  -0.6186  -0.5766  -0.5565  -0.5392  -0.5334  -0.4958
 -0.4867  -0.4831  -0.4668  -0.4659  -0.4649  -0.4632  -0.4483  -0.4316
 -0.4227  -0.4097  -0.4088  -0.4061  -0.3936  -0.3798  -0.3750  -0.3615
 -0.3594  -0.3555  -0.3453  -0.3445  -0.3321  -0.3317  -0.3145  -0.3120
 -0.2484  -0.2446  -0.2341  -0.2250  -0.2243  -0.2233

          Ground-State Mulliken Net Atomic Charges

     Atom                 Charge (a.u.)    Spin (a.u.)
  --------------------------------------------------------
      1 C                    -0.317112      -0.000392
      2 O                    -0.160591       0.000496
      3 C                     0.085154       0.024174
      4 C                    -0.086014       0.046891
      5 C                    -0.514043       0.053313
      6 C                    -0.046359       0.027941
      7 C                     0.366945       0.053461
      8 C                    -0.370321       0.087955
      9 O                    -0.500184       0.202060
     10 C                    -0.075760       0.011729
     11 C                     0.085072       0.024175
     12 O                    -0.160800       0.000497
     13 C                    -0.317093      -0.000392
     14 C                    -0.086125       0.046876
     15 C                    -0.513623       0.053344
     16 C                    -0.046542       0.027919
     17 C                     0.368162       0.053516
     18 C                    -0.370550       0.087964
     19 O                    -0.500193       0.202085
     20 C                    -0.074236       0.011735
     21 H                     0.203973      -0.000186
     22 H                     0.166148       0.000411
     23 H                     0.166138       0.000410
     24 H                     0.202472      -0.003243
     25 H                     0.213029      -0.003791
     26 H                     0.165324      -0.001274
     27 H                     0.203999      -0.000186
     28 H                     0.166162       0.000409
     29 H                     0.166146       0.000412
     30 H                     0.202485      -0.003242
     31 H                     0.213040      -0.003793
     32 H                     0.165298      -0.001273
  --------------------------------------------------------
  Sum of atomic charges =    -1.000000

                    Cartesian Multipole Moments
 -----------------------------------------------------------------
    Charge (ESU x 10^10)
                -4.8032
    Dipole Moment (Debye)
         X       0.0010      Y       0.0011      Z      -0.0150
       Tot       0.0151
    Quadrupole Moments (Debye-Ang)
        XX     -91.0107     XY     -16.4882     YY    -147.5190
        XZ      -0.0001     YZ       0.0014     ZZ    -123.0864

 Total job time:  155.41s(wall), 1184.30s(cpu)
        *  Thank you very much for using Q-Chem.  Have a nice day.  *
