 Gaussian 16, Revision A.03,
 Gaussian 16:  ES64L-G16RevA.03 25-Dec-2016

 ----------------------------------------------------------------
 #P UB3LYP/6-311++G(d,p) SCRF=(PCM,Solvent=n,n-DiMethylFormamide)
 ----------------------------------------------------------------

 ------------------
 Quinone PCM in DMF
 ------------------
 Symbolic Z-matrix:
 Charge =  0 Multiplicity = 1

                         Standard orientation:
 ---------------------------------------------------------------------
 Center     Atomic      Atomic             Coordinates (Angstroms)
 Number     Number       Type             X           Y           Z
 ---------------------------------------------------------------------
      1          6           0        3.305495   -1.479875   -0.000362
      2          6           0        2.011039   -0.707289   -0.000191
      3          6           0        0.792621   -1.385478   -0.000198
      4          6           0       -0.423756   -0.701951   -0.000081
      5          6           0       -1.704514   -1.461784    0.000127
      6          8           0       -1.744905   -2.682255    0.000376
      7          6           0       -2.960877   -0.669925    0.000056
      8          6           0       -2.960865    0.669963   -0.000048
      9          6           0       -1.704482    1.461795   -0.000127
     10          8           0       -1.744835    2.682268   -0.000256
     11          6           0       -0.423746    0.701938   -0.000018
     12          6           0        0.792636    1.385454    0.000065
     13          6           0        2.011043    0.707251    0.000094
     14          6           0        3.305465    1.479870    0.000452
     15          1           0        3.120722   -2.554710   -0.001346
     16          1           0        3.913584   -1.240617   -0.878800
     17          1           0        3.912844   -1.242168    0.879023
     18          1           0        0.769508   -2.469305   -0.000334
     19          1           0       -3.877863   -1.249477    0.000120
     20          1           0       -3.877838    1.249536   -0.000095
     21          1           0        0.769575    2.469287    0.000158
     22          1           0        3.913306    1.241766   -0.878474
     23          1           0        3.120616    2.554684    0.000815
     24          1           0        3.913100    1.241094    0.879355
 ---------------------------------------------------------------------

 SCF Done:  E(UB3LYP) =  -613.925219763     A.U. after   14 cycles

 The electronic state is 1-A.
 Alpha  occ. eigenvalues --  -19.13745 -19.13744 -10.28544 -10.28543 -10.21312
 Alpha  occ. eigenvalues --  -10.21230 -10.20613 -10.20565 -10.20513 -10.20462
 Alpha  occ. eigenvalues --  -10.19420 -10.19419 -10.17450 -10.17449  -1.07010
 Alpha  occ. eigenvalues --   -1.06836  -0.89347  -0.84637  -0.79812  -0.78878
 Alpha  occ. eigenvalues --   -0.72920  -0.70489  -0.69068  -0.63061  -0.62119
 Alpha  occ. eigenvalues --   -0.59230  -0.53342  -0.51802  -0.51381  -0.47646
 Alpha  occ. eigenvalues --   -0.46235  -0.46225  -0.45700  -0.45085  -0.44138
 Alpha  occ. eigenvalues --   -0.42477  -0.42330  -0.42115  -0.40903  -0.39740
 Alpha  occ. eigenvalues --   -0.39718  -0.36874  -0.36473  -0.36051  -0.31094
 Alpha  occ. eigenvalues --   -0.29040  -0.27893  -0.27367  -0.26628
 Alpha virt. eigenvalues --   -0.12823  -0.05396  -0.03289  -0.00785   0.00276
 Alpha virt. eigenvalues --    0.00912   0.02041   0.02149   0.02502   0.03280
 Alpha virt. eigenvalues --    0.03560   0.04568   0.04575   0.05316   0.05368

  Beta  occ. eigenvalues --  -19.13745 -19.13744 -10.28544 -10.28543 -10.21312
  Beta  occ. eigenvalues --  -10.21230 -10.20613 -10.20565 -10.20513 -10.20462
  Beta  occ. eigenvalues --  -10.19420 -10.19419 -10.17450 -10.17449  -1.07010
  Beta  occ. eigenvalues --   -1.06836  -0.89347  -0.84637  -0.79812  -0.78878
  Beta  occ. eigenvalues --   -0.72920  -0.70489  -0.69068  -0.63061  -0.62119
  Beta  occ. eigenvalues --   -0.59230  -0.53342  -0.51802  -0.51381  -0.47646
  Beta  occ. eigenvalues --   -0.46235  -0.46225  -0.45700  -0.45085  -0.44138
  Beta  occ. eigenvalues --   -0.42477  -0.42330  -0.42115  -0.40903  -0.39740
  Beta  occ. eigenvalues --   -0.39718  -0.36874  -0.36473  -0.36051  -0.31094
  Beta  occ. eigenvalues --   -0.29040  -0.27893  -0.27367  -0.26628
  Beta virt. eigenvalues --   -0.12823  -0.05396  -0.03289  -0.00785   0.00276
  Beta virt. eigenvalues --    0.00912   0.02041   0.02149   0.02502   0.03280
  Beta virt. eigenvalues --    0.03560   0.04568   0.04575   0.05316   0.05368

 Mulliken charges and spin densities:
               1          2
     1  C   -0.498051   0.000000
     2  C    0.606382  -0.000000
     3  C   -0.187397   0.000000
     4  C    0.036697  -0.000000
     5  C   -0.721513  -0.000000
     6  O   -0.286121   0.000000
     7  C    0.151385   0.000000
     8  C    0.151586  -0.000000
     9  C   -0.721565   0.000000
    10  O   -0.286120   0.000000
    11  C    0.036489  -0.000000
    12  C   -0.187570   0.000000
    13  C    0.606270  -0.000000
    14  C   -0.497949   0.000000
    15  H    0.179721  -0.000000
    16  H    0.170127   0.000000
    17  H    0.170267   0.000000
    18  H    0.143547   0.000000
    19  H    0.235075  -0.000000
    20  H    0.235077  -0.000000
    21  H    0.143543  -0.000000
    22  H    0.170213   0.000000
    23  H    0.179723  -0.000000
    24  H    0.170182   0.000000
 Sum of Mulliken charges =  -0.00000   0.00000

 Dipole moment (field-independent basis, Debye):
    X=              3.5038    Y=              0.0000    Z=             -0.0000  Tot=              3.5038
 Quadrupole moment (field-independent basis, Debye-Ang):
   XX=            -63.7120   YY=            -99.7033   ZZ=            -82.6165
   XY=             -0.0003   XZ=              0.0010   YZ=              0.0044

 Normal termination of Gaussian 16 at Sun Jan 21 07:57:36 2024.
