 Gaussian 16, Revision A.03,
 Gaussian 16:  ES64L-G16RevA.03 25-Dec-2016

 --------------------------------------
 #P UB3LYP/6-311++G(d,p) nosym opt freq
 --------------------------------------

 --------
 Oxidized
 --------
 Symbolic Z-matrix:
 Charge =  0 Multiplicity = 1

 SCF Done:  E(UB3LYP) =  -613.915377580     A.U. after   14 cycles
 Optimization completed.
    -- Stationary point found.
 Normal termination of Gaussian 16 at Sun Jan  7 20:15:00 2024.

 ----------------------------------------------------------------------
 #P Geom=AllCheck Guess=TCheck SCRF=Check GenChk UB3LYP/6-311++G(d,p) F
 req
 ----------------------------------------------------------------------

 Structure from the checkpoint file:  "246.chk"
 --------
 Oxidized
 --------
 Charge =  0 Multiplicity = 1

                          Input orientation:
 ---------------------------------------------------------------------
 Center     Atomic      Atomic             Coordinates (Angstroms)
 Number     Number       Type             X           Y           Z
 ---------------------------------------------------------------------
      1          6           0       -2.801586   -0.878996   -0.962852
      2          6           0       -1.459516   -0.404423   -0.466732
      3          6           0       -0.306001   -1.124612   -0.775297
      4          6           0        0.951798   -0.713937   -0.332500
      5          6           0        2.160693   -1.509833   -0.682943
      6          8           0        2.105451   -2.528175   -1.354589
      7          6           0        3.466520   -1.014476   -0.178040
      8          6           0        3.571083    0.097880    0.561574
      9          6           0        2.388836    0.917269    0.930886
     10          8           0        2.524044    1.925265    1.606790
     11          6           0        1.061378    0.451645    0.442299
     12          6           0       -0.089696    1.176036    0.753851
     13          6           0       -1.349073    0.770122    0.313762
     14          6           0       -2.570435    1.578702    0.670053
     15          1           0       -2.702639   -1.795717   -1.545300
     16          1           0       -3.486907   -1.078313   -0.132624
     17          1           0       -3.282427   -0.126427   -1.596197
     18          1           0       -0.367730   -2.027489   -1.372137
     19          1           0        4.329271   -1.613862   -0.448488
     20          1           0        4.524285    0.460774    0.930977
     21          1           0        0.017749    2.072940    1.353221
     22          1           0       -3.292828    0.982770    1.237228
     23          1           0       -2.303463    2.447400    1.272950
     24          1           0       -3.088807    1.935458   -0.225893
 ---------------------------------------------------------------------

 SCF Done:  E(UB3LYP) =  -613.915377580     A.U. after    1 cycles

 Alpha  occ. eigenvalues --  -19.13121 -19.13120 -10.28032 -10.28031 -10.21372
 Alpha  occ. eigenvalues --  -10.21290 -10.20987 -10.20939 -10.20564 -10.20513
 Alpha  occ. eigenvalues --  -10.19590 -10.19588 -10.18617 -10.18616  -1.06326
 Alpha  occ. eigenvalues --   -1.06136  -0.89517  -0.84779  -0.80165  -0.79226
 Alpha  occ. eigenvalues --   -0.73409  -0.71084  -0.69099  -0.63457  -0.62334
 Alpha  occ. eigenvalues --   -0.59261  -0.53312  -0.51977  -0.51193  -0.48012
 Alpha  occ. eigenvalues --   -0.46185  -0.46041  -0.45672  -0.45025  -0.44488
 Alpha  occ. eigenvalues --   -0.42528  -0.42405  -0.42153  -0.41397  -0.40788
 Alpha  occ. eigenvalues --   -0.40472  -0.37367  -0.36637  -0.36429  -0.30888
 Alpha  occ. eigenvalues --   -0.28306  -0.27476  -0.27284  -0.26937
 Alpha virt. eigenvalues --   -0.12479  -0.05453  -0.03538  -0.01708  -0.00067
 Alpha virt. eigenvalues --    0.00507   0.01651   0.01880   0.02624   0.02704
 Alpha virt. eigenvalues --    0.02933   0.04246   0.04247   0.04853   0.05154

  Beta  occ. eigenvalues --  -19.13121 -19.13120 -10.28032 -10.28031 -10.21372
  Beta  occ. eigenvalues --  -10.21290 -10.20987 -10.20939 -10.20564 -10.20513
  Beta  occ. eigenvalues --  -10.19590 -10.19588 -10.18617 -10.18616  -1.06326
  Beta  occ. eigenvalues --   -1.06136  -0.89517  -0.84779  -0.80165  -0.79226
  Beta  occ. eigenvalues --   -0.73409  -0.71084  -0.69099  -0.63457  -0.62334
  Beta  occ. eigenvalues --   -0.59261  -0.53312  -0.51977  -0.51193  -0.48012
  Beta  occ. eigenvalues --   -0.46185  -0.46041  -0.45672  -0.45025  -0.44488
  Beta  occ. eigenvalues --   -0.42528  -0.42405  -0.42153  -0.41397  -0.40788
  Beta  occ. eigenvalues --   -0.40472  -0.37367  -0.36637  -0.36429  -0.30888
  Beta  occ. eigenvalues --   -0.28306  -0.27476  -0.27284  -0.26937
  Beta virt. eigenvalues --   -0.12479  -0.05453  -0.03538  -0.01708  -0.00067
  Beta virt. eigenvalues --    0.00507   0.01651   0.01880   0.02624   0.02704
  Beta virt. eigenvalues --    0.02933   0.04246   0.04247   0.04853   0.05154

 Mulliken charges and spin densities:
               1          2
     1  C   -0.473408  -0.000000
     2  C    0.634510  -0.000000
     3  C   -0.219518   0.000000
     4  C    0.042860  -0.000000
     5  C   -0.778575   0.000000
     6  O   -0.220880  -0.000000
     7  C    0.170985  -0.000000
     8  C    0.171159   0.000000
     9  C   -0.778699  -0.000000
    10  O   -0.220879   0.000000
    11  C    0.042886   0.000000
    12  C   -0.219684   0.000000
    13  C    0.634506   0.000000
    14  C   -0.473316  -0.000000
    15  H    0.172689  -0.000000
    16  H    0.156881   0.000000
    17  H    0.157022   0.000000
    18  H    0.141111   0.000000
    19  H    0.216325   0.000000
    20  H    0.216327   0.000000
    21  H    0.141102   0.000000
    22  H    0.156964   0.000000
    23  H    0.172697   0.000000
    24  H    0.156937   0.000000
 Sum of Mulliken charges =  -0.00000   0.00000

 Dipole moment (field-independent basis, Debye):
    X=             -2.6779    Y=              0.3488    Z=             -0.1459  Tot=              2.7044
 Quadrupole moment (field-independent basis, Debye-Ang):
   XX=            -70.9287   YY=            -92.1464   ZZ=            -86.9776
   XY=             -2.4543   XZ=              0.0528   YZ=             -6.4508

  Exact polarizability: 192.391  -8.618 146.005  10.352  43.226 107.451
 Approx polarizability: 268.467  -4.801 273.606  16.966  96.637 189.655

                      1                      2                      3
                      A                      A                      A
 Frequencies --     76.1831                77.6092               120.1202
 Red. masses --      5.7975                 4.0979                 3.6639
 Frc consts  --      0.0198                 0.0145                 0.0311
 IR Inten    --     11.5507                 0.0006                 0.1541

                      4                      5                      6
                      A                      A                      A
 Frequencies --    123.0399               168.7795               199.3522
 Red. masses --      1.0391                 1.1253                 5.2598
 Frc consts  --      0.0093                 0.0189                 0.1232
 IR Inten    --      0.0010                 0.4250                 0.4576

                      7                      8                      9
                      A                      A                      A
 Frequencies --    213.9406               272.3757               296.6290
 Red. masses --      3.8537                 3.9676                 2.6946
 Frc consts  --      0.1039                 0.1734                 0.1397
 IR Inten    --      0.0000                 0.0000                 1.3255

                     10                     11                     12
                      A                      A                      A
 Frequencies --    310.2816               347.3802               369.2297
 Red. masses --      3.9805                 7.0886                 4.9106
 Frc consts  --      0.2258                 0.5040                 0.3944
 IR Inten    --      1.8840                 8.2489                 0.2781

                     13                     14                     15
                      A                      A                      A
 Frequencies --    440.6266               450.5859               485.0917
 Red. masses --      2.8800                11.6327                 3.8142
 Frc consts  --      0.3294                 1.3915                 0.5288
 IR Inten    --      5.1081                12.8621                 0.0099

                     16                     17                     18
                      A                      A                      A
 Frequencies --    517.5200               564.7675               599.8195
 Red. masses --      7.5034                 4.9590                 5.4790
 Frc consts  --      1.1840                 0.9319                 1.1614
 IR Inten    --     15.8752                 0.0000                 0.1907

                     19                     20                     21
                      A                      A                      A
 Frequencies --    615.8693               631.1285               704.9773
 Red. masses --      2.1573                 3.7204                 3.6452
 Frc consts  --      0.4821                 0.8731                 1.0674
 IR Inten    --      0.1741                 0.6015                 0.0001

                     22                     23                     24
                      A                      A                      A
 Frequencies --    724.0739               770.0260               777.5264
 Red. masses --      6.9746                 4.0110                 6.6944
 Frc consts  --      2.1545                 1.4013                 2.3845
 IR Inten    --      2.7110                 0.0000                 2.9816

                     25                     26                     27
                      A                      A                      A
 Frequencies --    790.8170               862.9821               933.5387
 Red. masses --      6.9666                 1.8591                 1.3337
 Frc consts  --      2.5670                 0.8157                 0.6848
 IR Inten    --      0.0000                60.8403                 0.0000

                     28                     29                     30
                      A                      A                      A
 Frequencies --    935.1177               986.1252              1009.0052
 Red. masses --      1.4272                 4.1514                 1.4292
 Frc consts  --      0.7353                 2.3785                 0.8573
 IR Inten    --      3.6815                10.4837                23.5915

                     31                     32                     33
                      A                      A                      A
 Frequencies --   1016.4418              1035.8009              1048.3256
 Red. masses --      1.2508                 1.6048                 1.4662
 Frc consts  --      0.7614                 1.0145                 0.9494
 IR Inten    --      0.0000                 0.1758                 6.9323

                     34                     35                     36
                      A                      A                      A
 Frequencies --   1068.6983              1070.4024              1164.9992
 Red. masses --      1.6386                 2.1294                 1.2918
 Frc consts  --      1.1026                 1.4375                 1.0330
 IR Inten    --      0.0020                51.6792                28.3961

                     37                     38                     39
                      A                      A                      A
 Frequencies --   1174.2095              1236.8538              1243.0683
 Red. masses --      4.2756                 2.2469                 4.7019
 Frc consts  --      3.4733                 2.0252                 4.2807
 IR Inten    --      0.4459                 6.4063                 0.8415

                     40                     41                     42
                      A                      A                      A
 Frequencies --   1276.0743              1327.3959              1350.5330
 Red. masses --      1.2980                 5.1001                 6.8075
 Frc consts  --      1.2453                 5.2946                 7.3156
 IR Inten    --      2.8998               343.6121                19.4732

                     43                     44                     45
                      A                      A                      A
 Frequencies --   1381.7551              1411.0983              1422.1773
 Red. masses --      1.7374                 1.2725                 1.2435
 Frc consts  --      1.9544                 1.4929                 1.4818
 IR Inten    --      4.5845                 1.5516                 5.7857

                     46                     47                     48
                      A                      A                      A
 Frequencies --   1432.3625              1478.2164              1492.3790
 Red. masses --      3.5750                 1.0447                 1.0451
 Frc consts  --      4.3215                 1.3450                 1.3714
 IR Inten    --      1.8270                 0.0001                20.1625

                     49                     50                     51
                      A                      A                      A
 Frequencies --   1493.2315              1495.1232              1519.2666
 Red. masses --      1.2382                 1.1632                 2.7826
 Frc consts  --      1.6266                 1.5320                 3.7841
 IR Inten    --      5.1938                 0.2230                 0.6046

                     52                     53                     54
                      A                      A                      A
 Frequencies --   1592.3948              1634.3583              1661.6765
 Red. masses --      7.7140                 6.1824                 8.2536
 Frc consts  --     11.5248                 9.7298                13.4273
 IR Inten    --      3.4773               149.7107                41.2561

                     55                     56                     57
                      A                      A                      A
 Frequencies --   1719.7925              1725.3904              3022.0625
 Red. masses --     10.3769                11.2435                 1.0391
 Frc consts  --     18.0829                19.7210                 5.5912
 IR Inten    --     37.4845               375.7839                 4.4849

                     58                     59                     60
                      A                      A                      A
 Frequencies --   3022.4218              3066.0108              3068.1080
 Red. masses --      1.0381                 1.0994                 1.0995
 Frc consts  --      5.5873                 6.0889                 6.0977
 IR Inten    --     40.4339                26.6362                 0.0195

                     61                     62                     63
                      A                      A                      A
 Frequencies --   3112.3560              3113.4254              3171.2835
 Red. masses --      1.0996                 1.0992                 1.0871
 Frc consts  --      6.2754                 6.2779                 6.4416
 IR Inten    --     27.5900                 0.6151                 1.2586

                     64                     65                     66
                      A                      A                      A
 Frequencies --   3183.0422              3184.6606              3189.3547
 Red. masses --      1.0902                 1.0907                 1.0986
 Frc consts  --      6.5081                 6.5173                 6.5840
 IR Inten    --      1.3778                 4.3388                 6.0097

 - Thermochemistry -
 -------------------
 Temperature   298.150 Kelvin.  Pressure   1.00000 Atm.
 Atom     1 has atomic number  6 and mass  12.00000

 Molecular mass:   186.06808 amu.
 Principal axes and moments of inertia in atomic units:
                           1         2         3
     Eigenvalues --  1616.215423109.994784703.96860
           X            0.99018   0.07806  -0.11598
           Y           -0.12897   0.83022  -0.54231
           Z            0.05396   0.55194   0.83213
 This molecule is an asymmetric top.
 Rotational symmetry number  1.
 Warning -- assumption of classical behavior for rotation
           may cause significant error
 Rotational temperatures (Kelvin)      0.05359     0.02785     0.01841
 Rotational constants (GHZ):           1.11665     0.58030     0.38366
 Zero-point vibrational energy     490344.9 (Joules/Mol)
                                  117.19525 (Kcal/Mol)
 Warning -- explicit consideration of  19 degrees of freedom as
           vibrations may cause significant error
 Vibrational temperatures:    109.61   111.66   172.83   177.03   242.84
          (Kelvin)            286.82   307.81   391.89   426.78   446.43
                              499.80   531.24   633.96   648.29   697.94
                              744.60   812.57   863.01   886.10   908.05
                             1014.31  1041.78  1107.90  1118.69  1137.81
                             1241.64  1343.15  1345.43  1418.81  1451.73
                             1462.43  1490.29  1508.31  1537.62  1540.07
                             1676.17  1689.43  1779.56  1788.50  1835.99
                             1909.83  1943.12  1988.04  2030.26  2046.20
                             2060.85  2126.82  2147.20  2148.43  2151.15
                             2185.89  2291.10  2351.48  2390.78  2474.40
                             2482.45  4348.07  4348.59  4411.31  4414.32
                             4477.99  4479.52  4562.77  4579.69  4582.02
                             4588.77

 Zero-point correction=                           0.186763 (Hartree/Particle)
 Thermal correction to Energy=                    0.198881
 Thermal correction to Enthalpy=                  0.199826
 Thermal correction to Gibbs Free Energy=         0.148616
 Sum of electronic and zero-point Energies=           -613.728615
 Sum of electronic and thermal Energies=              -613.716496
 Sum of electronic and thermal Enthalpies=            -613.715552
 Sum of electronic and thermal Free Energies=         -613.766762

                     E (Thermal)             CV                S
                      KCal/Mol        Cal/Mol-Kelvin    Cal/Mol-Kelvin
 Total                  124.800             46.562            107.781
 Electronic               0.000              0.000              0.000
 Translational            0.889              2.981             41.569
 Rotational               0.889              2.981             31.536
 Vibrational            123.023             40.601             34.675
 Vibration     1          0.599              1.965              3.987
 Vibration     2          0.599              1.964              3.950
 Vibration     3          0.609              1.932              3.098
 Vibration     4          0.610              1.930              3.052
 Vibration     5          0.625              1.881              2.449
 Vibration     6          0.637              1.841              2.139
 Vibration     7          0.644              1.820              2.010
 Vibration     8          0.675              1.724              1.581
 Vibration     9          0.690              1.680              1.436
 Vibration    10          0.699              1.654              1.361
 Vibration    11          0.725              1.581              1.178
 Vibration    12          0.742              1.535              1.083
 Vibration    13          0.801              1.382              0.825
 Vibration    14          0.809              1.360              0.794
 Vibration    15          0.841              1.283              0.696
 Vibration    16          0.873              1.211              0.616
 Vibration    17          0.921              1.107              0.514
 Vibration    18          0.958              1.032              0.450
 Vibration    19          0.975              0.998              0.423

 Optimization completed.
    -- Stationary point found.
 Normal termination of Gaussian 16 at Sun Jan  7 20:44:36 2024.
