 Q-Chem 5.4, Q-Chem, Inc., Pleasanton, CA (2021)
 Q-Chem 5.4.0 for Intel X86 EM64T Linux

User input:
--------------------------------------------------------------
$molecule
0 1
C                  3.6677520000     -1.3648870000      0.2900990000
C                  2.5453500000     -0.5934330000     -0.3350300000
O                  2.2278170000     -0.5796880000     -1.4893050000
O                  1.8889860000      0.1526920000      0.6291300000
C                  0.7020450000      0.7750310000      0.2925050000
C                  0.7269580000      2.1632230000      0.2016750000
C                 -0.4404130000      2.8695930000     -0.0653350000
C                 -1.6391560000      2.1874770000     -0.2421600000
C                 -1.6711360000      0.7977840000     -0.1447490000
C                 -2.9878290000      0.1099000000     -0.3269740000
O                 -4.0093720000      0.7281920000     -0.5765900000
C                 -3.0141260000     -1.3614840000     -0.1864570000
C                 -1.9056600000     -2.0586660000      0.0885460000
C                 -0.5736420000     -1.4251580000      0.2585360000
O                  0.3911830000     -2.1341440000      0.4987510000
C                 -0.4965820000      0.0598880000      0.1279440000
H                  4.2265010000     -0.7414640000      0.9896250000
H                  4.3217670000     -1.7515800000     -0.4886770000
H                  3.2323940000     -2.1955980000      0.8511430000
H                  1.6733390000      2.6707870000      0.3424930000
H                 -0.4117060000      3.9504670000     -0.1380030000
H                 -2.5624530000      2.7117700000     -0.4533210000
H                 -3.9818350000     -1.8327300000     -0.3189390000
H                 -1.9101800000     -3.1379700000      0.1950940000
$end
$rem
MAX_SCF_CYCLES=200
BASIS  =  6-311++G(d,p)
GUI  =  2
JOB_TYPE  =  SP
METHOD  =  B3LYP
SOLVENT_METHOD = PCM
$end
$pcm
theory = CPCM
$end
$solvent
dielectric 37.219
opticaldielectric 1.43
$end

--------------------------------------------------------------

             Standard Nuclear Orientation (Angstroms)
    I     Atom           X                Y                Z
 ----------------------------------------------------------------
    1      C       3.6677520000    -1.3648870000     0.2900990000
    2      C       2.5453500000    -0.5934330000    -0.3350300000
    3      O       2.2278170000    -0.5796880000    -1.4893050000
    4      O       1.8889860000     0.1526920000     0.6291300000
    5      C       0.7020450000     0.7750310000     0.2925050000
    6      C       0.7269580000     2.1632230000     0.2016750000
    7      C      -0.4404130000     2.8695930000    -0.0653350000
    8      C      -1.6391560000     2.1874770000    -0.2421600000
    9      C      -1.6711360000     0.7977840000    -0.1447490000
   10      C      -2.9878290000     0.1099000000    -0.3269740000
   11      O      -4.0093720000     0.7281920000    -0.5765900000
   12      C      -3.0141260000    -1.3614840000    -0.1864570000
   13      C      -1.9056600000    -2.0586660000     0.0885460000
   14      C      -0.5736420000    -1.4251580000     0.2585360000
   15      O       0.3911830000    -2.1341440000     0.4987510000
   16      C      -0.4965820000     0.0598880000     0.1279440000
   17      H       4.2265010000    -0.7414640000     0.9896250000
   18      H       4.3217670000    -1.7515800000    -0.4886770000
   19      H       3.2323940000    -2.1955980000     0.8511430000
   20      H       1.6733390000     2.6707870000     0.3424930000
   21      H      -0.4117060000     3.9504670000    -0.1380030000
   22      H      -2.5624530000     2.7117700000    -0.4533210000
   23      H      -3.9818350000    -1.8327300000    -0.3189390000
   24      H      -1.9101800000    -3.1379700000     0.1950940000
 ----------------------------------------------------------------

    9    -763.2151451625      4.91e-06  Convergence criterion met
 Total energy in the final basis set =     -763.2151451625

                    Orbital Energies (a.u.)
 --------------------------------------------------------------

 Alpha MOs
 -- Occupied --
-19.1900 -19.1415 -19.1412 -19.1366 -10.3269 -10.2928 -10.2893 -10.2700
-10.2205 -10.2166 -10.2136 -10.2120 -10.2044 -10.2028 -10.2009 -10.1811
 -1.1344  -1.0752  -1.0734  -1.0547  -0.8975  -0.8450  -0.7982  -0.7851
 -0.7545  -0.7070  -0.6676  -0.6554  -0.6314  -0.5646  -0.5461  -0.5452
 -0.5165  -0.5088  -0.5013  -0.4936  -0.4829  -0.4704  -0.4606  -0.4552
 -0.4375  -0.4309  -0.4289  -0.4226  -0.4154  -0.3985  -0.3915  -0.3879
 -0.3792  -0.3447  -0.3125  -0.3079  -0.2940  -0.2884  -0.2819  -0.2756

          Ground-State Mulliken Net Atomic Charges

     Atom                 Charge (a.u.)
  ----------------------------------------
      1 C                    -0.508643
      2 C                     0.065031
      3 O                    -0.279901
      4 O                    -0.009331
      5 C                    -0.101319
      6 C                     0.170192
      7 C                    -0.583644
      8 C                     0.141354
      9 C                     0.306877
     10 C                    -0.368500
     11 O                    -0.299216
     12 C                    -0.069533
     13 C                    -0.141323
     14 C                    -0.230448
     15 O                    -0.294276
     16 C                     0.417984
     17 H                     0.194777
     18 H                     0.183214
     19 H                     0.208085
     20 H                     0.242246
     21 H                     0.240630
     22 H                     0.205777
     23 H                     0.255665
     24 H                     0.254300
  ----------------------------------------
  Sum of atomic charges =     0.000000

                    Cartesian Multipole Moments
 -----------------------------------------------------------------
    Charge (ESU x 10^10)
                 0.0000
    Dipole Moment (Debye)
         X       1.4279      Y       1.3625      Z       2.3662
       Tot       3.0812
    Quadrupole Moments (Debye-Ang)
        XX     -92.1578     XY       9.8271     YY     -77.9380
        XZ       2.4998     YZ      -0.0048     ZZ     -98.6563

 Total job time:  45.47s(wall), 272.63s(cpu)
        *  Thank you very much for using Q-Chem.  Have a nice day.  *
