 Gaussian 16, Revision A.03,
 Gaussian 16:  ES64L-G16RevA.03 25-Dec-2016

 --------------------------------------
 #P UB3LYP/6-311++G(d,p) nosym opt freq
 --------------------------------------

 --------
 Oxidized
 --------
 Symbolic Z-matrix:
 Charge =  0 Multiplicity = 1

 SCF Done:  E(UB3LYP) =  -763.197897470     A.U. after   16 cycles
 SCF Done:  E(UB3LYP) =  -763.197897462     A.U. after    8 cycles
 Optimization completed.
    -- Stationary point found.
 Normal termination of Gaussian 16 at Mon Jan  8 01:24:40 2024.

 ----------------------------------------------------------------------
 #P Geom=AllCheck Guess=TCheck SCRF=Check GenChk UB3LYP/6-311++G(d,p) F
 req
 ----------------------------------------------------------------------

 Structure from the checkpoint file:  "262.chk"
 --------
 Oxidized
 --------
 Charge =  0 Multiplicity = 1

                          Input orientation:
 ---------------------------------------------------------------------
 Center     Atomic      Atomic             Coordinates (Angstroms)
 Number     Number       Type             X           Y           Z
 ---------------------------------------------------------------------
      1          6           0        3.667752   -1.364887    0.290099
      2          6           0        2.545350   -0.593433   -0.335030
      3          8           0        2.227817   -0.579688   -1.489305
      4          8           0        1.888986    0.152692    0.629130
      5          6           0        0.702045    0.775031    0.292505
      6          6           0        0.726958    2.163223    0.201675
      7          6           0       -0.440413    2.869593   -0.065335
      8          6           0       -1.639156    2.187477   -0.242160
      9          6           0       -1.671136    0.797784   -0.144749
     10          6           0       -2.987829    0.109900   -0.326974
     11          8           0       -4.009372    0.728192   -0.576590
     12          6           0       -3.014126   -1.361484   -0.186457
     13          6           0       -1.905660   -2.058666    0.088546
     14          6           0       -0.573642   -1.425158    0.258536
     15          8           0        0.391183   -2.134144    0.498751
     16          6           0       -0.496582    0.059888    0.127944
     17          1           0        4.226501   -0.741464    0.989625
     18          1           0        4.321767   -1.751580   -0.488677
     19          1           0        3.232394   -2.195598    0.851143
     20          1           0        1.673339    2.670787    0.342493
     21          1           0       -0.411706    3.950467   -0.138003
     22          1           0       -2.562453    2.711770   -0.453321
     23          1           0       -3.981835   -1.832730   -0.318939
     24          1           0       -1.910180   -3.137970    0.195094
 ---------------------------------------------------------------------

 SCF Done:  E(UB3LYP) =  -763.197897462     A.U. after    1 cycles

 Alpha  occ. eigenvalues --  -19.18706 -19.14001 -19.13897 -19.12726 -10.32026
 Alpha  occ. eigenvalues --  -10.29238 -10.28831 -10.27348 -10.22359 -10.22062
 Alpha  occ. eigenvalues --  -10.22047 -10.21921 -10.21282 -10.21015 -10.20632
 Alpha  occ. eigenvalues --  -10.18691  -1.12988  -1.07268  -1.07048  -1.04716
 Alpha  occ. eigenvalues --   -0.90156  -0.85083  -0.80079  -0.79136  -0.75798
 Alpha  occ. eigenvalues --   -0.71041  -0.67186  -0.66054  -0.63489  -0.56830
 Alpha  occ. eigenvalues --   -0.55079  -0.54684  -0.51721  -0.50666  -0.50248
 Alpha  occ. eigenvalues --   -0.49397  -0.48432  -0.46989  -0.46018  -0.45636
 Alpha  occ. eigenvalues --   -0.44036  -0.43750  -0.42667  -0.42186  -0.41964
 Alpha  occ. eigenvalues --   -0.40359  -0.39614  -0.39079  -0.38128  -0.33928
 Alpha  occ. eigenvalues --   -0.31577  -0.29955  -0.29333  -0.29098  -0.28122
 Alpha  occ. eigenvalues --   -0.27638
 Alpha virt. eigenvalues --   -0.13323  -0.06467  -0.04673  -0.01160  -0.01014
 Alpha virt. eigenvalues --   -0.00147  -0.00066   0.01627   0.01742   0.02491
 Alpha virt. eigenvalues --    0.02741   0.03586   0.04210   0.04665   0.04988

  Beta  occ. eigenvalues --  -19.18706 -19.14001 -19.13897 -19.12726 -10.32026
  Beta  occ. eigenvalues --  -10.29238 -10.28831 -10.27348 -10.22359 -10.22062
  Beta  occ. eigenvalues --  -10.22047 -10.21921 -10.21282 -10.21015 -10.20632
  Beta  occ. eigenvalues --  -10.18691  -1.12988  -1.07268  -1.07048  -1.04716
  Beta  occ. eigenvalues --   -0.90156  -0.85083  -0.80079  -0.79136  -0.75798
  Beta  occ. eigenvalues --   -0.71041  -0.67186  -0.66054  -0.63489  -0.56830
  Beta  occ. eigenvalues --   -0.55079  -0.54684  -0.51721  -0.50666  -0.50248
  Beta  occ. eigenvalues --   -0.49397  -0.48432  -0.46989  -0.46018  -0.45636
  Beta  occ. eigenvalues --   -0.44036  -0.43750  -0.42667  -0.42186  -0.41964
  Beta  occ. eigenvalues --   -0.40359  -0.39614  -0.39079  -0.38128  -0.33928
  Beta  occ. eigenvalues --   -0.31577  -0.29955  -0.29333  -0.29098  -0.28122
  Beta  occ. eigenvalues --   -0.27638
  Beta virt. eigenvalues --   -0.13323  -0.06467  -0.04673  -0.01160  -0.01014
  Beta virt. eigenvalues --   -0.00147  -0.00066   0.01627   0.01742   0.02491
  Beta virt. eigenvalues --    0.02741   0.03586   0.04210   0.04665   0.04988

 Mulliken charges and spin densities:
               1          2
     1  C   -0.478489   0.000000
     2  C   -0.004036   0.000000
     3  O   -0.198165  -0.000000
     4  O    0.007624  -0.000000
     5  C   -0.125873   0.000000
     6  C    0.227169  -0.000000
     7  C   -0.496559   0.000000
     8  C    0.127848   0.000000
     9  C    0.312649  -0.000000
    10  C   -0.464325  -0.000000
    11  O   -0.225173   0.000000
    12  C   -0.009520   0.000000
    13  C   -0.073017  -0.000000
    14  C   -0.285932  -0.000000
    15  O   -0.233093  -0.000000
    16  C    0.376712  -0.000000
    17  H    0.165927  -0.000000
    18  H    0.169171   0.000000
    19  H    0.198682   0.000000
    20  H    0.192495  -0.000000
    21  H    0.190317  -0.000000
    22  H    0.190243  -0.000000
    23  H    0.218418   0.000000
    24  H    0.216926  -0.000000
 Sum of Mulliken charges =  -0.00000   0.00000

 Dipole moment (field-independent basis, Debye):
    X=              1.1272    Y=              0.8386    Z=              1.7514  Tot=              2.2453
 Quadrupole moment (field-independent basis, Debye-Ang):
   XX=            -92.3554   YY=            -80.8687   ZZ=            -97.8992
   XY=              7.6955   XZ=              2.0006   YZ=             -0.0793

  Exact polarizability: 191.680 -12.038 171.138  14.985  -6.100  90.010
 Approx polarizability: 312.800 -39.608 281.516  37.977 -16.294 152.304

                      1                      2                      3
                      A                      A                      A
 Frequencies --     41.6096                59.1824                80.5102
 Red. masses --      7.2646                 6.9908                 3.7374
 Frc consts  --      0.0074                 0.0144                 0.0143
 IR Inten    --      2.2090                 2.8578                 4.7347

                      4                      5                      6
                      A                      A                      A
 Frequencies --     88.9646               104.9994               126.0922
 Red. masses --      3.0118                 1.2998                 7.9630
 Frc consts  --      0.0140                 0.0084                 0.0746
 IR Inten    --      6.8326                 0.7115                 1.8811

                      7                      8                      9
                      A                      A                      A
 Frequencies --    178.5139               253.0488               263.3552
 Red. masses --      5.1911                 4.9200                 8.8363
 Frc consts  --      0.0975                 0.1856                 0.3611
 IR Inten    --      0.0408                 0.0973                 1.1049

                     10                     11                     12
                      A                      A                      A
 Frequencies --    273.1705               306.9999               367.3820
 Red. masses --      5.2439                 3.8017                 8.8434
 Frc consts  --      0.2306                 0.2111                 0.7032
 IR Inten    --      0.3328                 2.8051                 5.5473

                     13                     14                     15
                      A                      A                      A
 Frequencies --    411.2095               448.2488               465.3044
 Red. masses --      7.8458                11.0219                 5.9078
 Frc consts  --      0.7817                 1.3048                 0.7536
 IR Inten    --      9.6921                 8.4146                 2.0859

                     16                     17                     18
                      A                      A                      A
 Frequencies --    471.2126               514.3914               534.3939
 Red. masses --      4.0378                 4.6082                 5.8652
 Frc consts  --      0.5282                 0.7184                 0.9869
 IR Inten    --      0.1873                 2.1751                13.0110

                     19                     20                     21
                      A                      A                      A
 Frequencies --    573.8221               603.3946               621.0489
 Red. masses --      3.0136                 5.5305                 3.4747
 Frc consts  --      0.5847                 1.1864                 0.7896
 IR Inten    --      9.1805                 7.9284                 0.6871

                     22                     23                     24
                      A                      A                      A
 Frequencies --    626.7510               672.5971               723.1956
 Red. masses --      2.9714                 5.9005                 3.7546
 Frc consts  --      0.6877                 1.5727                 1.1570
 IR Inten    --      0.9479                 7.0665                22.8644

                     25                     26                     27
                      A                      A                      A
 Frequencies --    763.2636               778.6365               781.0522
 Red. masses --      6.6684                 2.5358                 6.2474
 Frc consts  --      2.2889                 0.9058                 2.2455
 IR Inten    --      2.2650                17.8547                 3.2940

                     28                     29                     30
                      A                      A                      A
 Frequencies --    818.5045               872.9285               876.4622
 Red. masses --      2.5033                 2.0275                 3.9728
 Frc consts  --      0.9881                 0.9103                 1.7981
 IR Inten    --     14.5826                27.3718                54.0946

                     31                     32                     33
                      A                      A                      A
 Frequencies --    946.3019               958.7949              1008.9724
 Red. masses --      2.5178                 2.2719                 1.3265
 Frc consts  --      1.3284                 1.2305                 0.7956
 IR Inten    --     16.0732                24.2855                 0.4500

                     34                     35                     36
                      A                      A                      A
 Frequencies --   1017.1622              1017.8406              1055.7998
 Red. masses --      2.0472                 1.2801                 3.7005
 Frc consts  --      1.2480                 0.7814                 2.4304
 IR Inten    --    105.1039                 5.4868                25.8139

                     37                     38                     39
                      A                      A                      A
 Frequencies --   1061.6601              1103.2481              1118.1587
 Red. masses --      1.7972                 1.6399                 2.3800
 Frc consts  --      1.1935                 1.1760                 1.7532
 IR Inten    --      3.3411                12.8376                70.0635

                     40                     41                     42
                      A                      A                      A
 Frequencies --   1175.1086              1190.9340              1196.9261
 Red. masses --      1.4570                 2.6334                 1.4844
 Frc consts  --      1.1854                 2.2006                 1.2530
 IR Inten    --     67.4293               480.8762                24.2703

                     43                     44                     45
                      A                      A                      A
 Frequencies --   1261.3263              1282.0653              1307.5894
 Red. masses --      2.7031                 3.5473                 3.1783
 Frc consts  --      2.5337                 3.4353                 3.2017
 IR Inten    --     16.9830                43.4302               181.3121

                     46                     47                     48
                      A                      A                      A
 Frequencies --   1353.3750              1391.3738              1395.9616
 Red. masses --      7.9654                 1.8034                 1.3201
 Frc consts  --      8.5959                 2.0570                 1.5156
 IR Inten    --     44.7366                 2.3205                68.2948

                     49                     50                     51
                      A                      A                      A
 Frequencies --   1465.9689              1472.8561              1475.1703
 Red. masses --      3.7362                 1.0500                 1.0639
 Frc consts  --      4.7307                 1.3420                 1.3640
 IR Inten    --     20.8836                14.5140                 8.5336

                     52                     53                     54
                      A                      A                      A
 Frequencies --   1488.1128              1605.1509              1627.1961
 Red. masses --      2.5380                 6.5569                 6.4072
 Frc consts  --      3.3114                 9.9536                 9.9954
 IR Inten    --      6.1957                 6.3724                91.3436

                     55                     56                     57
                      A                      A                      A
 Frequencies --   1670.3997              1719.0758              1727.4984
 Red. masses --      8.3862                10.5037                11.1151
 Frc consts  --     13.7866                18.2888                19.5434
 IR Inten    --     33.3362               178.6685               288.8788

                     58                     59                     60
                      A                      A                      A
 Frequencies --   1834.1307              3053.5550              3119.0905
 Red. masses --     11.8419                 1.0358                 1.0994
 Frc consts  --     23.4710                 5.6902                 6.3018
 IR Inten    --    230.6968                 1.5693                 3.4784

                     61                     62                     63
                      A                      A                      A
 Frequencies --   3157.1789              3175.1898              3180.4181
 Red. masses --      1.1041                 1.0872                 1.0882
 Frc consts  --      6.4844                 6.4582                 6.4851
 IR Inten    --      6.3510                 0.7495                 4.7886

                     64                     65                     66
                      A                      A                      A
 Frequencies --   3192.8565              3198.6560              3206.0988
 Red. masses --      1.0990                 1.0928                 1.0949
 Frc consts  --      6.6007                 6.5878                 6.6308
 IR Inten    --      4.0075                 1.4023                 3.8854

 - Thermochemistry -
 -------------------
 Temperature   298.150 Kelvin.  Pressure   1.00000 Atm.
 Atom     1 has atomic number  6 and mass  12.00000

 Molecular mass:   216.04226 amu.
 Principal axes and moments of inertia in atomic units:
                           1         2         3
     Eigenvalues --  1885.242634031.885175501.79702
           X            0.98115   0.18997  -0.03532
           Y           -0.18871   0.98137   0.03623
           Z            0.04154  -0.02888   0.99872
 This molecule is an asymmetric top.
 Rotational symmetry number  1.
 Warning -- assumption of classical behavior for rotation
           may cause significant error
 Rotational temperatures (Kelvin)      0.04594     0.02148     0.01574
 Rotational constants (GHZ):           0.95730     0.44762     0.32803
 Zero-point vibrational energy     454051.3 (Joules/Mol)
                                  108.52086 (Kcal/Mol)
 Warning -- explicit consideration of  20 degrees of freedom as
           vibrations may cause significant error
 Vibrational temperatures:     59.87    85.15   115.84   128.00   151.07
          (Kelvin)            181.42   256.84   364.08   378.91   393.03
                              441.70   528.58   591.64   644.93   669.47
                              677.97   740.09   768.87   825.60   868.15
                              893.55   901.75   967.72  1040.52  1098.17
                             1120.28  1123.76  1177.65  1255.95  1261.03
                             1361.52  1379.49  1451.69  1463.47  1464.45
                             1519.06  1527.49  1587.33  1608.78  1690.72
                             1713.49  1722.11  1814.77  1844.61  1881.33
                             1947.20  2001.88  2008.48  2109.20  2119.11
                             2122.44  2141.06  2309.45  2341.17  2403.33
                             2473.37  2485.48  2638.91  4393.38  4487.68
                             4542.48  4568.39  4575.91  4593.81  4602.15
                             4612.86

 Zero-point correction=                           0.172939 (Hartree/Particle)
 Thermal correction to Energy=                    0.186362
 Thermal correction to Enthalpy=                  0.187306
 Thermal correction to Gibbs Free Energy=         0.131932
 Sum of electronic and zero-point Energies=           -763.024958
 Sum of electronic and thermal Energies=              -763.011535
 Sum of electronic and thermal Enthalpies=            -763.010591
 Sum of electronic and thermal Free Energies=         -763.065965

                     E (Thermal)             CV                S
                      KCal/Mol        Cal/Mol-Kelvin    Cal/Mol-Kelvin
 Total                  116.944             50.489            116.545
 Electronic               0.000              0.000              0.000
 Translational            0.889              2.981             42.014
 Rotational               0.889              2.981             32.103
 Vibrational            115.167             44.527             42.428
 Vibration     1          0.594              1.981              5.181
 Vibration     2          0.597              1.974              4.484
 Vibration     3          0.600              1.962              3.878
 Vibration     4          0.602              1.957              3.683
 Vibration     5          0.605              1.945              3.359
 Vibration     6          0.611              1.927              3.005
 Vibration     7          0.629              1.869              2.344
 Vibration     8          0.664              1.758              1.709
 Vibration     9          0.670              1.740              1.639
 Vibration    10          0.676              1.723              1.576
 Vibration    11          0.697              1.660              1.378
 Vibration    12          0.740              1.539              1.091
 Vibration    13          0.775              1.446              0.922
 Vibration    14          0.807              1.365              0.801
 Vibration    15          0.823              1.327              0.751
 Vibration    16          0.828              1.314              0.734
 Vibration    17          0.869              1.218              0.623
 Vibration    18          0.889              1.174              0.577
 Vibration    19          0.930              1.088              0.497
 Vibration    20          0.962              1.025              0.444

                           ! Non-Optimized Parameters !
 Normal termination of Gaussian 16 at Mon Jan  8 01:42:06 2024.
