 Q-Chem 5.4, Q-Chem, Inc., Pleasanton, CA (2021)
 Q-Chem 5.4.0 for Intel X86 EM64T Linux

User input:
--------------------------------------------------------------
$molecule
-1 2
C                 -1.2619440000      2.5425570000     -0.8088040000
C                 -2.3194250000      1.9001550000     -0.2151860000
C                 -2.1511030000      0.5979180000      0.3334000000
C                  0.0245910000      1.9318550000     -0.8934150000
C                  0.1932160000      0.6127270000     -0.3368250000
C                 -0.9267970000     -0.0219300000      0.2706770000
C                  1.1254070000      2.5622270000     -1.4947390000
C                  2.3797460000      1.9622090000     -1.5750720000
C                  2.5415320000      0.6390940000     -1.0135780000
C                  1.4593510000      0.0032180000     -0.4158660000
C                  3.4856430000      2.6904650000     -2.2224990000
C                  4.8050390000      2.0017010000     -2.2826060000
C                  4.8903610000      0.6688760000     -1.6955460000
C                  3.8437710000      0.0264450000     -1.1001890000
O                  3.3143430000      3.8345450000     -2.6976070000
O                  5.8114760000      2.5222990000     -2.8089610000
H                 -1.3885110000      3.5362550000     -1.2282400000
H                 -3.2901530000      2.3829230000     -0.1615200000
H                 -2.9937080000      0.0981480000      0.8004430000
H                 -0.7947560000     -1.0164100000      0.6879990000
H                  1.0223900000      3.5547030000     -1.9206640000
H                  1.5945900000     -0.9890990000     -0.0013620000
H                  5.8701130000      0.2122410000     -1.7697970000
O                  3.9191170000     -1.2368020000     -0.5375570000
C                  5.1800750000     -1.8867450000     -0.5303010000
C                  5.0333600000     -3.1769650000      0.2171120000
C                  5.4640520000     -4.3565880000     -0.2224470000
H                  5.9214660000     -1.2465970000     -0.0291330000
H                  5.5342940000     -2.0668880000     -1.5532870000
H                  4.5542080000     -3.0968740000      1.1902340000
H                  5.9313350000     -4.4637150000     -1.1969560000
H                  5.3661040000     -5.2564480000      0.3750250000
$end
$rem
MAX_SCF_CYCLES=200
BASIS  =  6-311++G(d,p)
GUI  =  2
JOB_TYPE  =  SP
METHOD  =  B3LYP
SOLVENT_METHOD = PCM
$end
$pcm
theory = CPCM
$end
$solvent
dielectric 37.219
opticaldielectric 1.43
$end

--------------------------------------------------------------

             Standard Nuclear Orientation (Angstroms)
    I     Atom           X                Y                Z
 ----------------------------------------------------------------
    1      C      -1.2619440000     2.5425570000    -0.8088040000
    2      C      -2.3194250000     1.9001550000    -0.2151860000
    3      C      -2.1511030000     0.5979180000     0.3334000000
    4      C       0.0245910000     1.9318550000    -0.8934150000
    5      C       0.1932160000     0.6127270000    -0.3368250000
    6      C      -0.9267970000    -0.0219300000     0.2706770000
    7      C       1.1254070000     2.5622270000    -1.4947390000
    8      C       2.3797460000     1.9622090000    -1.5750720000
    9      C       2.5415320000     0.6390940000    -1.0135780000
   10      C       1.4593510000     0.0032180000    -0.4158660000
   11      C       3.4856430000     2.6904650000    -2.2224990000
   12      C       4.8050390000     2.0017010000    -2.2826060000
   13      C       4.8903610000     0.6688760000    -1.6955460000
   14      C       3.8437710000     0.0264450000    -1.1001890000
   15      O       3.3143430000     3.8345450000    -2.6976070000
   16      O       5.8114760000     2.5222990000    -2.8089610000
   17      H      -1.3885110000     3.5362550000    -1.2282400000
   18      H      -3.2901530000     2.3829230000    -0.1615200000
   19      H      -2.9937080000     0.0981480000     0.8004430000
   20      H      -0.7947560000    -1.0164100000     0.6879990000
   21      H       1.0223900000     3.5547030000    -1.9206640000
   22      H       1.5945900000    -0.9890990000    -0.0013620000
   23      H       5.8701130000     0.2122410000    -1.7697970000
   24      O       3.9191170000    -1.2368020000    -0.5375570000
   25      C       5.1800750000    -1.8867450000    -0.5303010000
   26      C       5.0333600000    -3.1769650000     0.2171120000
   27      C       5.4640520000    -4.3565880000    -0.2224470000
   28      H       5.9214660000    -1.2465970000    -0.0291330000
   29      H       5.5342940000    -2.0668880000    -1.5532870000
   30      H       4.5542080000    -3.0968740000     1.1902340000
   31      H       5.9313350000    -4.4637150000    -1.1969560000
   32      H       5.3661040000    -5.2564480000     0.3750250000
 ----------------------------------------------------------------

    8    -881.0646756171      9.63e-06  Convergence criterion met
 Total energy in the final basis set =     -881.0646756171

                    Orbital Energies (a.u.)
 --------------------------------------------------------------

 Alpha MOs
 -- Occupied --
-19.1586 -19.0775 -19.0751 -10.2381 -10.2270 -10.2202 -10.2167 -10.1857
-10.1848 -10.1842 -10.1804 -10.1764 -10.1764 -10.1759 -10.1758 -10.1754
-10.1750 -10.1709 -10.1700 -10.1594  -1.0712  -1.0153  -0.9886  -0.8796
 -0.8419  -0.8032  -0.7837  -0.7779  -0.7362  -0.7320  -0.7007  -0.6653
 -0.6370  -0.6105  -0.5963  -0.5741  -0.5658  -0.5317  -0.5248  -0.5164
 -0.4931  -0.4847  -0.4614  -0.4599  -0.4497  -0.4395  -0.4300  -0.4259
 -0.4201  -0.4154  -0.4125  -0.4010  -0.3960  -0.3928  -0.3719  -0.3673
 -0.3633  -0.3511  -0.3491  -0.3398  -0.3286  -0.3201  -0.2931  -0.2769
 -0.2680  -0.2615  -0.2334  -0.2275  -0.2219  -0.1478

 Beta MOs
 -- Occupied --
-19.1576 -19.0714 -19.0703 -10.2359 -10.2271 -10.2185 -10.2141 -10.1852
-10.1844 -10.1840 -10.1804 -10.1765 -10.1765 -10.1758 -10.1758 -10.1752
-10.1746 -10.1700 -10.1699 -10.1602  -1.0691  -1.0055  -0.9783  -0.8784
 -0.8399  -0.8024  -0.7819  -0.7765  -0.7341  -0.7307  -0.6994  -0.6582
 -0.6358  -0.6074  -0.5957  -0.5729  -0.5642  -0.5298  -0.5230  -0.5152
 -0.4919  -0.4831  -0.4604  -0.4577  -0.4486  -0.4381  -0.4272  -0.4230
 -0.4167  -0.4108  -0.4057  -0.3982  -0.3944  -0.3830  -0.3709  -0.3650
 -0.3548  -0.3484  -0.3389  -0.3341  -0.3281  -0.3087  -0.2881  -0.2759
 -0.2606  -0.2561  -0.2253  -0.2224  -0.2164

          Ground-State Mulliken Net Atomic Charges

     Atom                 Charge (a.u.)    Spin (a.u.)
  --------------------------------------------------------
      1 C                    -0.157046       0.026187
      2 C                    -0.323894      -0.002504
      3 C                    -0.381998       0.039530
      4 C                     0.125638      -0.001354
      5 C                     0.035336       0.038857
      6 C                    -0.154152      -0.015368
      7 C                     0.001649       0.105558
      8 C                     0.545873       0.003526
      9 C                     0.119479       0.029411
     10 C                    -0.131067      -0.000250
     11 C                    -0.497230       0.160189
     12 C                     0.012802       0.160536
     13 C                     0.177110      -0.084323
     14 C                    -0.575646       0.103788
     15 O                    -0.514732       0.237480
     16 O                    -0.527257       0.177860
     17 H                     0.180636      -0.000808
     18 H                     0.200230      -0.000295
     19 H                     0.204500      -0.002795
     20 H                     0.180967       0.001175
     21 H                     0.146008      -0.007817
     22 H                     0.140490       0.000035
     23 H                     0.234955       0.001875
     24 O                    -0.104997       0.024975
     25 C                    -0.428376       0.001076
     26 C                     0.102852       0.000291
     27 C                    -0.512078      -0.001329
     28 H                     0.179772       0.002080
     29 H                     0.176406       0.002241
     30 H                     0.210153       0.000066
     31 H                     0.159314       0.000036
     32 H                     0.174301       0.000070
  --------------------------------------------------------
  Sum of atomic charges =    -1.000000

                    Cartesian Multipole Moments
 -----------------------------------------------------------------
    Charge (ESU x 10^10)
                -4.8032
    Dipole Moment (Debye)
         X     -20.0518      Y     -16.4623      Z      13.4151
       Tot      29.2069
    Quadrupole Moments (Debye-Ang)
        XX    -207.8990     XY     -76.7987     YY    -165.9921
        XZ      58.3036     YZ      41.4819     ZZ    -158.2035

 Total job time:  90.11s(wall), 514.84s(cpu)
        *  Thank you very much for using Q-Chem.  Have a nice day.  *
