 Q-Chem 5.4, Q-Chem, Inc., Pleasanton, CA (2021)
 Q-Chem 5.4.0 for Intel X86 EM64T Linux

User input:
--------------------------------------------------------------
$molecule
-1 2
C                  2.8857550000      2.5183800000     -0.3399250000
O                  2.5559010000      1.1559040000     -0.2360720000
C                  1.2334620000      0.8016340000     -0.1641320000
C                  0.2317450000      1.7536630000     -0.1915020000
C                 -1.1190980000      1.3747610000     -0.1167500000
C                 -1.4729260000      0.0425460000     -0.0142430000
O                 -2.7865660000     -0.3426060000      0.0597500000
C                 -3.7836710000      0.6478670000      0.0321620000
C                 -0.4707650000     -0.9804500000      0.0177130000
C                 -0.8502790000     -2.4105150000      0.1275080000
O                 -2.0347950000     -2.8276390000      0.1999110000
C                  0.2424600000     -3.3496130000      0.1489130000
C                  1.5531720000     -2.9820100000      0.0762340000
C                  1.9915640000     -1.6134790000     -0.0304450000
O                  3.2207610000     -1.3535750000     -0.0921550000
C                  0.9165210000     -0.5913180000     -0.0591860000
H                  3.9753990000      2.5550630000     -0.3826370000
H                  2.5413290000      3.0973340000      0.5289530000
H                  2.4758270000      2.9777180000     -1.2508410000
H                  0.4666040000      2.8061260000     -0.2706590000
H                 -1.8723780000      2.1500560000     -0.1414950000
H                 -4.7319560000      0.1129790000      0.1037720000
H                 -3.7007170000      1.3454920000      0.8778490000
H                 -3.7688810000      1.2275140000     -0.9019590000
H                 -0.0470820000     -4.3938540000      0.2289310000
H                  2.3486140000     -3.7219780000      0.0959780000
$end
$rem
MAX_SCF_CYCLES=200
BASIS  =  6-311++G(d,p)
GUI  =  2
JOB_TYPE  =  SP
METHOD  =  B3LYP
SOLVENT_METHOD = COSMO
$end
$solvent
dielectric 37.219
opticaldielectric 1.43
$end

--------------------------------------------------------------

             Standard Nuclear Orientation (Angstroms)
    I     Atom           X                Y                Z
 ----------------------------------------------------------------
    1      C       3.4683721149    -2.0818465696     0.0000596201
    2      O       2.7782636520    -0.8572323793    -0.0005334618
    3      C       1.4073992980    -0.8733006657    -0.0000453130
    4      C       0.7024714297    -2.0622588578     0.0005870264
    5      C      -0.7024952106    -2.0622507583     0.0009574100
    6      C      -1.4074216434    -0.8733111807     0.0005699763
    7      O      -2.7782635802    -0.8572043588     0.0007466184
    8      C      -3.4683785190    -2.0818488250    -0.0011362289
    9      C      -0.7214493631     0.3841904942     0.0000799973
   10      C      -1.4778484232     1.6605259319    -0.0001066566
   11      O      -2.7330783591     1.7424396827    -0.0009584183
   12      C      -0.6815997737     2.8615374264     0.0010014863
   13      C       0.6816243844     2.8615624229     0.0007922543
   14      C       1.4778726673     1.6605492002    -0.0001893699
   15      O       2.7330936152     1.7424204916    -0.0011597674
   16      C       0.7214295480     0.3841674337    -0.0001709468
   17      H       4.5282066570    -1.8225306653     0.0001571292
   18      H       3.2468833211    -2.6847675156    -0.8922379926
   19      H       3.2468111807    -2.6841534832     0.8927731558
   20      H       1.2163252375    -3.0136037976     0.0007154466
   21      H      -1.2163578805    -3.0136024920     0.0016250545
   22      H      -4.5281940795    -1.8224884788    -0.0020275581
   23      H      -3.2457134500    -2.6835888279    -0.8939283349
   24      H      -3.2479025615    -2.6852743413     0.8910853970
   25      H      -1.2458584352     3.7901324155     0.0014760279
   26      H       1.2458183311     3.7901933834     0.0012063746
 ----------------------------------------------------------------

   11    -764.4107359752      5.64e-06  Convergence criterion met
 Total energy in the final basis set =     -764.4107359752
    5    -764.5110287558      6.65e-06  Convergence criterion met
 Total energy in the final basis set =     -764.5110287558

                    Orbital Energies (a.u.)
 --------------------------------------------------------------

 Alpha MOs
 -- Occupied --
-19.1469 -19.1469 -19.0729 -19.0729 -10.2323 -10.2323 -10.2242 -10.2242
-10.2118 -10.2118 -10.1830 -10.1826 -10.1702 -10.1697 -10.1593 -10.1586
 -1.0667  -1.0658  -1.0005  -0.9984  -0.8548  -0.8022  -0.7621  -0.7479
 -0.7071  -0.6803  -0.6728  -0.6174  -0.6053  -0.5608  -0.5220  -0.5180
 -0.4972  -0.4936  -0.4678  -0.4625  -0.4613  -0.4463  -0.4351  -0.4196
 -0.4138  -0.4054  -0.4005  -0.3978  -0.3797  -0.3738  -0.3672  -0.3589
 -0.3394  -0.3362  -0.3298  -0.2949  -0.2765  -0.2544  -0.2357  -0.2306
 -0.2158  -0.1494

 Beta MOs
 -- Occupied --
-19.1468 -19.1468 -19.0667 -19.0666 -10.2322 -10.2322 -10.2228 -10.2228
-10.2118 -10.2118 -10.1826 -10.1822 -10.1695 -10.1690 -10.1579 -10.1573
 -1.0664  -1.0655  -0.9897  -0.9873  -0.8527  -0.7970  -0.7609  -0.7459
 -0.7066  -0.6771  -0.6658  -0.6140  -0.6031  -0.5596  -0.5206  -0.5165
 -0.4956  -0.4911  -0.4667  -0.4620  -0.4591  -0.4436  -0.4346  -0.4156
 -0.4049  -0.4019  -0.4000  -0.3940  -0.3703  -0.3595  -0.3574  -0.3571
 -0.3358  -0.3318  -0.3291  -0.2914  -0.2492  -0.2483  -0.2300  -0.2251
 -0.2080

          Ground-State Mulliken Net Atomic Charges

     Atom                 Charge (a.u.)    Spin (a.u.)
  --------------------------------------------------------
      1 C                    -0.324595      -0.000774
      2 O                    -0.169592       0.001464
      3 C                    -0.092514       0.048721
      4 C                    -0.178958       0.062061
      5 C                    -0.181204       0.061986
      6 C                    -0.092474       0.048794
      7 O                    -0.169686       0.001469
      8 C                    -0.324567      -0.000775
      9 C                     0.036647       0.018365
     10 C                     0.025058       0.071167
     11 O                    -0.543270       0.225707
     12 C                    -0.199734       0.085075
     13 C                    -0.198950       0.085107
     14 C                     0.024323       0.071156
     15 O                    -0.543219       0.225688
     16 C                     0.038329       0.018430
     17 H                     0.206181      -0.000380
     18 H                     0.162099       0.000716
     19 H                     0.162039       0.000716
     20 H                     0.221297      -0.003600
     21 H                     0.222249      -0.003594
     22 H                     0.206280      -0.000380
     23 H                     0.161978       0.000720
     24 H                     0.161922       0.000713
     25 H                     0.195432      -0.009274
     26 H                     0.194928      -0.009277
  --------------------------------------------------------
  Sum of atomic charges =    -1.000000

                    Cartesian Multipole Moments
 -----------------------------------------------------------------
    Charge (ESU x 10^10)
                -4.8032
    Dipole Moment (Debye)
         X       0.0002      Y     -12.0326      Z       0.0053
       Tot      12.0326
    Quadrupole Moments (Debye-Ang)
        XX    -130.4276     XY       0.0006     YY     -95.9355
        XZ       0.0118     YZ       0.0123     ZZ     -98.4243

 Total job time:  70.93s(wall), 545.34s(cpu)
        *  Thank you very much for using Q-Chem.  Have a nice day.  *
