 Gaussian 16, Revision A.03,
 Gaussian 16:  ES64L-G16RevA.03 25-Dec-2016

 --------------------------------------
 #P UB3LYP/6-311++G(d,p) nosym opt freq
 --------------------------------------

 -------
 Reduced
 -------
 Symbolic Z-matrix:
 Charge = -2 Multiplicity = 1

 SCF Done:  E(UB3LYP) =  -538.831814515     A.U. after   39 cycles
 SCF Done:  E(UB3LYP) =  -538.831814605     A.U. after   28 cycles
 SCF Done:  E(UB3LYP) =  -538.831814437     A.U. after   27 cycles
 SCF Done:  E(UB3LYP) =  -538.831814660     A.U. after   27 cycles
 Optimization completed.
    -- Stationary point found.
 Normal termination of Gaussian 16 at Sat Jan  6 06:12:39 2024.

 ----------------------------------------------------------------------
 #P Geom=AllCheck Guess=TCheck SCRF=Check GenChk UB3LYP/6-311++G(d,p) F
 req
 ----------------------------------------------------------------------

 Structure from the checkpoint file:  "033-an.chk"
 -------
 Reduced
 -------
 Charge = -2 Multiplicity = 1

                          Input orientation:
 ---------------------------------------------------------------------
 Center     Atomic      Atomic             Coordinates (Angstroms)
 Number     Number       Type             X           Y           Z
 ---------------------------------------------------------------------
      1          6           0       -1.786262    1.130619    0.630191
      2          6           0       -1.135837   -0.093643   -0.059301
      3          6           0       -1.683365   -1.365238    0.618273
      4          6           0       -1.577815   -0.131056   -1.545093
      5          6           0        0.402441    0.027236    0.015033
      6          6           0        1.177405   -0.949806    0.652638
      7          6           0        2.608230   -0.922755    0.782790
      8          8           0        3.281064   -1.853994    1.383294
      9          6           0        3.211142    0.235998    0.195724
     10          6           0        2.463353    1.223526   -0.436949
     11          6           0        1.039448    1.189586   -0.581044
     12          8           0        0.394461    2.138816   -1.195358
     13          1           0       -2.880590    1.103752    0.533872
     14          1           0       -1.537764    1.135137    1.698790
     15          1           0       -1.399450    2.044230    0.172299
     16          1           0       -2.776855   -1.396805    0.529663
     17          1           0       -1.431625   -1.397578    1.683105
     18          1           0       -1.283665   -2.273552    0.154397
     19          1           0       -1.161176   -1.017961   -2.036270
     20          1           0       -2.675424   -0.182202   -1.628219
     21          1           0       -1.207558    0.761029   -2.053234
     22          1           0        0.702378   -1.820076    1.096263
     23          1           0        4.296463    0.324488    0.263022
     24          1           0        2.961001    2.090246   -0.873883
 ---------------------------------------------------------------------

 SCF Done:  E(UB3LYP) =  -538.831814660     A.U. after    5 cycles

 Alpha  occ. eigenvalues --  -18.76382 -18.76113  -9.93825  -9.92376  -9.92056
 Alpha  occ. eigenvalues --   -9.91813  -9.91106  -9.91015  -9.88838  -9.87670
 Alpha  occ. eigenvalues --   -9.87569  -9.87248  -0.67471  -0.66854  -0.57210
 Alpha  occ. eigenvalues --   -0.52014  -0.44874  -0.44567  -0.43864  -0.39191
 Alpha  occ. eigenvalues --   -0.33322  -0.29317  -0.26210  -0.20820  -0.19927
 Alpha  occ. eigenvalues --   -0.19605  -0.17446  -0.16508  -0.15508  -0.15272
 Alpha  occ. eigenvalues --   -0.13037  -0.12518  -0.09934  -0.09749  -0.09695
 Alpha  occ. eigenvalues --   -0.08383  -0.08232  -0.06403  -0.05931  -0.04924
 Alpha  occ. eigenvalues --    0.03314   0.03649   0.06227   0.06497   0.14250
 Alpha virt. eigenvalues --    0.15785   0.18265   0.18801   0.19160   0.19871
 Alpha virt. eigenvalues --    0.21037   0.21721   0.21748   0.23006   0.23253
 Alpha virt. eigenvalues --    0.24384   0.25459   0.27003   0.27204   0.28377

  Beta  occ. eigenvalues --  -18.76382 -18.76113  -9.93825  -9.92376  -9.92056
  Beta  occ. eigenvalues --   -9.91813  -9.91106  -9.91015  -9.88838  -9.87670
  Beta  occ. eigenvalues --   -9.87569  -9.87248  -0.67471  -0.66854  -0.57210
  Beta  occ. eigenvalues --   -0.52014  -0.44874  -0.44567  -0.43864  -0.39191
  Beta  occ. eigenvalues --   -0.33322  -0.29317  -0.26210  -0.20820  -0.19927
  Beta  occ. eigenvalues --   -0.19605  -0.17446  -0.16508  -0.15508  -0.15272
  Beta  occ. eigenvalues --   -0.13037  -0.12518  -0.09934  -0.09749  -0.09695
  Beta  occ. eigenvalues --   -0.08383  -0.08232  -0.06403  -0.05931  -0.04924
  Beta  occ. eigenvalues --    0.03314   0.03649   0.06227   0.06497   0.14250
  Beta virt. eigenvalues --    0.15785   0.18265   0.18801   0.19160   0.19871
  Beta virt. eigenvalues --    0.21037   0.21721   0.21748   0.23006   0.23253
  Beta virt. eigenvalues --    0.24384   0.25459   0.27003   0.27204   0.28377

 Mulliken charges and spin densities:
               1          2
     1  C   -0.336433   0.000000
     2  C   -0.243701   0.000000
     3  C   -0.109159  -0.000000
     4  C   -0.002573  -0.000000
     5  C    1.918281  -0.000000
     6  C   -0.113491   0.000000
     7  C   -0.900093  -0.000000
     8  O   -0.552732   0.000000
     9  C    0.302208   0.000000
    10  C    0.179468  -0.000000
    11  C   -1.272512   0.000000
    12  O   -0.506511  -0.000000
    13  H   -0.082708  -0.000000
    14  H    0.089009  -0.000000
    15  H    0.129482   0.000000
    16  H   -0.740139  -0.000000
    17  H    0.045280   0.000000
    18  H    0.051214  -0.000000
    19  H    0.083801  -0.000000
    20  H   -0.436022   0.000000
    21  H    0.235932   0.000000
    22  H    0.141600   0.000000
    23  H    0.052899  -0.000000
    24  H    0.066900  -0.000000
 Sum of Mulliken charges =  -2.00000   0.00000

 Dipole moment (field-independent basis, Debye):
    X=             -6.9076    Y=              1.2367    Z=             -0.6543  Tot=              7.0479
 Quadrupole moment (field-independent basis, Debye-Ang):
   XX=           -164.9887   YY=           -120.3845   ZZ=           -103.8874
   XY=              8.9590   XZ=            -16.0142   YZ=             16.8401

  Exact polarizability:1288.837 132.064 576.309  41.131-127.099 577.469
 Approx polarizability:5033.721 961.316 677.320 228.113 -51.866 439.684

                      1                      2                      3
                      A                      A                      A
 Frequencies --     71.1156               110.3616               171.2002
 Red. masses --      3.5681                 4.1157                 5.6423
 Frc consts  --      0.0106                 0.0295                 0.0974
 IR Inten    --      1.8161                 2.0233                 2.1629

                      4                      5                      6
                      A                      A                      A
 Frequencies --    206.0368               251.9911               276.8808
 Red. masses --      3.9763                 1.0525                 3.4718
 Frc consts  --      0.0995                 0.0394                 0.1568
 IR Inten    --     11.6666                 0.7574                 2.9764

                      7                      8                      9
                      A                      A                      A
 Frequencies --    290.9527               295.4643               323.2641
 Red. masses --      1.1009                 3.4674                 3.0540
 Frc consts  --      0.0549                 0.1783                 0.1880
 IR Inten    --      6.4250                 9.1417                37.0310

                     10                     11                     12
                      A                      A                      A
 Frequencies --    326.1505               356.5126               399.6986
 Red. masses --      1.0435                 3.8827                 2.6453
 Frc consts  --      0.0654                 0.2908                 0.2490
 IR Inten    --     27.9925                 2.2367                 2.0632

                     13                     14                     15
                      A                      A                      A
 Frequencies --    400.3896               416.9321               453.5426
 Red. masses --      4.1170                 3.4505                 7.7223
 Frc consts  --      0.3889                 0.3534                 0.9359
 IR Inten    --     11.4582                10.4039               904.6414

                     16                     17                     18
                      A                      A                      A
 Frequencies --    491.2840               521.3418               589.2935
 Red. masses --      2.5788                 3.5496                 3.7565
 Frc consts  --      0.3667                 0.5684                 0.7686
 IR Inten    --      4.2345                16.5280                 2.5050

                     19                     20                     21
                      A                      A                      A
 Frequencies --    623.7925               689.2235               735.8195
 Red. masses --      2.6233                 6.2114                 2.2187
 Frc consts  --      0.6014                 1.7384                 0.7078
 IR Inten    --      2.3234                 8.5432                 8.5534

                     22                     23                     24
                      A                      A                      A
 Frequencies --    802.2376               807.0259               808.0354
 Red. masses --      2.4150                 4.6881                 3.5265
 Frc consts  --      0.9158                 1.7989                 1.3566
 IR Inten    --     27.4290                24.1113                12.8347

                     25                     26                     27
                      A                      A                      A
 Frequencies --    846.9179               881.3992               914.7515
 Red. masses --      1.7999                 1.3301                 1.8310
 Frc consts  --      0.7606                 0.6088                 0.9027
 IR Inten    --     42.2897                 4.9231                54.6976

                     28                     29                     30
                      A                      A                      A
 Frequencies --    921.0360               924.5406               955.0130
 Red. masses --      2.6019                 1.9991                 1.2038
 Frc consts  --      1.3005                 1.0068                 0.6469
 IR Inten    --     15.0885               151.3425                 3.5140

                     31                     32                     33
                      A                      A                      A
 Frequencies --   1024.2466              1048.2689              1054.9432
 Red. masses --      1.6680                 1.3872                 2.0038
 Frc consts  --      1.0310                 0.8981                 1.3139
 IR Inten    --    158.3661                17.8004                81.3975

                     34                     35                     36
                      A                      A                      A
 Frequencies --   1094.9594              1186.3329              1206.6881
 Red. masses --      1.4757                 3.4264                 2.2186
 Frc consts  --      1.0424                 2.8412                 1.9033
 IR Inten    --    427.4862               201.5488               392.7547

                     37                     38                     39
                      A                      A                      A
 Frequencies --   1208.4677              1247.1750              1258.5802
 Red. masses --      2.5622                 2.0720                 1.9402
 Frc consts  --      2.2046                 1.8989                 1.8107
 IR Inten    --     44.6590               191.8544                56.8849

                     40                     41                     42
                      A                      A                      A
 Frequencies --   1302.6547              1338.0493              1352.9235
 Red. masses --      2.8523                 3.5275                 1.2155
 Frc consts  --      2.8517                 3.7210                 1.3108
 IR Inten    --    159.5048              1731.9266                27.2795

                     43                     44                     45
                      A                      A                      A
 Frequencies --   1367.3482              1388.8028              1409.8028
 Red. masses --      1.4461                 1.6143                 3.4674
 Frc consts  --      1.5929                 1.8344                 4.0604
 IR Inten    --    399.4220               207.5092                49.9143

                     46                     47                     48
                      A                      A                      A
 Frequencies --   1452.7872              1459.2622              1477.4159
 Red. masses --      3.0414                 1.0489                 2.2697
 Frc consts  --      3.7821                 1.3160                 2.9190
 IR Inten    --    233.2861                41.9479               154.3278

                     49                     50                     51
                      A                      A                      A
 Frequencies --   1483.0541              1490.4615              1490.9912
 Red. masses --      1.0606                 1.3805                 1.0754
 Frc consts  --      1.3744                 1.8068                 1.4085
 IR Inten    --    193.7479               204.6545                41.9657

                     52                     53                     54
                      A                      A                      A
 Frequencies --   1508.9767              1526.2216              1580.0164
 Red. masses --      1.0540                 1.0684                 5.4055
 Frc consts  --      1.4140                 1.4663                 7.9507
 IR Inten    --      4.3366                29.0736              3353.4532

                     55                     56                     57
                      A                      A                      A
 Frequencies --   2944.6411              2968.5385              2988.7976
 Red. masses --      1.0513                 1.0394                 1.0385
 Frc consts  --      5.3708                 5.3966                 5.4655
 IR Inten    --     70.0362               150.2816                77.0006

                     58                     59                     60
                      A                      A                      A
 Frequencies --   3025.2294              3028.7610              3043.3802
 Red. masses --      1.0960                 1.0856                 1.0954
 Frc consts  --      5.9101                 5.8676                 5.9780
 IR Inten    --    127.0796                 5.8771               140.2470

                     61                     62                     63
                      A                      A                      A
 Frequencies --   3063.9780              3069.4352              3080.9729
 Red. masses --      1.1006                 1.0829                 1.0996
 Frc consts  --      6.0877                 6.0113                 6.1499
 IR Inten    --     15.8961                70.7793                12.3434

                     64                     65                     66
                      A                      A                      A
 Frequencies --   3097.4319              3098.3635              3140.8598
 Red. masses --      1.0978                 1.0923                 1.0855
 Frc consts  --      6.2055                 6.1780                 6.3090
 IR Inten    --     67.2929               520.2480                69.6583

 - Thermochemistry -
 -------------------
 Temperature   298.150 Kelvin.  Pressure   1.00000 Atm.
 Atom     1 has atomic number  6 and mass  12.00000

 Molecular mass:   164.08373 amu.
 Principal axes and moments of inertia in atomic units:
                           1         2         3
     Eigenvalues --  1237.059402434.886553273.60639
           X            0.95469   0.28432  -0.08790
           Y           -0.20632   0.84520   0.49302
           Z            0.21447  -0.45255   0.86557
 This molecule is an asymmetric top.
 Rotational symmetry number  1.
 Warning -- assumption of classical behavior for rotation
           may cause significant error
 Rotational temperatures (Kelvin)      0.07002     0.03557     0.02646
 Rotational constants (GHZ):           1.45890     0.74120     0.55130
 Zero-point vibrational energy     504650.8 (Joules/Mol)
                                  120.61444 (Kcal/Mol)
 Warning -- explicit consideration of  18 degrees of freedom as
           vibrations may cause significant error
 Vibrational temperatures:    102.32   158.79   246.32   296.44   362.56
          (Kelvin)            398.37   418.62   425.11   465.10   469.26
                              512.94   575.08   576.07   599.87   652.55
                              706.85   750.09   847.86   897.50   991.64
                             1058.68  1154.24  1161.13  1162.58  1218.53
                             1268.14  1316.12  1325.17  1330.21  1374.05
                             1473.66  1508.23  1517.83  1575.40  1706.87
                             1736.16  1738.72  1794.41  1810.82  1874.23
                             1925.15  1946.56  1967.31  1998.18  2028.39
                             2090.24  2099.55  2125.67  2133.78  2144.44
                             2145.20  2171.08  2195.89  2273.29  4236.68
                             4271.06  4300.21  4352.63  4357.71  4378.75
                             4408.38  4416.23  4432.83  4456.51  4457.85
                             4519.00

 Zero-point correction=                           0.192211 (Hartree/Particle)
 Thermal correction to Energy=                    0.203619
 Thermal correction to Enthalpy=                  0.204563
 Thermal correction to Gibbs Free Energy=         0.156024
 Sum of electronic and zero-point Energies=           -538.639603
 Sum of electronic and thermal Energies=              -538.628196
 Sum of electronic and thermal Enthalpies=            -538.627252
 Sum of electronic and thermal Free Energies=         -538.675791

                     E (Thermal)             CV                S
                      KCal/Mol        Cal/Mol-Kelvin    Cal/Mol-Kelvin
 Total                  127.773             45.629            102.159
 Electronic               0.000              0.000              0.000
 Translational            0.889              2.981             41.194
 Rotational               0.889              2.981             30.667
 Vibrational            125.995             39.667             30.298
 Vibration     1          0.598              1.968              4.122
 Vibration     2          0.606              1.941              3.263
 Vibration     3          0.626              1.878              2.422
 Vibration     4          0.641              1.831              2.079
 Vibration     5          0.664              1.759              1.717
 Vibration     6          0.678              1.716              1.553
 Vibration     7          0.687              1.691              1.468
 Vibration     8          0.690              1.682              1.442
 Vibration     9          0.708              1.629              1.294
 Vibration    10          0.710              1.623              1.279
 Vibration    11          0.732              1.562              1.137
 Vibration    12          0.766              1.471              0.964
 Vibration    13          0.766              1.469              0.961
 Vibration    14          0.780              1.433              0.902
 Vibration    15          0.812              1.353              0.785
 Vibration    16          0.847              1.269              0.680
 Vibration    17          0.876              1.203              0.607
 Vibration    18          0.947              1.055              0.468

 Optimization completed.
    -- Stationary point found.
 Normal termination of Gaussian 16 at Sat Jan  6 06:41:02 2024.
