 Q-Chem 5.4, Q-Chem, Inc., Pleasanton, CA (2021)
 Q-Chem 5.4.0 for Intel X86 EM64T Linux

User input:
--------------------------------------------------------------
$molecule
-2 1
C                 -1.7862620000      1.1306190000      0.6301910000
C                 -1.1358370000     -0.0936430000     -0.0593010000
C                 -1.6833650000     -1.3652380000      0.6182730000
C                 -1.5778150000     -0.1310560000     -1.5450930000
C                  0.4024410000      0.0272360000      0.0150330000
C                  1.1774050000     -0.9498060000      0.6526380000
C                  2.6082300000     -0.9227550000      0.7827900000
O                  3.2810640000     -1.8539940000      1.3832940000
C                  3.2111420000      0.2359980000      0.1957240000
C                  2.4633530000      1.2235260000     -0.4369490000
C                  1.0394480000      1.1895860000     -0.5810440000
O                  0.3944610000      2.1388160000     -1.1953580000
H                 -2.8805900000      1.1037520000      0.5338720000
H                 -1.5377640000      1.1351370000      1.6987900000
H                 -1.3994500000      2.0442300000      0.1722990000
H                 -2.7768550000     -1.3968050000      0.5296630000
H                 -1.4316250000     -1.3975780000      1.6831050000
H                 -1.2836650000     -2.2735520000      0.1543970000
H                 -1.1611760000     -1.0179610000     -2.0362700000
H                 -2.6754240000     -0.1822020000     -1.6282190000
H                 -1.2075580000      0.7610290000     -2.0532340000
H                  0.7023780000     -1.8200760000      1.0962630000
H                  4.2964630000      0.3244880000      0.2630220000
H                  2.9610010000      2.0902460000     -0.8738830000
$end
$rem
MAX_SCF_CYCLES=200
BASIS  =  6-311++G(d,p)
GUI  =  2
JOB_TYPE  =  SP
METHOD  =  B3LYP
SOLVENT_METHOD = COSMO
$end
$solvent
dielectric 37.219
opticaldielectric 1.43
$end

--------------------------------------------------------------

             Standard Nuclear Orientation (Angstroms)
    I     Atom           X                Y                Z
 ----------------------------------------------------------------
    1      C      -2.3339049059     0.1068610837     1.2621389726
    2      C      -1.6381492194    -0.4695227422     0.0047706680
    3      C      -1.8353024217    -1.9982177194     0.0131110341
    4      C      -2.3425057456     0.0835458603    -1.2610567916
    5      C      -0.1535810938    -0.0424860458    -0.0067888194
    6      C       0.8752020651    -0.9929174736    -0.0043971340
    7      C       2.2813863896    -0.6969831467    -0.0043964151
    8      O       3.1968411065    -1.6148371801    -0.0025646739
    9      C       2.5675166767     0.7061904855     0.0051482067
   10      C       1.5643049124     1.6696320180     0.0097994186
   11      C       0.1632810912     1.3758726264    -0.0062758402
   12      O      -0.7307187680     2.3219896148    -0.0136521323
   13      H      -3.4077814689    -0.1262526666     1.2618861686
   14      H      -1.8909190628    -0.3262104575     2.1676156835
   15      H      -2.1931256020     1.1902674949     1.2817706373
   16      H      -2.9061471251    -2.2387254177     0.0171428871
   17      H      -1.3839674140    -2.4603127357     0.8968819310
   18      H      -1.3903042128    -2.4672180890    -0.8711912917
   19      H      -1.8897301806    -0.3505609095    -2.1599388644
   20      H      -3.4131505750    -0.1772045137    -1.2615605520
   21      H      -2.2238475228     1.1679549930    -1.2940753977
   22      H       0.6393056929    -2.0531855422    -0.0072586999
   23      H       3.6172498131     1.0033471121     0.0114295732
   24      H       1.8239524588     2.7290315758     0.0147125767
 ----------------------------------------------------------------

   20    -538.8318394573      4.51e-06  Convergence criterion met
 Total energy in the final basis set =     -538.8318394573
    5    -539.1285138712      7.66e-06  Convergence criterion met
 Total energy in the final basis set =     -539.1285138712

                    Orbital Energies (a.u.)
 --------------------------------------------------------------

 Alpha MOs
 -- Occupied --
-19.0179 -19.0105 -10.1657 -10.1642 -10.1607 -10.1372 -10.1307 -10.1303
-10.1289 -10.1180 -10.1175 -10.1160  -0.9301  -0.9236  -0.7986  -0.7621
 -0.6889  -0.6638  -0.6591  -0.6374  -0.5692  -0.5321  -0.4952  -0.4392
 -0.4311  -0.4179  -0.4143  -0.3987  -0.3898  -0.3769  -0.3609  -0.3523
 -0.3471  -0.3411  -0.3368  -0.3176  -0.3099  -0.3021  -0.3015  -0.2951
 -0.2243  -0.2090  -0.1985  -0.1882  -0.1164

          Ground-State Mulliken Net Atomic Charges

     Atom                 Charge (a.u.)
  ----------------------------------------
      1 C                    -0.696336
      2 C                     0.655433
      3 C                    -0.522374
      4 C                    -0.697192
      5 C                     1.004626
      6 C                    -0.524424
      7 C                    -0.512469
      8 O                    -0.797312
      9 C                     0.008685
     10 C                    -0.165311
     11 C                    -0.755677
     12 O                    -0.728872
     13 H                     0.136119
     14 H                     0.125099
     15 H                     0.176985
     16 H                     0.164360
     17 H                     0.131093
     18 H                     0.129969
     19 H                     0.126401
     20 H                     0.136951
     21 H                     0.176996
     22 H                     0.148530
     23 H                     0.139331
     24 H                     0.139390
  ----------------------------------------
  Sum of atomic charges =    -2.000000

                    Cartesian Multipole Moments
 -----------------------------------------------------------------
    Charge (ESU x 10^10)
                -9.6064
    Dipole Moment (Debye)
         X     -12.0329      Y      -2.8337      Z       0.0555
       Tot      12.3622
    Quadrupole Moments (Debye-Ang)
        XX    -133.0783     XY      27.3834     YY    -117.1328
        XZ      -0.0058     YZ       0.1043     ZZ     -84.8599

 Total job time:  53.05s(wall), 409.43s(cpu)
        *  Thank you very much for using Q-Chem.  Have a nice day.  *
