 Q-Chem 5.4, Q-Chem, Inc., Pleasanton, CA (2021)
 Q-Chem 5.4.0 for Intel X86 EM64T Linux

User input:
--------------------------------------------------------------
$molecule
-2 1
C                  1.0905590000      1.7416310000     -0.6813450000
C                 -0.1103610000      1.2619340000     -0.0227480000
C                 -0.4025380000     -0.0905740000      0.1219400000
C                  0.4671600000     -1.1533540000     -0.3717130000
C                  1.6351970000     -0.6941620000     -1.0229820000
C                  1.9220710000      0.6820980000     -1.1819890000
O                  1.3695430000      2.9946250000     -0.7696050000
O                  0.1659640000     -2.4048160000     -0.2242270000
S                  3.4217860000      1.1147450000     -2.0133990000
C                  4.4509350000      1.9912830000     -0.7974130000
C                  4.2001190000      3.3344740000     -0.4844660000
C                  5.4924000000      1.2979130000     -0.1732980000
C                  6.2972220000      1.9480910000      0.7594430000
C                  5.0098360000      3.9713980000      0.4549840000
C                  6.0614170000      3.2916240000      1.0766960000
O                  3.2283080000      2.0543390000     -3.1421860000
O                  4.1857890000     -0.1262640000     -2.3191080000
H                  3.3489900000      3.8194810000     -0.9445440000
H                  5.6565960000      0.2605020000     -0.4391150000
H                  4.8132620000      5.0098190000      0.7084150000
H                  2.3181410000     -1.4283330000     -1.4322510000
H                  7.1097420000      1.4085650000      1.2389840000
C                 -1.6662970000     -0.5318080000      0.8230480000
C                 -1.0402720000      2.3204500000      0.5254730000
H                  6.6866560000      3.7991590000      1.8065930000
H                 -1.7069020000     -0.1826490000      1.8659970000
H                 -1.6928070000     -1.6242550000      0.8116320000
H                 -2.5708660000     -0.1440360000      0.3306400000
H                 -0.6287280000      3.3027490000      0.2834370000
H                 -1.1553210000      2.2491070000      1.6182260000
H                 -2.0528520000      2.2439530000      0.1016420000
$end
$rem
MAX_SCF_CYCLES=200
BASIS  =  6-311++G(d,p)
GUI  =  2
JOB_TYPE  =  SP
METHOD  =  B3LYP
SOLVENT_METHOD = PCM
$end
$pcm
theory = CPCM
$end
$solvent
dielectric 37.219
opticaldielectric 1.43
$end

--------------------------------------------------------------

             Standard Nuclear Orientation (Angstroms)
    I     Atom           X                Y                Z
 ----------------------------------------------------------------
    1      C       1.0905590000     1.7416310000    -0.6813450000
    2      C      -0.1103610000     1.2619340000    -0.0227480000
    3      C      -0.4025380000    -0.0905740000     0.1219400000
    4      C       0.4671600000    -1.1533540000    -0.3717130000
    5      C       1.6351970000    -0.6941620000    -1.0229820000
    6      C       1.9220710000     0.6820980000    -1.1819890000
    7      O       1.3695430000     2.9946250000    -0.7696050000
    8      O       0.1659640000    -2.4048160000    -0.2242270000
    9      S       3.4217860000     1.1147450000    -2.0133990000
   10      C       4.4509350000     1.9912830000    -0.7974130000
   11      C       4.2001190000     3.3344740000    -0.4844660000
   12      C       5.4924000000     1.2979130000    -0.1732980000
   13      C       6.2972220000     1.9480910000     0.7594430000
   14      C       5.0098360000     3.9713980000     0.4549840000
   15      C       6.0614170000     3.2916240000     1.0766960000
   16      O       3.2283080000     2.0543390000    -3.1421860000
   17      O       4.1857890000    -0.1262640000    -2.3191080000
   18      H       3.3489900000     3.8194810000    -0.9445440000
   19      H       5.6565960000     0.2605020000    -0.4391150000
   20      H       4.8132620000     5.0098190000     0.7084150000
   21      H       2.3181410000    -1.4283330000    -1.4322510000
   22      H       7.1097420000     1.4085650000     1.2389840000
   23      C      -1.6662970000    -0.5318080000     0.8230480000
   24      C      -1.0402720000     2.3204500000     0.5254730000
   25      H       6.6866560000     3.7991590000     1.8065930000
   26      H      -1.7069020000    -0.1826490000     1.8659970000
   27      H      -1.6928070000    -1.6242550000     0.8116320000
   28      H      -2.5708660000    -0.1440360000     0.3306400000
   29      H      -0.6287280000     3.3027490000     0.2834370000
   30      H      -1.1553210000     2.2491070000     1.6182260000
   31      H      -2.0528520000     2.2439530000     0.1016420000
 ----------------------------------------------------------------

    9   -1240.2588561773      5.01e-06  Convergence criterion met
 Total energy in the final basis set =    -1240.2588561773

                    Orbital Energies (a.u.)
 --------------------------------------------------------------

 Alpha MOs
 -- Occupied --
-89.0327 -19.1020 -19.0997 -19.0309 -19.0199 -10.1981 -10.1927 -10.1812
-10.1786 -10.1774 -10.1765 -10.1762 -10.1755 -10.1623 -10.1434 -10.1407
-10.1393 -10.1383 -10.1308  -8.0963  -6.0595  -6.0581  -6.0568  -1.0890
 -0.9843  -0.9517  -0.9347  -0.8622  -0.8030  -0.7723  -0.7526  -0.7502
 -0.7033  -0.6854  -0.6421  -0.6294  -0.6092  -0.5869  -0.5425  -0.5353
 -0.5171  -0.4752  -0.4695  -0.4651  -0.4558  -0.4429  -0.4364  -0.4262
 -0.4166  -0.4117  -0.3830  -0.3780  -0.3762  -0.3741  -0.3693  -0.3668
 -0.3635  -0.3522  -0.3445  -0.3339  -0.3231  -0.3183  -0.3173  -0.3099
 -0.2939  -0.2845  -0.2647  -0.2593  -0.2387  -0.2131  -0.2103  -0.1998
 -0.1307

          Ground-State Mulliken Net Atomic Charges

     Atom                 Charge (a.u.)
  ----------------------------------------
      1 C                    -0.815612
      2 C                     0.108714
      3 C                     0.858709
      4 C                    -0.959180
      5 C                     0.365626
      6 C                    -0.143400
      7 O                    -0.590308
      8 O                    -0.726138
      9 S                     0.209031
     10 C                     0.104429
     11 C                    -0.284503
     12 C                     0.205719
     13 C                    -0.440978
     14 C                    -0.388256
     15 C                    -0.350466
     16 O                    -0.246823
     17 O                    -0.318758
     18 H                     0.287503
     19 H                     0.252009
     20 H                     0.218748
     21 H                     0.205794
     22 H                     0.217865
     23 C                    -0.436048
     24 C                    -0.462317
     25 H                     0.198503
     26 H                     0.148735
     27 H                     0.168909
     28 H                     0.148881
     29 H                     0.173003
     30 H                     0.145843
     31 H                     0.144765
  ----------------------------------------
  Sum of atomic charges =    -2.000000

                    Cartesian Multipole Moments
 -----------------------------------------------------------------
    Charge (ESU x 10^10)
                -9.6064
    Dipole Moment (Debye)
         X     -13.9246      Y      -1.2923      Z      13.1109
       Tot      19.1693
    Quadrupole Moments (Debye-Ang)
        XX    -161.3808     XY     -13.3961     YY    -177.8163
        XZ      42.5745     YZ      18.0358     ZZ    -157.7909

 Total job time:  72.27s(wall), 445.67s(cpu)
        *  Thank you very much for using Q-Chem.  Have a nice day.  *
