 Q-Chem 5.4, Q-Chem, Inc., Pleasanton, CA (2021)
 Q-Chem 5.4.0 for Intel X86 EM64T Linux

User input:
--------------------------------------------------------------
$molecule
-2 1
O                  3.0741810000     -2.1850110000      0.2111200000
C                  2.8188940000     -0.9063680000      0.2586110000
C                  3.8286190000      0.0608470000      0.4209390000
C                  3.5323950000      1.4400610000      0.4701800000
C                  2.2348780000      1.9008650000      0.3608660000
C                  1.1611300000      0.9866470000      0.1949160000
C                 -0.2026050000      1.5267710000      0.0834770000
O                 -0.4034100000      2.7768000000      0.1354450000
C                 -1.2614960000      0.5392010000     -0.0852190000
C                 -2.6367030000      0.8841720000     -0.2090970000
O                 -3.0183570000      2.2148850000     -0.1713050000
C                 -3.6398440000     -0.0662570000     -0.3698200000
C                 -3.3117150000     -1.4495670000     -0.4164950000
C                 -2.0075940000     -1.8476760000     -0.3031260000
C                 -0.9479990000     -0.8941440000     -0.1361940000
C                  0.3705510000     -1.3377680000     -0.0237010000
O                  0.6319540000     -2.6929230000     -0.0752440000
C                  1.4367830000     -0.4164290000      0.1420030000
H                  1.6421750000     -2.7354210000      0.0285190000
H                  4.8527610000     -0.2961580000      0.5076780000
H                  4.3489880000      2.1524030000      0.5973710000
H                  1.9902090000      2.9556660000      0.3967290000
H                 -3.9766380000      2.2088950000     -0.2732020000
H                 -4.6760860000      0.2612180000     -0.4591310000
H                 -4.1047360000     -2.1846670000     -0.5426010000
H                 -1.7363370000     -2.8960450000     -0.3360390000
$end
$rem
MAX_SCF_CYCLES=200
BASIS  =  6-311++G(d,p)
GUI  =  2
JOB_TYPE  =  SP
METHOD  =  B3LYP
SOLVENT_METHOD = COSMO
$end
$solvent
dielectric 37.219
opticaldielectric 1.43
$end

--------------------------------------------------------------

             Standard Nuclear Orientation (Angstroms)
    I     Atom           X                Y                Z
 ----------------------------------------------------------------
    1      O       3.1836769220    -1.9473073962     0.0004809470
    2      C       2.8262722491    -0.6924701411     0.0001178739
    3      C       3.7609557403     0.3600347661     0.0000601479
    4      C       3.3545642830     1.7117930800    -0.0001302099
    5      C       2.0180618467     2.0605071052    -0.0002235847
    6      C       1.0150274111     1.0554247012    -0.0001650006
    7      C      -0.3940980462     1.4776700951    -0.0000681550
    8      O      -0.6946050476     2.7086418087    -0.0000025595
    9      C      -1.3764212447     0.4006166482    -0.0000322439
   10      C      -2.7815145665     0.6270183628     0.0002196157
   11      O      -3.2696023980     1.9230335422     0.0003711349
   12      C      -3.7109426444    -0.4081639789     0.0002122559
   13      C      -3.2723164407    -1.7613087180    -0.0001354796
   14      C      -1.9342100725    -2.0468716622    -0.0003374741
   15      C      -0.9484617181    -1.0037363398    -0.0002254073
   16      C       0.4077435235    -1.3334913543    -0.0001621669
   17      O       0.7773334518    -2.6642191812    -0.0000248597
   18      C       1.4026949480    -0.3219352734    -0.0000948484
   19      H       1.7927912286    -2.6198937520     0.0002379000
   20      H       4.8153422954     0.0914979277     0.0001980646
   21      H       4.1160211241     2.4932124802    -0.0001864187
   22      H       1.6891160716     3.0927613855    -0.0002645768
   23      H      -4.2292469343     1.8347006622    -0.0006387383
   24      H      -4.7750625993    -0.1701252091     0.0004924597
   25      H      -4.0083557352    -2.5634328958    -0.0001382618
   26      H      -1.5791604889    -3.0704345325    -0.0005096681
 ----------------------------------------------------------------

   11    -839.4422439659      8.65e-06  Convergence criterion met
 Total energy in the final basis set =     -839.4422439659
    6    -839.7182510101      3.46e-06  Convergence criterion met
 Total energy in the final basis set =     -839.7182510101

                    Orbital Energies (a.u.)
 --------------------------------------------------------------

 Alpha MOs
 -- Occupied --
-19.1381 -19.0998 -19.0549 -19.0359 -10.2238 -10.2021 -10.1991 -10.1890
-10.1583 -10.1560 -10.1534 -10.1515 -10.1486 -10.1478 -10.1473 -10.1436
-10.1331 -10.1312  -1.0475  -1.0154  -0.9625  -0.9620  -0.8360  -0.8133
 -0.7646  -0.7303  -0.7151  -0.7005  -0.6526  -0.6176  -0.6024  -0.5691
 -0.5502  -0.5199  -0.5057  -0.4910  -0.4697  -0.4512  -0.4442  -0.4388
 -0.4149  -0.4093  -0.3971  -0.3914  -0.3904  -0.3877  -0.3682  -0.3606
 -0.3542  -0.3515  -0.3466  -0.3379  -0.3267  -0.3144  -0.3141  -0.2916
 -0.2540  -0.2320  -0.2245  -0.2203  -0.2051  -0.1876  -0.1251

          Ground-State Mulliken Net Atomic Charges

     Atom                 Charge (a.u.)
  ----------------------------------------
      1 O                    -0.684311
      2 C                    -0.385789
      3 C                    -0.281275
      4 C                    -0.420441
      5 C                    -0.251885
      6 C                     0.402131
      7 C                    -0.408917
      8 O                    -0.624045
      9 C                    -0.086156
     10 C                    -0.060529
     11 O                    -0.273862
     12 C                    -0.355317
     13 C                    -0.371387
     14 C                    -0.434280
     15 C                     0.484691
     16 C                    -0.083690
     17 O                    -0.542551
     18 C                     0.653437
     19 H                     0.422750
     20 H                     0.160333
     21 H                     0.178877
     22 H                     0.144251
     23 H                     0.307549
     24 H                     0.162946
     25 H                     0.194764
     26 H                     0.152704
  ----------------------------------------
  Sum of atomic charges =    -2.000000

                    Cartesian Multipole Moments
 -----------------------------------------------------------------
    Charge (ESU x 10^10)
                -9.6064
    Dipole Moment (Debye)
         X      -8.9736      Y      -1.1562      Z      -0.0007
       Tot       9.0478
    Quadrupole Moments (Debye-Ang)
        XX    -142.3934     XY      19.3671     YY    -161.0138
        XZ       0.0070     YZ      -0.0038     ZZ    -116.2486

 Total job time:  67.15s(wall), 507.95s(cpu)
        *  Thank you very much for using Q-Chem.  Have a nice day.  *
