 Gaussian 16, Revision A.03,
 Gaussian 16:  ES64L-G16RevA.03 25-Dec-2016

 ----------------------------------------------------------------------
 #P UB3LYP/6-311++G(d,p) nosym opt freq SCRF=(PCM,Solvent=n,n-DiMethylF
 ormamide)
 ----------------------------------------------------------------------

 -------
 Radical
 -------
 Symbolic Z-matrix:
 Charge = -1 Multiplicity = 2

 SCF Done:  E(UB3LYP) =  -932.982037417     A.U. after   23 cycles
 SCF Done:  E(UB3LYP) =  -932.975431084     A.U. after   20 cycles
 SCF Done:  E(UB3LYP) =  -932.982291120     A.U. after   16 cycles
 SCF Done:  E(UB3LYP) =  -932.982399194     A.U. after   14 cycles
 SCF Done:  E(UB3LYP) =  -932.982390985     A.U. after   15 cycles
 SCF Done:  E(UB3LYP) =  -932.982409225     A.U. after   14 cycles
 SCF Done:  E(UB3LYP) =  -932.982415363     A.U. after   12 cycles
 SCF Done:  E(UB3LYP) =  -932.982420089     A.U. after   15 cycles
 SCF Done:  E(UB3LYP) =  -932.982421662     A.U. after   13 cycles
 SCF Done:  E(UB3LYP) =  -932.982422082     A.U. after   12 cycles
 SCF Done:  E(UB3LYP) =  -932.982422333     A.U. after   12 cycles
 SCF Done:  E(UB3LYP) =  -932.982422524     A.U. after   10 cycles
 SCF Done:  E(UB3LYP) =  -932.982422812     A.U. after   12 cycles
 SCF Done:  E(UB3LYP) =  -932.982422880     A.U. after   12 cycles
 Optimization completed.
    -- Stationary point found.
 Normal termination of Gaussian 16 at Sat Feb 10 19:31:20 2024.

 ----------------------------------------------------------------------
 #P Geom=AllCheck Guess=TCheck SCRF=Check GenChk UB3LYP/6-311++G(d,p) F
 req
 ----------------------------------------------------------------------

 Structure from the checkpoint file:  "175-rad.chk"
 -------
 Radical
 -------
 Charge = -1 Multiplicity = 2

                          Input orientation:
 ---------------------------------------------------------------------
 Center     Atomic      Atomic             Coordinates (Angstroms)
 Number     Number       Type             X           Y           Z
 ---------------------------------------------------------------------
      1          6           0        4.400075   -0.104310    0.018218
      2          6           0        2.953753    0.312291   -0.088443
      3          6           0        2.620540    1.648339   -0.415207
      4          6           0        1.308297    2.051269   -0.521492
      5          6           0        0.241117    1.158834   -0.296598
      6          6           0       -1.132608    1.645012   -0.422713
      7          8           0       -1.380033    2.839167   -0.736636
      8          6           0       -2.197497    0.678263   -0.165277
      9          6           0       -3.547295    1.078296   -0.282899
     10          6           0       -4.578476    0.192876   -0.039971
     11          6           0       -4.289779   -1.136054    0.335649
     12          6           0       -2.978365   -1.549383    0.458973
     13          6           0       -1.905819   -0.662418    0.211481
     14          6           0       -0.534320   -1.145035    0.354165
     15          8           0       -0.278317   -2.321008    0.731704
     16          6           0        0.528609   -0.195780    0.049747
     17          6           0        1.896899   -0.556994    0.120088
     18          7           0        2.279406   -1.969731    0.390415
     19          8           0        2.297503   -2.744354   -0.557061
     20          8           0        2.670069   -2.248601    1.517414
     21          1           0        5.040202    0.632924   -0.467177
     22          1           0        4.587958   -1.073019   -0.450652
     23          1           0        4.710571   -0.179858    1.064577
     24          1           0        3.423626    2.354455   -0.593916
     25          1           0        1.066243    3.074012   -0.782188
     26          1           0       -3.751509    2.102590   -0.570039
     27          1           0       -5.609026    0.516452   -0.136460
     28          1           0       -5.099340   -1.831930    0.526941
     29          1           0       -2.742483   -2.566302    0.747357
 ---------------------------------------------------------------------

 SCF Done:  E(UB3LYP) =  -932.982422880     A.U. after    1 cycles

 Alpha  occ. eigenvalues --  -19.17092 -19.17076 -19.08278 -19.08263 -14.55985
 Alpha  occ. eigenvalues --  -10.23457 -10.23320 -10.23266 -10.20612 -10.19592
 Alpha  occ. eigenvalues --  -10.18475 -10.18286 -10.18172 -10.18002 -10.17875
 Alpha  occ. eigenvalues --  -10.17678 -10.17615 -10.17527 -10.17446 -10.17415
 Alpha  occ. eigenvalues --   -1.24509  -1.07093  -1.01030  -1.00698  -0.88910
 Alpha  occ. eigenvalues --   -0.86154  -0.81315  -0.79765  -0.76397  -0.75526
 Alpha  occ. eigenvalues --   -0.72021  -0.69880  -0.66275  -0.63818  -0.62534
 Alpha  occ. eigenvalues --   -0.59124  -0.57293  -0.56342  -0.53407  -0.53162
 Alpha  occ. eigenvalues --   -0.52813  -0.51163  -0.48055  -0.47036  -0.45960
 Alpha  occ. eigenvalues --   -0.45410  -0.43913  -0.42861  -0.42613  -0.42413
 Alpha  occ. eigenvalues --   -0.41829  -0.40873  -0.39385  -0.38810  -0.38493
 Alpha  occ. eigenvalues --   -0.37328  -0.37167  -0.35584  -0.34598  -0.34311
 Alpha  occ. eigenvalues --   -0.32919  -0.32138  -0.31974  -0.27494  -0.26564
 Alpha  occ. eigenvalues --   -0.26070  -0.25479  -0.25365  -0.24569  -0.15023
 Alpha virt. eigenvalues --   -0.08836  -0.06347  -0.02983  -0.01370  -0.00312
 Alpha virt. eigenvalues --    0.00346   0.01287   0.02035   0.02355   0.03193
 Alpha virt. eigenvalues --    0.04138   0.04256   0.04406   0.04586   0.05283

  Beta  occ. eigenvalues --  -19.17083 -19.17075 -19.07719 -19.07682 -14.55982
  Beta  occ. eigenvalues --  -10.23423 -10.23134 -10.23115 -10.20590 -10.19496
  Beta  occ. eigenvalues --  -10.18374 -10.18234 -10.18172 -10.17949 -10.17804
  Beta  occ. eigenvalues --  -10.17645 -10.17570 -10.17528 -10.17446 -10.17401
  Beta  occ. eigenvalues --   -1.24496  -1.07082  -1.00025  -0.99709  -0.88719
  Beta  occ. eigenvalues --   -0.85973  -0.81052  -0.79557  -0.76232  -0.75322
  Beta  occ. eigenvalues --   -0.71883  -0.69471  -0.65829  -0.63635  -0.62323
  Beta  occ. eigenvalues --   -0.59080  -0.57149  -0.56190  -0.53274  -0.53129
  Beta  occ. eigenvalues --   -0.52651  -0.50993  -0.47842  -0.46888  -0.45812
  Beta  occ. eigenvalues --   -0.45344  -0.43514  -0.42805  -0.42499  -0.41427
  Beta  occ. eigenvalues --   -0.41214  -0.40674  -0.39271  -0.38380  -0.37218
  Beta  occ. eigenvalues --   -0.36977  -0.36471  -0.35451  -0.34204  -0.33616
  Beta  occ. eigenvalues --   -0.32722  -0.31925  -0.31891  -0.26262  -0.25325
  Beta  occ. eigenvalues --   -0.25144  -0.24967  -0.24826  -0.24044
  Beta virt. eigenvalues --   -0.09144  -0.08686  -0.05438  -0.01953  -0.01120
  Beta virt. eigenvalues --   -0.00298   0.00345   0.01293   0.02042   0.02367
  Beta virt. eigenvalues --    0.03339   0.04158   0.04269   0.04595   0.04786

 Mulliken charges and spin densities:
               1          2
     1  C   -0.481547   0.001189
     2  C    0.736901   0.016486
     3  C   -0.924623   0.058047
     4  C   -0.170592  -0.003168
     5  C    0.573715   0.052319
     6  C   -0.593959   0.083601
     7  O   -0.438259   0.201557
     8  C    0.118664   0.023944
     9  C    0.089872   0.023727
    10  C   -0.399376   0.038771
    11  C   -0.434983   0.023150
    12  C    0.083313   0.041263
    13  C    0.126015   0.022088
    14  C   -0.564495   0.096729
    15  O   -0.404763   0.224509
    16  C    0.034083   0.061224
    17  C    0.254583   0.045529
    18  N   -0.212219  -0.002496
    19  O   -0.008524  -0.000086
    20  O   -0.004165   0.003790
    21  H    0.174792   0.000284
    22  H    0.180675   0.000236
    23  H    0.208594   0.000793
    24  H    0.177230  -0.004568
    25  H    0.170278  -0.000366
    26  H    0.168339  -0.001205
    27  H    0.185522  -0.003021
    28  H    0.187051  -0.002124
    29  H    0.167876  -0.002204
 Sum of Mulliken charges =  -1.00000   1.00000

 Dipole moment (field-independent basis, Debye):
    X=              1.7792    Y=              3.7899    Z=             -0.9409  Tot=              4.2911
 Quadrupole moment (field-independent basis, Debye-Ang):
   XX=           -112.7567   YY=           -157.7683   ZZ=           -126.8265
   XY=             22.2338   XZ=             -5.6181   YZ=              8.4778

  Exact polarizability: 497.276  -1.139 368.210   2.519 -54.808 178.230
 Approx polarizability: 502.729  -1.648 438.029   7.652 -62.754 225.913

                      1                      2                      3
                      A                      A                      A
 Frequencies --     36.5136                49.1818                78.2595
 Red. masses --     11.0937                 5.6924                 1.0908
 Frc consts  --      0.0087                 0.0081                 0.0039
 IR Inten    --      1.1472                14.3130                 0.6119

                      4                      5                      6
                      A                      A                      A
 Frequencies --     97.5322               123.6073               130.9830
 Red. masses --      4.7155                 5.1173                 5.7025
 Frc consts  --      0.0264                 0.0461                 0.0576
 IR Inten    --      1.8173                 1.9822                 1.5593

                      7                      8                      9
                      A                      A                      A
 Frequencies --    153.4973               176.5021               198.0395
 Red. masses --      8.2242                 8.1747                 6.2410
 Frc consts  --      0.1142                 0.1500                 0.1442
 IR Inten    --      2.4251                 2.3163                 1.2513

                     10                     11                     12
                      A                      A                      A
 Frequencies --    225.7021               270.5919               280.3104
 Red. masses --      4.3902                 5.8611                 4.8295
 Frc consts  --      0.1318                 0.2528                 0.2236
 IR Inten    --      9.3416                 0.4610                 3.4608

                     13                     14                     15
                      A                      A                      A
 Frequencies --    306.9821               341.2991               377.6471
 Red. masses --     11.0755                 6.6793                10.4200
 Frc consts  --      0.6150                 0.4584                 0.8756
 IR Inten    --      6.8123                11.6365                27.5575

                     16                     17                     18
                      A                      A                      A
 Frequencies --    386.7791               424.7624               433.6711
 Red. masses --      5.4337                 4.6020                 5.3032
 Frc consts  --      0.4789                 0.4892                 0.5876
 IR Inten    --      3.6917                 3.0762                 2.8397

                     19                     20                     21
                      A                      A                      A
 Frequencies --    443.6551               449.0357               494.6513
 Red. masses --      4.6889                 4.3152                11.4213
 Frc consts  --      0.5438                 0.5126                 1.6465
 IR Inten    --      1.2236                 0.3908                 0.8547

                     22                     23                     24
                      A                      A                      A
 Frequencies --    513.7206               580.7987               596.4988
 Red. masses --      4.0080                 5.6867                 4.9280
 Frc consts  --      0.6232                 1.1302                 1.0331
 IR Inten    --      7.8383                18.7749                 7.6492

                     25                     26                     27
                      A                      A                      A
 Frequencies --    652.0421               658.2108               671.3523
 Red. masses --      7.0885                 7.9774                 5.5420
 Frc consts  --      1.7757                 2.0363                 1.4717
 IR Inten    --     34.6397                15.4472                 9.1742

                     28                     29                     30
                      A                      A                      A
 Frequencies --    706.4534               708.9965               744.9572
 Red. masses --      3.4455                 4.8068                 5.2311
 Frc consts  --      1.0131                 1.4236                 1.7104
 IR Inten    --     91.2171                45.3949                11.3058

                     31                     32                     33
                      A                      A                      A
 Frequencies --    748.4222               777.5023               789.1783
 Red. masses --      7.3901                 7.8361                 1.6803
 Frc consts  --      2.4389                 2.7909                 0.6166
 IR Inten    --     13.6144                16.3688                20.4275

                     34                     35                     36
                      A                      A                      A
 Frequencies --    791.4886               837.2542               844.5765
 Red. masses --      4.1981                 1.5635                 7.4252
 Frc consts  --      1.5495                 0.6458                 3.1206
 IR Inten    --     11.9055                38.4694                19.5815

                     37                     38                     39
                      A                      A                      A
 Frequencies --    887.6957               895.1611               976.1884
 Red. masses --      1.4600                 7.7261                 3.7778
 Frc consts  --      0.6779                 3.6477                 2.1211
 IR Inten    --      0.0331                 5.7919                37.1347

                     40                     41                     42
                      A                      A                      A
 Frequencies --    990.2065               991.1014               997.0595
 Red. masses --      1.4664                 2.7064                 1.3226
 Frc consts  --      0.8472                 1.5663                 0.7747
 IR Inten    --      2.8221                 7.8848                 1.2808

                     43                     44                     45
                      A                      A                      A
 Frequencies --   1004.3817              1040.9092              1053.3218
 Red. masses --      1.2935                 2.0036                 1.5047
 Frc consts  --      0.7688                 1.2791                 0.9836
 IR Inten    --      0.0306                25.5305                 9.1282

                     46                     47                     48
                      A                      A                      A
 Frequencies --   1066.2530              1115.4029              1149.1252
 Red. masses --      2.3059                 2.0807                 1.6326
 Frc consts  --      1.5446                 1.5252                 1.2702
 IR Inten    --      2.3938                39.3467                18.1471

                     49                     50                     51
                      A                      A                      A
 Frequencies --   1161.4238              1180.4689              1204.8616
 Red. masses --      1.7657                 1.8052                 2.5497
 Frc consts  --      1.4033                 1.4822                 2.1808
 IR Inten    --      3.8787                 7.1950                23.3017

                     52                     53                     54
                      A                      A                      A
 Frequencies --   1221.7493              1235.2793              1264.5351
 Red. masses --      2.2127                 4.0439                 2.2237
 Frc consts  --      1.9460                 3.6357                 2.0950
 IR Inten    --     58.3080                34.6947               152.7772

                     55                     56                     57
                      A                      A                      A
 Frequencies --   1332.7285              1351.0470              1361.0968
 Red. masses --      3.1848                 4.7709                10.3124
 Frc consts  --      3.3329                 5.1309                11.2561
 IR Inten    --    208.3058               127.7286                22.8101

                     58                     59                     60
                      A                      A                      A
 Frequencies --   1390.7270              1403.1316              1413.0849
 Red. masses --      5.1843                 6.9902                 1.2475
 Frc consts  --      5.9078                 8.1085                 1.4677
 IR Inten    --   1167.1997                24.2405                25.2426

                     61                     62                     63
                      A                      A                      A
 Frequencies --   1450.9731              1464.9025              1480.0084
 Red. masses --      3.1724                 1.7031                 1.9313
 Frc consts  --      3.9351                 2.1534                 2.4925
 IR Inten    --    501.0560               195.9621                31.0513

                     64                     65                     66
                      A                      A                      A
 Frequencies --   1488.6456              1491.6129              1509.1562
 Red. masses --      1.2905                 2.3053                 3.1737
 Frc consts  --      1.6850                 3.0220                 4.2588
 IR Inten    --     28.9118                79.9207               879.9839

                     67                     68                     69
                      A                      A                      A
 Frequencies --   1529.7076              1543.8290              1555.9447
 Red. masses --      5.2598                12.6403                 5.2334
 Frc consts  --      7.2516                17.7503                 7.4648
 IR Inten    --     91.3212               659.0815                81.2374

                     70                     71                     72
                      A                      A                      A
 Frequencies --   1606.5834              1622.1435              1633.4446
 Red. masses --      8.5984                 6.3118                 6.5909
 Frc consts  --     13.0759                 9.7855                10.3610
 IR Inten    --      9.8166                24.1108                 7.2274

                     73                     74                     75
                      A                      A                      A
 Frequencies --   3033.9496              3087.8829              3117.5854
 Red. masses --      1.0387                 1.0990                 1.1011
 Frc consts  --      5.6331                 6.1740                 6.3057
 IR Inten    --     38.8886                19.1046                22.3543

                     76                     77                     78
                      A                      A                      A
 Frequencies --   3162.3378              3173.4207              3175.9891
 Red. masses --      1.0862                 1.0887                 1.0904
 Frc consts  --      6.4002                 6.4596                 6.4802
 IR Inten    --     12.1981                12.0535                20.1437

                     79                     80                     81
                      A                      A                      A
 Frequencies --   3191.9245              3195.1627              3197.6346
 Red. masses --      1.0920                 1.0946                 1.0930
 Frc consts  --      6.5548                 6.5841                 6.5844
 IR Inten    --     13.7496                47.6043                12.6803

 - Thermochemistry -
 -------------------
 Temperature   298.150 Kelvin.  Pressure   1.00000 Atm.
 Atom     1 has atomic number  6 and mass  12.00000

 Molecular mass:   267.05316 amu.
 Principal axes and moments of inertia in atomic units:
                           1         2         3
     Eigenvalues --  2725.780656683.465999130.04278
           X            0.98624   0.16509   0.00919
           Y           -0.16238   0.95653   0.24224
           Z            0.03120  -0.24040   0.97017
 This molecule is an asymmetric top.
 Rotational symmetry number  1.
 Warning -- assumption of classical behavior for rotation
           may cause significant error
 Rotational temperatures (Kelvin)      0.03178     0.01296     0.00949
 Rotational constants (GHZ):           0.66210     0.27003     0.19767
 Zero-point vibrational energy     541312.8 (Joules/Mol)
                                  129.37687 (Kcal/Mol)
 Warning -- explicit consideration of  24 degrees of freedom as
           vibrations may cause significant error
 Vibrational temperatures:     52.53    70.76   112.60   140.33   177.84
          (Kelvin)            188.46   220.85   253.95   284.93   324.74
                              389.32   403.30   441.68   491.05   543.35
                              556.49   611.14   623.96   638.32   646.06
                              711.69   739.13   835.64   858.23   938.14
                              947.02   965.93  1016.43  1020.09  1071.83
                             1076.81  1118.65  1135.45  1138.78  1204.62
                             1215.16  1277.20  1287.94  1404.52  1424.69
                             1425.97  1434.55  1445.08  1497.64  1515.50
                             1534.10  1604.82  1653.33  1671.03  1698.43
                             1733.53  1757.82  1777.29  1819.38  1917.50
                             1943.86  1958.31  2000.95  2018.79  2033.11
                             2087.63  2107.67  2129.40  2141.83  2146.10
                             2171.34  2200.91  2221.23  2238.66  2311.52
                             2333.90  2350.16  4365.18  4442.77  4485.51
                             4549.90  4565.84  4569.54  4592.47  4597.13
                             4600.68

 Zero-point correction=                           0.206175 (Hartree/Particle)
 Thermal correction to Energy=                    0.221942
 Thermal correction to Enthalpy=                  0.222887
 Thermal correction to Gibbs Free Energy=         0.161889
 Sum of electronic and zero-point Energies=           -932.776248
 Sum of electronic and thermal Energies=              -932.760480
 Sum of electronic and thermal Enthalpies=            -932.759536
 Sum of electronic and thermal Free Energies=         -932.820534

                     E (Thermal)             CV                S
                      KCal/Mol        Cal/Mol-Kelvin    Cal/Mol-Kelvin
 Total                  139.271             61.120            128.380
 Electronic               0.000              0.000              1.377
 Translational            0.889              2.981             42.646
 Rotational               0.889              2.981             33.475
 Vibrational            137.494             55.158             50.882
 Vibration     1          0.594              1.982              5.440
 Vibration     2          0.595              1.978              4.850
 Vibration     3          0.600              1.964              3.934
 Vibration     4          0.603              1.951              3.503
 Vibration     5          0.610              1.929              3.043
 Vibration     6          0.612              1.922              2.932
 Vibration     7          0.619              1.899              2.628
 Vibration     8          0.628              1.871              2.365
 Vibration     9          0.637              1.843              2.151
 Vibration    10          0.650              1.802              1.913
 Vibration    11          0.674              1.727              1.592
 Vibration    12          0.680              1.710              1.532
 Vibration    13          0.697              1.660              1.379
 Vibration    14          0.721              1.593              1.206
 Vibration    15          0.748              1.518              1.049
 Vibration    16          0.755              1.498              1.013
 Vibration    17          0.787              1.416              0.876
 Vibration    18          0.794              1.397              0.847
 Vibration    19          0.803              1.375              0.815
 Vibration    20          0.808              1.363              0.799
 Vibration    21          0.850              1.262              0.672
 Vibration    22          0.869              1.220              0.625
 Vibration    23          0.937              1.073              0.484
 Vibration    24          0.954              1.039              0.456

 Optimization completed.
    -- Stationary point found.
 Normal termination of Gaussian 16 at Sat Feb 10 21:16:12 2024.
