 Q-Chem 5.4, Q-Chem, Inc., Pleasanton, CA (2021)
 Q-Chem 5.4.0 for Intel X86 EM64T Linux

User input:
--------------------------------------------------------------
$molecule
-2 1
C                  0.05491200    4.23812700    0.72928500
C                 -1.05357800    4.23057200   -0.09553100
C                 -1.03706700    3.48202300   -1.29564700
C                  1.22154300    3.50684000    0.39992000
C                  1.23917200    2.74499700   -0.81859000
C                  0.09518900    2.75796300   -1.63625900
C                  2.37077000    3.52177800    1.26406300
C                  3.49795400    2.74334200    0.83137300
C                  3.55500100    2.00177700   -0.33866700
C                  2.41604400    1.96032300   -1.22435700
O                  2.47152800    4.16602900    2.37536000
O                  2.42572800    1.28636100   -2.29968400
O                  4.55660900    2.80177200    1.70207500
C                  4.78929500    1.22316500   -0.71507400
C                  4.73530200   -0.25984300   -0.29722000
C                  5.97700600   -1.05085500   -0.72567200
C                  5.95131200   -2.52792600   -0.31323800
C                  7.19445800   -3.31317900   -0.75017700
C                  7.18047800   -4.79007500   -0.33675200
C                  8.42602300   -5.56490300   -0.78385900
C                  8.42315500   -7.04197900   -0.37023200
C                  9.67550100   -7.79862800   -0.82985000
C                  9.67079500   -9.26102700   -0.41043300
H                  0.06492900    4.80473400    1.65448800
H                 -1.93920700    4.79934000    0.17757900
H                 -1.90805100    3.47452700   -1.94564400
H                  0.13712300    2.17323800   -2.54926800
H                  4.18895200    3.40105200    2.39409000
H                  5.67134800    1.68861100   -0.26133300
H                  4.89753300    1.26517700   -1.80475200
H                  3.84053300   -0.70896900   -0.74117100
H                  4.61978800   -0.32037300    0.79191800
H                  6.87335600   -0.57611600   -0.30201200
H                  6.08442100   -0.98435300   -1.81686700
H                  5.05612700   -3.00369700   -0.73467700
H                  5.84570500   -2.59645400    0.77773700
H                  8.08940100   -2.83181100   -0.33332200
H                  7.29654500   -3.24620300   -1.84157500
H                  6.28575900   -5.27307000   -0.75109100
H                  7.08363100   -4.85922800    0.75481400
H                  9.32040800   -5.07870400   -0.37282100
H                  8.52001400   -5.49757600   -1.87554500
H                  7.52900200   -7.52937200   -0.78001200
H                  8.33339300   -7.11008300    0.72175400
H                 10.57224500   -7.32081300   -0.42033400
H                  9.76306600   -7.74824400   -1.92070100
H                  8.80134000   -9.78268000   -0.83231200
H                  9.62087900   -9.35025000    0.68296600
O                 10.87479600   -9.86099500   -0.89027400
C                 11.10626400  -11.18554200   -0.63095600
C                 10.23889200  -12.02342800    0.07488400
C                 12.30724900  -11.70704300   -1.12176700
C                 10.58270600  -13.36183300    0.28140300
H                  9.30160900  -11.65248900    0.46901000
C                 12.62585700  -13.04321000   -0.91142800
H                 12.97585600  -11.05045800   -1.66703300
C                 11.77443300  -13.90495400   -0.20591200
H                  9.89124200  -13.98860700    0.83572800
H                 13.56197000  -13.42945600   -1.30490000
C                 12.14816900  -15.36005800    0.01143800
C                 12.42621300  -15.68817800    1.50669000
H                 11.73657300  -15.12012600    2.13983600
H                 13.43244300  -15.33303900    1.75814000
C                 12.30004800  -17.19463500    1.83068300
H                 11.27744300  -17.42215400    2.15464500
H                 12.94764200  -17.45063800    2.67811700
C                 12.63735100  -18.06251100    0.61505300
H                 12.63071200  -19.12581900    0.88383800
H                 13.66359900  -17.84282900    0.29521900
C                 11.65594100  -17.80059400   -0.54839100
H                 10.81304600  -18.49823200   -0.48721300
H                 12.15711800  -18.01410300   -1.50029000
C                 11.11382700  -16.35197100   -0.56057000
H                 10.84086800  -16.06075700   -1.58079600
H                 10.19355300  -16.29140500    0.03191400
H                 13.07975900  -15.52741400   -0.54161700
$end

$rem
MAX_SCF_CYCLES=200
BASIS  =  6-311++G(d,p)
GUI  =  2
JOB_TYPE  =  SP
METHOD  =  B3LYP
THRESH      14
SCF_CONVERGENCE  = 5
SOLVENT_METHOD = sm12
$end

$smx
solvent dimethylformamide
charges CM5
$end

--------------------------------------------------------------

             Standard Nuclear Orientation (Angstroms)
    I     Atom           X                Y                Z
 ----------------------------------------------------------------
    1      C       0.0549120000     4.2381270000     0.7292850000
    2      C      -1.0535780000     4.2305720000    -0.0955310000
    3      C      -1.0370670000     3.4820230000    -1.2956470000
    4      C       1.2215430000     3.5068400000     0.3999200000
    5      C       1.2391720000     2.7449970000    -0.8185900000
    6      C       0.0951890000     2.7579630000    -1.6362590000
    7      C       2.3707700000     3.5217780000     1.2640630000
    8      C       3.4979540000     2.7433420000     0.8313730000
    9      C       3.5550010000     2.0017770000    -0.3386670000
   10      C       2.4160440000     1.9603230000    -1.2243570000
   11      O       2.4715280000     4.1660290000     2.3753600000
   12      O       2.4257280000     1.2863610000    -2.2996840000
   13      O       4.5566090000     2.8017720000     1.7020750000
   14      C       4.7892950000     1.2231650000    -0.7150740000
   15      C       4.7353020000    -0.2598430000    -0.2972200000
   16      C       5.9770060000    -1.0508550000    -0.7256720000
   17      C       5.9513120000    -2.5279260000    -0.3132380000
   18      C       7.1944580000    -3.3131790000    -0.7501770000
   19      C       7.1804780000    -4.7900750000    -0.3367520000
   20      C       8.4260230000    -5.5649030000    -0.7838590000
   21      C       8.4231550000    -7.0419790000    -0.3702320000
   22      C       9.6755010000    -7.7986280000    -0.8298500000
   23      C       9.6707950000    -9.2610270000    -0.4104330000
   24      H       0.0649290000     4.8047340000     1.6544880000
   25      H      -1.9392070000     4.7993400000     0.1775790000
   26      H      -1.9080510000     3.4745270000    -1.9456440000
   27      H       0.1371230000     2.1732380000    -2.5492680000
   28      H       4.1889520000     3.4010520000     2.3940900000
   29      H       5.6713480000     1.6886110000    -0.2613330000
   30      H       4.8975330000     1.2651770000    -1.8047520000
   31      H       3.8405330000    -0.7089690000    -0.7411710000
   32      H       4.6197880000    -0.3203730000     0.7919180000
   33      H       6.8733560000    -0.5761160000    -0.3020120000
   34      H       6.0844210000    -0.9843530000    -1.8168670000
   35      H       5.0561270000    -3.0036970000    -0.7346770000
   36      H       5.8457050000    -2.5964540000     0.7777370000
   37      H       8.0894010000    -2.8318110000    -0.3333220000
   38      H       7.2965450000    -3.2462030000    -1.8415750000
   39      H       6.2857590000    -5.2730700000    -0.7510910000
   40      H       7.0836310000    -4.8592280000     0.7548140000
   41      H       9.3204080000    -5.0787040000    -0.3728210000
   42      H       8.5200140000    -5.4975760000    -1.8755450000
   43      H       7.5290020000    -7.5293720000    -0.7800120000
   44      H       8.3333930000    -7.1100830000     0.7217540000
   45      H      10.5722450000    -7.3208130000    -0.4203340000
   46      H       9.7630660000    -7.7482440000    -1.9207010000
   47      H       8.8013400000    -9.7826800000    -0.8323120000
   48      H       9.6208790000    -9.3502500000     0.6829660000
   49      O      10.8747960000    -9.8609950000    -0.8902740000
   50      C      11.1062640000   -11.1855420000    -0.6309560000
   51      C      10.2388920000   -12.0234280000     0.0748840000
   52      C      12.3072490000   -11.7070430000    -1.1217670000
   53      C      10.5827060000   -13.3618330000     0.2814030000
   54      H       9.3016090000   -11.6524890000     0.4690100000
   55      C      12.6258570000   -13.0432100000    -0.9114280000
   56      H      12.9758560000   -11.0504580000    -1.6670330000
   57      C      11.7744330000   -13.9049540000    -0.2059120000
   58      H       9.8912420000   -13.9886070000     0.8357280000
   59      H      13.5619700000   -13.4294560000    -1.3049000000
   60      C      12.1481690000   -15.3600580000     0.0114380000
   61      C      12.4262130000   -15.6881780000     1.5066900000
   62      H      11.7365730000   -15.1201260000     2.1398360000
   63      H      13.4324430000   -15.3330390000     1.7581400000
   64      C      12.3000480000   -17.1946350000     1.8306830000
   65      H      11.2774430000   -17.4221540000     2.1546450000
   66      H      12.9476420000   -17.4506380000     2.6781170000
   67      C      12.6373510000   -18.0625110000     0.6150530000
   68      H      12.6307120000   -19.1258190000     0.8838380000
   69      H      13.6635990000   -17.8428290000     0.2952190000
   70      C      11.6559410000   -17.8005940000    -0.5483910000
   71      H      10.8130460000   -18.4982320000    -0.4872130000
   72      H      12.1571180000   -18.0141030000    -1.5002900000
   73      C      11.1138270000   -16.3519710000    -0.5605700000
   74      H      10.8408680000   -16.0607570000    -1.5807960000
   75      H      10.1935530000   -16.2914050000     0.0319140000
   76      H      13.0797590000   -15.5274140000    -0.5416170000
 ----------------------------------------------------------------

   10   -1544.8052410378      4.16e-06  Convergence criterion met
 Total energy in the final basis set =    -1545.1050578997

                    Orbital Energies (a.u.)
 --------------------------------------------------------------

 Alpha MOs
 -- Occupied --
-19.1498 -19.1198 -19.0295 -19.0231 -10.2353 -10.2210 -10.1867 -10.1826
-10.1779 -10.1772 -10.1766 -10.1761 -10.1755 -10.1725 -10.1708 -10.1707
-10.1658 -10.1654 -10.1651 -10.1648 -10.1648 -10.1646 -10.1643 -10.1639
-10.1638 -10.1638 -10.1634 -10.1633 -10.1626 -10.1619 -10.1616 -10.1600
-10.1574 -10.1463 -10.1438 -10.1341  -1.0643  -1.0342  -0.9484  -0.9394
 -0.8634  -0.8408  -0.8311  -0.8162  -0.8040  -0.7878  -0.7745  -0.7635
 -0.7530  -0.7443  -0.7391  -0.7384  -0.7240  -0.7081  -0.6863  -0.6575
 -0.6380  -0.6299  -0.6222  -0.6125  -0.6050  -0.5968  -0.5850  -0.5814
 -0.5769  -0.5752  -0.5685  -0.5487  -0.5383  -0.5272  -0.5175  -0.4970
 -0.4937  -0.4852  -0.4851  -0.4826  -0.4710  -0.4659  -0.4552  -0.4519
 -0.4453  -0.4404  -0.4370  -0.4327  -0.4309  -0.4287  -0.4232  -0.4221
 -0.4187  -0.4097  -0.4060  -0.3988  -0.3949  -0.3922  -0.3906  -0.3789
 -0.3775  -0.3766  -0.3737  -0.3674  -0.3662  -0.3619  -0.3609  -0.3593
 -0.3575  -0.3545  -0.3521  -0.3501  -0.3467  -0.3412  -0.3337  -0.3320
 -0.3274  -0.3257  -0.3248  -0.3239  -0.3222  -0.3196  -0.3179  -0.3137
 -0.3075  -0.3053  -0.3003  -0.2998  -0.2991  -0.2601  -0.2461  -0.2342
 -0.2218  -0.2152  -0.2017  -0.1985  -0.1112

          Ground-State Mulliken Net Atomic Charges

     Atom                 Charge (a.u.)
  ----------------------------------------
      1 C                    -0.237961
      2 C                     0.996356
      3 C                     1.114677
      4 C                    -1.989829
      5 C                    -1.994225
      6 C                    -0.534359
      7 C                    -2.081086
      8 C                    -0.255620
      9 C                     1.899403
     10 C                    -2.717304
     11 O                    -0.406756
     12 O                    -0.251215
     13 O                    -0.042238
     14 C                    -0.696216
     15 C                    -3.468782
     16 C                    -1.124432
     17 C                    -0.216778
     18 C                     1.082659
     19 C                     1.854719
     20 C                     1.265181
     21 C                     1.278316
     22 C                     0.700728
     23 C                    -0.130670
     24 H                     0.107012
     25 H                     0.372633
     26 H                     0.353125
     27 H                     0.066008
     28 H                     0.311835
     29 H                     0.185176
     30 H                     0.056548
     31 H                     0.013057
     32 H                     0.007423
     33 H                     0.249809
     34 H                     0.236127
     35 H                     0.141440
     36 H                     0.150224
     37 H                     0.103420
     38 H                     0.093607
     39 H                     0.109295
     40 H                     0.111973
     41 H                     0.117871
     42 H                     0.115711
     43 H                     0.118727
     44 H                     0.119845
     45 H                     0.132218
     46 H                     0.135280
     47 H                     0.226560
     48 H                     0.228740
     49 O                    -0.085240
     50 C                    -0.547961
     51 C                    -0.119961
     52 C                    -0.647875
     53 C                    -0.748578
     54 H                     0.258891
     55 C                    -0.411005
     56 H                     0.194606
     57 C                     0.902309
     58 H                     0.236874
     59 H                     0.232765
     60 C                     0.615249
     61 C                    -0.419003
     62 H                     0.135236
     63 H                     0.169136
     64 C                    -0.357504
     65 H                     0.113753
     66 H                     0.206989
     67 C                    -0.039948
     68 H                     0.232631
     69 H                     0.118790
     70 C                    -0.320852
     71 H                     0.174040
     72 H                     0.158190
     73 C                    -0.396988
     74 H                     0.162373
     75 H                     0.099815
     76 H                     0.175037
  ----------------------------------------
  Sum of atomic charges =    -2.000000

                    Cartesian Multipole Moments
 -----------------------------------------------------------------
    Charge (ESU x 10^10)
                -9.6064
    Dipole Moment (Debye)
         X     -21.6275      Y     -26.4660      Z       1.3718
       Tot      34.2064
    Quadrupole Moments (Debye-Ang)
        XX    -333.6017     XY     -27.0853     YY    -332.9300
        XZ       2.8083     YZ     -24.9358     ZZ    -270.6678

 Total job time:  5021.31s(wall), 25494.59s(cpu)
        *  Thank you very much for using Q-Chem.  Have a nice day.  *
