 Q-Chem 5.4, Q-Chem, Inc., Pleasanton, CA (2021)
 Q-Chem 5.4.0 for Intel X86 EM64T Linux

User input:
--------------------------------------------------------------
$molecule
-1 2
C                  2.8349970000     -0.4171460000      0.4159170000
O                  1.6564280000      0.2835640000      0.8041580000
C                  0.4685850000     -0.2981480000      0.4144920000
C                 -0.3687760000      0.4061670000     -0.4248090000
O                  0.0807380000      1.5925180000     -0.9649190000
C                 -0.6755860000      2.7477050000     -0.6126360000
C                 -1.6810400000     -0.1036140000     -0.8180920000
O                 -2.4432660000      0.5342690000     -1.6004740000
C                 -2.0329720000     -1.3895170000     -0.2638150000
C                 -1.1954200000     -2.0954960000      0.5584260000
C                  0.0999980000     -1.6022430000      0.9623790000
O                  0.8603030000     -2.2420200000      1.7451370000
H                  2.9209360000     -0.4466200000     -0.6787890000
H                  3.6759170000      0.1497760000      0.8228320000
H                  2.8364150000     -1.4308360000      0.8221310000
H                 -0.2160630000      3.5869650000     -1.1404700000
H                 -0.6157780000      2.9304900000      0.4688650000
H                 -1.7178110000      2.6388900000     -0.9201570000
H                 -3.0053180000     -1.7809860000     -0.5488870000
H                 -1.4822860000     -3.0637190000      0.9587110000
$end
$rem
MAX_SCF_CYCLES=200
BASIS  =  6-311++G(d,p)
GUI  =  2
JOB_TYPE  =  SP
METHOD  =  B3LYP
SOLVENT_METHOD = COSMO
$end
$solvent
dielectric 37.219
opticaldielectric 1.43
$end

--------------------------------------------------------------

             Standard Nuclear Orientation (Angstroms)
    I     Atom           X                Y                Z
 ----------------------------------------------------------------
    1      C      -2.3235481694     1.7862939856     0.6749060156
    2      O      -1.3217664021     1.4762131366    -0.2899948207
    3      C      -0.6808407793     0.2689889560    -0.1082709671
    4      C       0.6809515555     0.2692276215     0.1089404787
    5      O       1.3217371664     1.4764636077     0.2911091311
    6      C       2.3212821044     1.7877721544    -0.6756293111
    7      C       1.4477099979    -0.9694543998     0.2286623770
    8      O       2.6942116961    -0.9704629846     0.4436909559
    9      C       0.6780250147    -2.1843157865     0.1009028820
   10      C      -0.6767236769    -2.1845829106    -0.1006805358
   11      C      -1.4468702675    -0.9700915319    -0.2290131634
   12      O      -2.6933631105    -0.9717959894    -0.4442829396
   13      H      -1.8761052815     1.8910427601     1.6726324366
   14      H      -2.7505068581     2.7463826543     0.3748012938
   15      H      -3.1010841512     1.0195911879     0.6884654250
   16      H       2.7499204981     2.7468284973    -0.3746184718
   17      H       1.8713965029     1.8949502739    -1.6719964936
   18      H       3.0982463528     1.0205177799    -0.6926616843
   19      H       1.2352473924    -3.1125950090     0.1890599786
   20      H      -1.2335839329    -3.1130888385    -0.1887677535
 ----------------------------------------------------------------

    9    -610.7459614092      6.55e-06  Convergence criterion met
 Total energy in the final basis set =     -610.7459614092
    4    -610.8359309223      8.91e-06  Convergence criterion met
 Total energy in the final basis set =     -610.8359309223

                    Orbital Energies (a.u.)
 --------------------------------------------------------------

 Alpha MOs
 -- Occupied --
-19.1382 -19.1382 -19.0848 -19.0848 -10.2275 -10.2275 -10.2207 -10.2201
-10.2041 -10.2041 -10.1666 -10.1659  -1.0636  -1.0446  -1.0034  -1.0011
 -0.8244  -0.7535  -0.7088  -0.6724  -0.6704  -0.5919  -0.5740  -0.5128
 -0.4969  -0.4916  -0.4686  -0.4498  -0.4456  -0.4425  -0.4275  -0.4177
 -0.4022  -0.3888  -0.3838  -0.3762  -0.3499  -0.3493  -0.2944  -0.2917
 -0.2846  -0.2467  -0.2436  -0.2345  -0.1683

 Beta MOs
 -- Occupied --
-19.1381 -19.1380 -19.0780 -19.0780 -10.2259 -10.2259 -10.2199 -10.2193
-10.2041 -10.2041 -10.1653 -10.1647  -1.0626  -1.0434  -0.9918  -0.9895
 -0.8185  -0.7514  -0.7053  -0.6689  -0.6640  -0.5884  -0.5706  -0.5117
 -0.4951  -0.4878  -0.4653  -0.4474  -0.4440  -0.4411  -0.4258  -0.4110
 -0.3852  -0.3826  -0.3815  -0.3513  -0.3479  -0.3464  -0.2914  -0.2890
 -0.2548  -0.2403  -0.2383  -0.2275

          Ground-State Mulliken Net Atomic Charges

     Atom                 Charge (a.u.)    Spin (a.u.)
  --------------------------------------------------------
      1 C                    -0.285400       0.001094
      2 O                    -0.212721       0.000881
      3 C                     0.046670       0.065592
      4 C                     0.045408       0.065630
      5 O                    -0.212406       0.000848
      6 C                    -0.285492       0.001093
      7 C                    -0.157786       0.112225
      8 O                    -0.535578       0.238943
      9 C                    -0.053057       0.088363
     10 C                    -0.052573       0.088283
     11 C                    -0.158225       0.112286
     12 O                    -0.535665       0.238978
     13 H                     0.152328       0.000898
     14 H                     0.163799       0.000161
     15 H                     0.172687      -0.000144
     16 H                     0.163899       0.000169
     17 H                     0.152316       0.000895
     18 H                     0.172535      -0.000147
     19 H                     0.209623      -0.008028
     20 H                     0.209640      -0.008022
  --------------------------------------------------------
  Sum of atomic charges =    -1.000000

                    Cartesian Multipole Moments
 -----------------------------------------------------------------
    Charge (ESU x 10^10)
                -4.8032
    Dipole Moment (Debye)
         X      -0.0070      Y       3.2436      Z      -0.0006
       Tot       3.2436
    Quadrupole Moments (Debye-Ang)
        XX    -106.1840     XY      -0.0129     YY     -75.5764
        XZ     -12.0841     YZ      -0.0099     ZZ     -75.0505

 Total job time:  31.16s(wall), 220.97s(cpu)
        *  Thank you very much for using Q-Chem.  Have a nice day.  *
