 Gaussian 16, Revision A.03,
 Gaussian 16:  ES64L-G16RevA.03 25-Dec-2016

 --------------------------------------
 #P UB3LYP/6-311++G(d,p) nosym opt freq
 --------------------------------------

 -------
 Reduced
 -------
 Symbolic Z-matrix:
 Charge = -2 Multiplicity = 1

 SCF Done:  E(UB3LYP) =  -1279.30533123     A.U. after   28 cycles
 Optimization completed.
    -- Stationary point found.
 Normal termination of Gaussian 16 at Wed Jan 10 05:03:55 2024.

 ----------------------------------------------------------------------
 #P Geom=AllCheck Guess=TCheck SCRF=Check GenChk UB3LYP/6-311++G(d,p) F
 req
 ----------------------------------------------------------------------

 Structure from the checkpoint file:  "071-an.chk"
 -------
 Reduced
 -------
 Charge = -2 Multiplicity = 1

                          Input orientation:
 ---------------------------------------------------------------------
 Center     Atomic      Atomic             Coordinates (Angstroms)
 Number     Number       Type             X           Y           Z
 ---------------------------------------------------------------------
      1          6           0        1.235458    1.676506   -0.676190
      2          6           0        0.041829    1.260771    0.025800
      3          6           0       -0.317408   -0.074328    0.138016
      4          6           0        0.469145   -1.158282   -0.422470
      5          6           0        1.648745   -0.783854   -1.137632
      6          6           0        2.015218    0.595126   -1.223557
      7          8           0        1.566382    2.915953   -0.771507
      8          8           0        0.083203   -2.391707   -0.293060
      9         16           0        3.551996    1.124351   -1.955463
     10          6           0        4.445149    2.049620   -0.659951
     11          6           0        4.241948    3.421974   -0.476837
     12          6           0        5.348865    1.352628    0.143721
     13          6           0        6.058653    2.024045    1.137998
     14          6           0        4.959012    4.085756    0.520364
     15          6           0        5.864636    3.397629    1.329868
     16          8           0        3.387714    2.056771   -3.095808
     17          8           0        4.436978   -0.045152   -2.210223
     18          1           0        3.519713    3.925781   -1.101045
     19          1           0        5.489330    0.292561   -0.030335
     20          1           0        4.800433    5.150429    0.670847
     21          1           0        6.762518    1.478529    1.760806
     22          6           0       -1.584600   -0.470973    0.860156
     23          6           0       -0.796995    2.356789    0.641752
     24          1           0        6.411629    3.923321    2.108321
     25          1           0       -2.449904    0.121388    0.531989
     26          1           0       -1.501835   -0.328102    1.949348
     27          1           0       -1.765064   -1.531805    0.671426
     28          1           0       -1.782651    2.451922    0.158922
     29          1           0       -0.267860    3.304951    0.524351
     30          1           0       -0.989470    2.180968    1.710117
     31          6           0        2.378461   -1.919161   -1.817927
     32          1           0        1.704380   -2.779466   -1.803611
     33          1           0        3.304286   -2.203378   -1.300245
     34          1           0        2.669967   -1.677182   -2.843639
 ---------------------------------------------------------------------

 SCF Done:  E(UB3LYP) =  -1279.30533123     A.U. after    2 cycles

 Alpha  occ. eigenvalues --  -88.79301 -18.85609 -18.85522 -18.78908 -18.76960
 Alpha  occ. eigenvalues --   -9.98400  -9.98061  -9.97970  -9.97852  -9.97517
 Alpha  occ. eigenvalues --   -9.96563  -9.95204  -9.93200  -9.92608  -9.92433
 Alpha  occ. eigenvalues --   -9.92357  -9.90858  -9.90483  -9.90258  -9.89923
 Alpha  occ. eigenvalues --   -7.85589  -5.81893  -5.81799  -5.81644  -0.84444
 Alpha  occ. eigenvalues --   -0.73825  -0.70954  -0.68493  -0.65668  -0.56610
 Alpha  occ. eigenvalues --   -0.55655  -0.54751  -0.53088  -0.48064  -0.47202
 Alpha  occ. eigenvalues --   -0.44387  -0.40982  -0.40642  -0.37884  -0.36551
 Alpha  occ. eigenvalues --   -0.32618  -0.29908  -0.28416  -0.25534  -0.25450
 Alpha  occ. eigenvalues --   -0.24368  -0.23229  -0.22534  -0.22014  -0.19634
 Alpha  occ. eigenvalues --   -0.19300  -0.17919  -0.16915  -0.16768  -0.16281
 Alpha  occ. eigenvalues --   -0.15663  -0.15257  -0.14688  -0.14523  -0.13880
 Alpha  occ. eigenvalues --   -0.11836  -0.11433  -0.10759  -0.09488  -0.08089
 Alpha  occ. eigenvalues --   -0.07817  -0.06939  -0.06591  -0.05902  -0.05084
 Alpha  occ. eigenvalues --   -0.04520  -0.03393   0.01298   0.02456   0.03303
 Alpha  occ. eigenvalues --    0.05075   0.11764
 Alpha virt. eigenvalues --    0.13795   0.15762   0.16678   0.17267   0.17518
 Alpha virt. eigenvalues --    0.18672   0.18806   0.19369   0.19767   0.20844
 Alpha virt. eigenvalues --    0.21182   0.21663   0.22217   0.22564   0.23071

  Beta  occ. eigenvalues --  -88.79301 -18.85609 -18.85522 -18.78908 -18.76960
  Beta  occ. eigenvalues --   -9.98400  -9.98061  -9.97970  -9.97852  -9.97517
  Beta  occ. eigenvalues --   -9.96563  -9.95204  -9.93200  -9.92608  -9.92433
  Beta  occ. eigenvalues --   -9.92357  -9.90858  -9.90483  -9.90258  -9.89923
  Beta  occ. eigenvalues --   -7.85589  -5.81893  -5.81799  -5.81644  -0.84444
  Beta  occ. eigenvalues --   -0.73825  -0.70954  -0.68493  -0.65668  -0.56610
  Beta  occ. eigenvalues --   -0.55655  -0.54751  -0.53088  -0.48064  -0.47202
  Beta  occ. eigenvalues --   -0.44387  -0.40982  -0.40642  -0.37884  -0.36551
  Beta  occ. eigenvalues --   -0.32618  -0.29908  -0.28416  -0.25534  -0.25450
  Beta  occ. eigenvalues --   -0.24368  -0.23229  -0.22534  -0.22014  -0.19634
  Beta  occ. eigenvalues --   -0.19300  -0.17919  -0.16915  -0.16768  -0.16281
  Beta  occ. eigenvalues --   -0.15663  -0.15257  -0.14688  -0.14523  -0.13880
  Beta  occ. eigenvalues --   -0.11836  -0.11433  -0.10759  -0.09488  -0.08089
  Beta  occ. eigenvalues --   -0.07817  -0.06939  -0.06591  -0.05902  -0.05084
  Beta  occ. eigenvalues --   -0.04520  -0.03393   0.01298   0.02456   0.03303
  Beta  occ. eigenvalues --    0.05075   0.11764
  Beta virt. eigenvalues --    0.13795   0.15762   0.16678   0.17267   0.17518
  Beta virt. eigenvalues --    0.18672   0.18806   0.19369   0.19767   0.20844
  Beta virt. eigenvalues --    0.21182   0.21663   0.22217   0.22564   0.23071

 Mulliken charges and spin densities:
               1          2
     1  C   -0.911787  -0.000000
     2  C    0.594920   0.000000
     3  C    1.140418   0.000000
     4  C   -1.855525  -0.000000
     5  C    1.069961   0.000000
     6  C    0.422632   0.000000
     7  O   -0.420864   0.000000
     8  O   -0.530275   0.000000
     9  S   -0.165885  -0.000000
    10  C    0.202447  -0.000000
    11  C   -0.055090  -0.000000
    12  C    0.000307   0.000000
    13  C   -0.489949   0.000000
    14  C   -0.414764   0.000000
    15  C   -0.230173  -0.000000
    16  O   -0.151049   0.000000
    17  O   -0.220073   0.000000
    18  H    0.287738  -0.000000
    19  H    0.211745   0.000000
    20  H    0.124455  -0.000000
    21  H    0.111521   0.000000
    22  C   -0.574834   0.000000
    23  C   -0.659388  -0.000000
    24  H    0.095451  -0.000000
    25  H    0.088747   0.000000
    26  H    0.088245  -0.000000
    27  H    0.187246   0.000000
    28  H    0.085683  -0.000000
    29  H    0.171020   0.000000
    30  H    0.091561  -0.000000
    31  C   -0.700626  -0.000000
    32  H    0.164954   0.000000
    33  H    0.118352  -0.000000
    34  H    0.122880  -0.000000
 Sum of Mulliken charges =  -2.00000   0.00000

 Dipole moment (field-independent basis, Debye):
    X=            -18.0221    Y=             -4.3139    Z=              9.4534  Tot=             20.8032
 Quadrupole moment (field-independent basis, Debye-Ang):
   XX=           -218.1802   YY=           -191.4842   ZZ=           -165.0198
   XY=            -30.2276   XZ=             33.9653   YZ=              8.2092

  Exact polarizability: 431.359  86.405 312.841  23.032  38.725 223.447
 Approx polarizability: 640.412 115.183 526.624  19.712  41.811 340.776

                      1                      2                      3
                      A                      A                      A
 Frequencies --     28.1090                32.4985                61.9745
 Red. masses --      4.1581                 6.0817                 1.1867
 Frc consts  --      0.0019                 0.0038                 0.0027
 IR Inten    --      0.7818                 2.2079                 0.2802

                      4                      5                      6
                      A                      A                      A
 Frequencies --     69.9987                82.5130               105.0819
 Red. masses --      3.6545                 3.8204                 2.3936
 Frc consts  --      0.0106                 0.0153                 0.0156
 IR Inten    --      0.5566                 1.8112                 5.7304

                      7                      8                      9
                      A                      A                      A
 Frequencies --    114.7459               141.5036               161.8328
 Red. masses --      1.3126                 2.7123                 1.1764
 Frc consts  --      0.0102                 0.0320                 0.0182
 IR Inten    --      3.2116                 0.2270                 0.3543

                     10                     11                     12
                      A                      A                      A
 Frequencies --    170.6989               181.5106               198.0614
 Red. masses --      6.6219                 4.9444                 5.6129
 Frc consts  --      0.1137                 0.0960                 0.1297
 IR Inten    --      0.5336                 1.5622                 2.6843

                     13                     14                     15
                      A                      A                      A
 Frequencies --    220.7982               248.4083               268.2966
 Red. masses --      5.0730                 7.1286                 9.5780
 Frc consts  --      0.1457                 0.2592                 0.4062
 IR Inten    --      2.5062                 1.0599                 0.7751

                     16                     17                     18
                      A                      A                      A
 Frequencies --    296.0321               320.1845               331.1288
 Red. masses --      7.0089                 2.6027                 3.8637
 Frc consts  --      0.3619                 0.1572                 0.2496
 IR Inten    --      1.1824                 2.1450                 3.4408

                     19                     20                     21
                      A                      A                      A
 Frequencies --    336.6955               365.7316               370.9840
 Red. masses --      3.8518                 4.5695                 7.6254
 Frc consts  --      0.2573                 0.3601                 0.6183
 IR Inten    --      5.7779                 0.6192                 0.9772

                     22                     23                     24
                      A                      A                      A
 Frequencies --    401.5377               417.4066               422.8654
 Red. masses --      5.9512                 3.7087                 5.3950
 Frc consts  --      0.5653                 0.3807                 0.5684
 IR Inten    --      6.3307                 0.4775                 1.4657

                     25                     26                     27
                      A                      A                      A
 Frequencies --    446.7420               453.8372               502.0126
 Red. masses --      6.0292                 5.0074                 6.2040
 Frc consts  --      0.7090                 0.6077                 0.9212
 IR Inten    --     38.2734                 1.3141                15.2981

                     28                     29                     30
                      A                      A                      A
 Frequencies --    513.5659               548.4776               568.9574
 Red. masses --      6.4105                 6.7108                 6.7668
 Frc consts  --      0.9962                 1.1894                 1.2906
 IR Inten    --     13.4925                52.5280                21.2332

                     31                     32                     33
                      A                      A                      A
 Frequencies --    596.7645               626.7746               681.4904
 Red. masses --      5.9458                 6.3883                 1.7087
 Frc consts  --      1.2476                 1.4786                 0.4676
 IR Inten    --     62.3617                 2.4704                26.7007

                     34                     35                     36
                      A                      A                      A
 Frequencies --    689.6989               700.0876               712.8823
 Red. masses --      3.5967                 5.2262                 6.4005
 Frc consts  --      1.0080                 1.5092                 1.9165
 IR Inten    --      8.7115                 6.8560                12.9298

                     37                     38                     39
                      A                      A                      A
 Frequencies --    735.7391               758.4474               775.8435
 Red. masses --      2.2198                 6.2938                 6.6889
 Frc consts  --      0.7080                 2.1331                 2.3722
 IR Inten    --      3.0901                 1.1324                36.6493

                     40                     41                     42
                      A                      A                      A
 Frequencies --    810.7647               876.7841               890.1551
 Red. masses --      1.2561                 1.4045                 2.4461
 Frc consts  --      0.4865                 0.6362                 1.1420
 IR Inten    --      7.1254                11.3326                20.0675

                     43                     44                     45
                      A                      A                      A
 Frequencies --    942.7171               947.8400               956.6790
 Red. masses --      1.5770                 1.8414                 1.3232
 Frc consts  --      0.8257                 0.9747                 0.7135
 IR Inten    --      6.0420                 7.6891                 0.4305

                     46                     47                     48
                      A                      A                      A
 Frequencies --   1003.6482              1006.0834              1023.4155
 Red. masses --      2.6079                 4.7169                 1.4645
 Frc consts  --      1.5478                 2.8130                 0.9037
 IR Inten    --     30.3748                79.1675                 9.0033

                     49                     50                     51
                      A                      A                      A
 Frequencies --   1029.9801              1039.2343              1043.7933
 Red. masses --      5.4784                 2.0537                 2.1141
 Frc consts  --      3.4242                 1.3068                 1.3571
 IR Inten    --    131.2589                58.4251                46.8682

                     52                     53                     54
                      A                      A                      A
 Frequencies --   1044.4810              1053.9396              1082.0590
 Red. masses --      1.6926                 1.4994                 2.7646
 Frc consts  --      1.0880                 0.9813                 1.9071
 IR Inten    --     18.8536                 1.7326               129.3101

                     55                     56                     57
                      A                      A                      A
 Frequencies --   1083.7161              1097.3870              1125.0185
 Red. masses --      1.7971                 2.7925                 5.1456
 Frc consts  --      1.2435                 1.9813                 3.8371
 IR Inten    --     39.8231                29.9920                47.7733

                     58                     59                     60
                      A                      A                      A
 Frequencies --   1163.4277              1177.1654              1183.1193
 Red. masses --      1.1240                 4.0920                 1.4506
 Frc consts  --      0.8964                 3.3409                 1.1964
 IR Inten    --      9.0804                97.2778                27.0270

                     61                     62                     63
                      A                      A                      A
 Frequencies --   1197.8506              1260.8160              1325.1520
 Red. masses --      6.4788                 4.1037                 1.5268
 Frc consts  --      5.4771                 3.8435                 1.5796
 IR Inten    --    145.8799                69.8693                16.9907

                     64                     65                     66
                      A                      A                      A
 Frequencies --   1338.8204              1344.6036              1346.9649
 Red. masses --      2.4763                 3.0219                 2.0071
 Frc consts  --      2.6151                 3.2189                 2.1455
 IR Inten    --     31.5102                 5.7263               199.4626

                     67                     68                     69
                      A                      A                      A
 Frequencies --   1367.6236              1381.0099              1426.9809
 Red. masses --      1.6497                 1.5772                 3.5257
 Frc consts  --      1.8180                 1.7722                 4.2299
 IR Inten    --     53.5667                54.5259               484.4332

                     70                     71                     72
                      A                      A                      A
 Frequencies --   1435.6267              1452.1168              1458.4521
 Red. masses --      2.1994                 4.2791                 2.1847
 Frc consts  --      2.6708                 5.3162                 2.7379
 IR Inten    --     12.0474               196.5410                33.3823

                     73                     74                     75
                      A                      A                      A
 Frequencies --   1464.5955              1472.3053              1484.2621
 Red. masses --      1.0608                 1.1367                 1.5866
 Frc consts  --      1.3407                 1.4517                 2.0594
 IR Inten    --      8.0056                12.8887                 8.1882

                     76                     77                     78
                      A                      A                      A
 Frequencies --   1487.5023              1493.7417              1497.6912
 Red. masses --      1.0726                 2.0075                 1.0963
 Frc consts  --      1.3983                 2.6391                 1.4488
 IR Inten    --      8.3908                 9.0196                16.4410

                     79                     80                     81
                      A                      A                      A
 Frequencies --   1503.7934              1572.4935              1593.2948
 Red. masses --      1.0719                 6.1207                 5.5015
 Frc consts  --      1.4282                 8.9172                 8.2285
 IR Inten    --      8.3960               474.5919                36.7797

                     82                     83                     84
                      A                      A                      A
 Frequencies --   1600.5469              2943.0525              2947.9155
 Red. masses --      5.8792                 1.0518                 1.0531
 Frc consts  --      8.8736                 5.3676                 5.3922
 IR Inten    --     16.5726               175.7363               285.6113

                     85                     86                     87
                      A                      A                      A
 Frequencies --   2972.2477              2978.7274              2985.4561
 Red. masses --      1.0862                 1.0530                 1.0844
 Frc consts  --      5.6535                 5.5047                 5.6947
 IR Inten    --    123.4570               145.3252               139.7803

                     88                     89                     90
                      A                      A                      A
 Frequencies --   3031.9600              3079.1157              3079.6632
 Red. masses --      1.0776                 1.0973                 1.0989
 Frc consts  --      5.8365                 6.1293                 6.1405
 IR Inten    --    110.3855                 1.5317                25.8200

                     91                     92                     93
                      A                      A                      A
 Frequencies --   3083.4656              3117.3381              3133.9141
 Red. masses --      1.0918                 1.0829                 1.0889
 Frc consts  --      6.1159                 6.2000                 6.3013
 IR Inten    --     10.6061                 4.6069                68.8636

                     94                     95                     96
                      A                      A                      A
 Frequencies --   3148.8772              3189.2443              3235.2704
 Red. masses --      1.0952                 1.0915                 1.0917
 Frc consts  --      6.3981                 6.5408                 6.7326
 IR Inten    --    122.7531                17.0436                 2.3858

 - Thermochemistry -
 -------------------
 Temperature   298.150 Kelvin.  Pressure   1.00000 Atm.
 Atom     1 has atomic number  6 and mass  12.00000

 Molecular mass:   290.06128 amu.
 Principal axes and moments of inertia in atomic units:
                           1         2         3
     Eigenvalues --  3575.824867596.464918950.36087
           X            0.85497  -0.43147   0.28785
           Y            0.51866   0.71624  -0.46689
           Z           -0.00472   0.54847   0.83615
 This molecule is an asymmetric top.
 Rotational symmetry number  1.
 Warning -- assumption of classical behavior for rotation
           may cause significant error
 Rotational temperatures (Kelvin)      0.02422     0.01140     0.00968
 Rotational constants (GHZ):           0.50471     0.23758     0.20164
 Zero-point vibrational energy     661976.4 (Joules/Mol)
                                  158.21617 (Kcal/Mol)
 Warning -- explicit consideration of  31 degrees of freedom as
           vibrations may cause significant error
 Vibrational temperatures:     40.44    46.76    89.17   100.71   118.72
          (Kelvin)            151.19   165.09   203.59   232.84   245.60
                              261.15   284.97   317.68   357.40   386.02
                              425.92   460.67   476.42   484.43   526.21
                              533.76   577.72   600.55   608.41   642.76
                              652.97   722.28   738.91   789.14   818.60
                              858.61   901.79   980.51   992.32  1007.27
                             1025.68  1058.56  1091.24  1116.27  1166.51
                             1261.50  1280.73  1356.36  1363.73  1376.45
                             1444.03  1447.53  1472.47  1481.91  1495.23
                             1501.79  1502.78  1516.38  1556.84  1559.23
                             1578.90  1618.65  1673.91  1693.68  1702.24
                             1723.44  1814.03  1906.60  1926.26  1934.58
                             1937.98  1967.71  1986.97  2053.11  2065.55
                             2089.27  2098.39  2107.23  2118.32  2135.52
                             2140.18  2149.16  2154.84  2163.62  2262.47
                             2292.40  2302.83  4234.40  4241.39  4276.40
                             4285.72  4295.41  4362.31  4430.16  4430.95
                             4436.42  4485.15  4509.00  4530.53  4588.61
                             4654.83

 Zero-point correction=                           0.252134 (Hartree/Particle)
 Thermal correction to Energy=                    0.271471
 Thermal correction to Enthalpy=                  0.272415
 Thermal correction to Gibbs Free Energy=         0.204004
 Sum of electronic and zero-point Energies=          -1279.053198
 Sum of electronic and thermal Energies=             -1279.033860
 Sum of electronic and thermal Enthalpies=           -1279.032916
 Sum of electronic and thermal Free Energies=        -1279.101328

                     E (Thermal)             CV                S
                      KCal/Mol        Cal/Mol-Kelvin    Cal/Mol-Kelvin
 Total                  170.351             73.055            143.984
 Electronic               0.000              0.000              0.000
 Translational            0.889              2.981             42.892
 Rotational               0.889              2.981             33.852
 Vibrational            168.573             67.093             67.240
 Vibration     1          0.593              1.984              5.959
 Vibration     2          0.594              1.983              5.671
 Vibration     3          0.597              1.972              4.393
 Vibration     4          0.598              1.968              4.153
 Vibration     5          0.600              1.961              3.830
 Vibration     6          0.605              1.945              3.358
 Vibration     7          0.608              1.937              3.187
 Vibration     8          0.615              1.912              2.783
 Vibration     9          0.622              1.889              2.528
 Vibration    10          0.626              1.879              2.428
 Vibration    11          0.630              1.865              2.313
 Vibration    12          0.637              1.843              2.151
 Vibration    13          0.648              1.809              1.953
 Vibration    14          0.662              1.765              1.742
 Vibration    15          0.673              1.731              1.607
 Vibration    16          0.690              1.681              1.439
 Vibration    17          0.706              1.635              1.309
 Vibration    18          0.713              1.613              1.255
 Vibration    19          0.717              1.602              1.228
 Vibration    20          0.739              1.543              1.098
 Vibration    21          0.743              1.532              1.076
 Vibration    22          0.767              1.467              0.957
 Vibration    23          0.780              1.432              0.901
 Vibration    24          0.785              1.421              0.882
 Vibration    25          0.806              1.368              0.806
 Vibration    26          0.812              1.352              0.784
 Vibration    27          0.857              1.246              0.653
 Vibration    28          0.869              1.220              0.625
 Vibration    29          0.904              1.143              0.547
 Vibration    30          0.925              1.098              0.506
 Vibration    31          0.955              1.039              0.455

 Optimization completed.
    -- Stationary point found.
 Normal termination of Gaussian 16 at Wed Jan 10 06:44:42 2024.
