 Q-Chem 5.4, Q-Chem, Inc., Pleasanton, CA (2021)
 Q-Chem 5.4.0 for Intel X86 EM64T Linux

User input:
--------------------------------------------------------------
$molecule
-2 1
C                  1.2354580000      1.6765060000     -0.6761900000
C                  0.0418290000      1.2607710000      0.0258000000
C                 -0.3174080000     -0.0743280000      0.1380160000
C                  0.4691450000     -1.1582820000     -0.4224700000
C                  1.6487450000     -0.7838540000     -1.1376320000
C                  2.0152180000      0.5951260000     -1.2235570000
O                  1.5663820000      2.9159530000     -0.7715070000
O                  0.0832030000     -2.3917070000     -0.2930600000
S                  3.5519960000      1.1243510000     -1.9554630000
C                  4.4451490000      2.0496200000     -0.6599510000
C                  4.2419480000      3.4219740000     -0.4768370000
C                  5.3488650000      1.3526280000      0.1437210000
C                  6.0586530000      2.0240450000      1.1379980000
C                  4.9590120000      4.0857560000      0.5203640000
C                  5.8646360000      3.3976290000      1.3298680000
O                  3.3877140000      2.0567710000     -3.0958080000
O                  4.4369780000     -0.0451520000     -2.2102230000
H                  3.5197130000      3.9257810000     -1.1010450000
H                  5.4893300000      0.2925610000     -0.0303350000
H                  4.8004330000      5.1504290000      0.6708470000
H                  6.7625180000      1.4785290000      1.7608060000
C                 -1.5846000000     -0.4709730000      0.8601560000
C                 -0.7969950000      2.3567890000      0.6417520000
H                  6.4116290000      3.9233210000      2.1083210000
H                 -2.4499040000      0.1213880000      0.5319890000
H                 -1.5018350000     -0.3281020000      1.9493480000
H                 -1.7650640000     -1.5318050000      0.6714260000
H                 -1.7826510000      2.4519220000      0.1589220000
H                 -0.2678600000      3.3049510000      0.5243510000
H                 -0.9894700000      2.1809680000      1.7101170000
C                  2.3784610000     -1.9191610000     -1.8179270000
H                  1.7043800000     -2.7794660000     -1.8036110000
H                  3.3042860000     -2.2033780000     -1.3002450000
H                  2.6699670000     -1.6771820000     -2.8436390000
$end
$rem
MAX_SCF_CYCLES=200
BASIS  =  6-311++G(d,p)
GUI  =  2
JOB_TYPE  =  SP
METHOD  =  B3LYP
SOLVENT_METHOD = PCM
$end
$pcm
theory = CPCM
$end
$solvent
dielectric 37.219
opticaldielectric 1.43
$end

--------------------------------------------------------------

             Standard Nuclear Orientation (Angstroms)
    I     Atom           X                Y                Z
 ----------------------------------------------------------------
    1      C       1.2354580000     1.6765060000    -0.6761900000
    2      C       0.0418290000     1.2607710000     0.0258000000
    3      C      -0.3174080000    -0.0743280000     0.1380160000
    4      C       0.4691450000    -1.1582820000    -0.4224700000
    5      C       1.6487450000    -0.7838540000    -1.1376320000
    6      C       2.0152180000     0.5951260000    -1.2235570000
    7      O       1.5663820000     2.9159530000    -0.7715070000
    8      O       0.0832030000    -2.3917070000    -0.2930600000
    9      S       3.5519960000     1.1243510000    -1.9554630000
   10      C       4.4451490000     2.0496200000    -0.6599510000
   11      C       4.2419480000     3.4219740000    -0.4768370000
   12      C       5.3488650000     1.3526280000     0.1437210000
   13      C       6.0586530000     2.0240450000     1.1379980000
   14      C       4.9590120000     4.0857560000     0.5203640000
   15      C       5.8646360000     3.3976290000     1.3298680000
   16      O       3.3877140000     2.0567710000    -3.0958080000
   17      O       4.4369780000    -0.0451520000    -2.2102230000
   18      H       3.5197130000     3.9257810000    -1.1010450000
   19      H       5.4893300000     0.2925610000    -0.0303350000
   20      H       4.8004330000     5.1504290000     0.6708470000
   21      H       6.7625180000     1.4785290000     1.7608060000
   22      C      -1.5846000000    -0.4709730000     0.8601560000
   23      C      -0.7969950000     2.3567890000     0.6417520000
   24      H       6.4116290000     3.9233210000     2.1083210000
   25      H      -2.4499040000     0.1213880000     0.5319890000
   26      H      -1.5018350000    -0.3281020000     1.9493480000
   27      H      -1.7650640000    -1.5318050000     0.6714260000
   28      H      -1.7826510000     2.4519220000     0.1589220000
   29      H      -0.2678600000     3.3049510000     0.5243510000
   30      H      -0.9894700000     2.1809680000     1.7101170000
   31      C       2.3784610000    -1.9191610000    -1.8179270000
   32      H       1.7043800000    -2.7794660000    -1.8036110000
   33      H       3.3042860000    -2.2033780000    -1.3002450000
   34      H       2.6699670000    -1.6771820000    -2.8436390000
 ----------------------------------------------------------------

    9   -1279.5720377129      5.77e-06  Convergence criterion met
 Total energy in the final basis set =    -1279.5720377129

                    Orbital Energies (a.u.)
 --------------------------------------------------------------

 Alpha MOs
 -- Occupied --
-89.0294 -19.0984 -19.0931 -19.0277 -19.0160 -10.1949 -10.1889 -10.1794
-10.1770 -10.1753 -10.1750 -10.1738 -10.1710 -10.1608 -10.1414 -10.1400
-10.1383 -10.1369 -10.1355 -10.1323  -8.0928  -6.0560  -6.0547  -6.0533
 -1.0846  -0.9794  -0.9503  -0.9320  -0.8603  -0.8003  -0.7703  -0.7557
 -0.7484  -0.7058  -0.6998  -0.6691  -0.6257  -0.6113  -0.6073  -0.5826
 -0.5404  -0.5201  -0.5136  -0.4755  -0.4679  -0.4599  -0.4559  -0.4416
 -0.4334  -0.4241  -0.4113  -0.4062  -0.3883  -0.3858  -0.3774  -0.3741
 -0.3732  -0.3674  -0.3648  -0.3593  -0.3466  -0.3435  -0.3426  -0.3288
 -0.3159  -0.3152  -0.3119  -0.3058  -0.2879  -0.2758  -0.2605  -0.2567
 -0.2314  -0.2085  -0.2077  -0.1955  -0.1262

          Ground-State Mulliken Net Atomic Charges

     Atom                 Charge (a.u.)
  ----------------------------------------
      1 C                    -0.752751
      2 C                     0.389491
      3 C                     0.833923
      4 C                    -1.365981
      5 C                     0.729633
      6 C                     0.244058
      7 O                    -0.573501
      8 O                    -0.707836
      9 S                     0.047934
     10 C                     0.000182
     11 C                    -0.054126
     12 C                     0.138171
     13 C                    -0.502333
     14 C                    -0.422761
     15 C                    -0.299322
     16 O                    -0.261612
     17 O                    -0.293759
     18 H                     0.268485
     19 H                     0.239743
     20 H                     0.215771
     21 H                     0.216925
     22 C                    -0.503834
     23 C                    -0.570849
     24 H                     0.198710
     25 H                     0.140145
     26 H                     0.157406
     27 H                     0.168494
     28 H                     0.152630
     29 H                     0.160135
     30 H                     0.143208
     31 C                    -0.597396
     32 H                     0.154206
     33 H                     0.157487
     34 H                     0.149324
  ----------------------------------------
  Sum of atomic charges =    -2.000000

                    Cartesian Multipole Moments
 -----------------------------------------------------------------
    Charge (ESU x 10^10)
                -9.6064
    Dipole Moment (Debye)
         X     -15.2061      Y      -1.6036      Z      13.0420
       Tot      20.0970
    Quadrupole Moments (Debye-Ang)
        XX    -180.9539     XY     -17.3149     YY    -182.7406
        XZ      44.8730     YZ      16.7822     ZZ    -162.7642

 Total job time:  99.30s(wall), 591.69s(cpu)
        *  Thank you very much for using Q-Chem.  Have a nice day.  *
