 Gaussian 16, Revision A.03,
 Gaussian 16:  ES64L-G16RevA.03 25-Dec-2016

 --------------------------------------
 #P UB3LYP/6-311++G(d,p) nosym opt freq
 --------------------------------------

 -------
 Reduced
 -------
 Symbolic Z-matrix:
 Charge = -2 Multiplicity = 1

 SCF Done:  E(UB3LYP) =  -613.848275295     A.U. after   55 cycles
 SCF Done:  E(UB3LYP) =  -613.876825823     A.U. after   36 cycles
 SCF Done:  E(UB3LYP) =  -613.882120859     A.U. after   32 cycles
 SCF Done:  E(UB3LYP) =  -613.882387007     A.U. after   30 cycles
 SCF Done:  E(UB3LYP) =  -613.882394686     A.U. after   29 cycles
 SCF Done:  E(UB3LYP) =  -613.882515949     A.U. after   29 cycles
 SCF Done:  E(UB3LYP) =  -613.882561723     A.U. after   32 cycles
 SCF Done:  E(UB3LYP) =  -613.882619469     A.U. after   30 cycles
 SCF Done:  E(UB3LYP) =  -613.882727243     A.U. after   32 cycles
 SCF Done:  E(UB3LYP) =  -613.882764794     A.U. after   31 cycles
 SCF Done:  E(UB3LYP) =  -613.882823472     A.U. after   30 cycles
 SCF Done:  E(UB3LYP) =  -613.882839840     A.U. after   30 cycles
 SCF Done:  E(UB3LYP) =  -613.882842377     A.U. after   27 cycles
 SCF Done:  E(UB3LYP) =  -613.882844662     A.U. after   27 cycles
 SCF Done:  E(UB3LYP) =  -613.882847061     A.U. after   26 cycles
 SCF Done:  E(UB3LYP) =  -613.882849102     A.U. after   31 cycles
 SCF Done:  E(UB3LYP) =  -613.882849390     A.U. after   26 cycles
 SCF Done:  E(UB3LYP) =  -613.882849478     A.U. after   24 cycles
 Optimization completed.
    -- Stationary point found.
 Normal termination of Gaussian 16 at Tue Dec 26 22:14:07 2023.

 ----------------------------------------------------------------------
 #P Geom=AllCheck Guess=TCheck SCRF=Check GenChk UB3LYP/6-311++G(d,p) F
 req
 ----------------------------------------------------------------------

 Structure from the checkpoint file:  "241-an.chk"
 -------
 Reduced
 -------
 Charge = -2 Multiplicity = 1

                          Input orientation:
 ---------------------------------------------------------------------
 Center     Atomic      Atomic             Coordinates (Angstroms)
 Number     Number       Type             X           Y           Z
 ---------------------------------------------------------------------
      1          6           0       -2.400239    1.906390   -0.018259
      2          6           0       -1.241749    0.935844   -0.002782
      3          6           0       -1.480502   -0.456535    0.132224
      4          6           0       -2.893824   -0.974113    0.269671
      5          6           0       -0.437492   -1.432816    0.146122
      6          8           0       -0.649958   -2.705373    0.266503
      7          6           0        0.908070   -0.889045    0.019973
      8          6           0        2.022658   -1.760966    0.039319
      9          6           0        3.321554   -1.300709   -0.086923
     10          6           0        3.559016    0.089087   -0.239677
     11          6           0        2.489022    0.966488   -0.253496
     12          6           0        1.150770    0.526490   -0.117728
     13          6           0        0.065572    1.498273   -0.128497
     14          8           0        0.289379    2.768801   -0.249646
     15          1           0       -3.129445    1.679795   -0.812580
     16          1           0       -2.967849    1.905535    0.927279
     17          1           0       -2.000569    2.910604   -0.180251
     18          1           0       -2.847509   -2.056714    0.412021
     19          1           0       -3.510875   -0.766009   -0.620406
     20          1           0       -3.426445   -0.524054    1.122735
     21          1           0        1.806290   -2.818588    0.156780
     22          1           0        4.158962   -1.997939   -0.072422
     23          1           0        4.578830    0.459279   -0.342285
     24          1           0        2.636331    2.036273   -0.367676
 ---------------------------------------------------------------------

 SCF Done:  E(UB3LYP) =  -613.882849478     A.U. after    2 cycles

 Alpha  occ. eigenvalues --  -18.76499 -18.76498  -9.92231  -9.92230  -9.91476
 Alpha  occ. eigenvalues --   -9.91431  -9.91093  -9.91092  -9.90600  -9.90599
 Alpha  occ. eigenvalues --   -9.89221  -9.89182  -9.88634  -9.88588  -0.67983
 Alpha  occ. eigenvalues --   -0.67570  -0.58254  -0.53928  -0.48728  -0.48020
 Alpha  occ. eigenvalues --   -0.46581  -0.40983  -0.38065  -0.33094  -0.31866
 Alpha  occ. eigenvalues --   -0.27767  -0.23998  -0.22341  -0.19025  -0.18565
 Alpha  occ. eigenvalues --   -0.17773  -0.15829  -0.14736  -0.13743  -0.13255
 Alpha  occ. eigenvalues --   -0.13019  -0.11775  -0.11652  -0.10042  -0.08908
 Alpha  occ. eigenvalues --   -0.06747  -0.06553  -0.06046  -0.05355   0.01514
 Alpha  occ. eigenvalues --    0.02750   0.04156   0.05345   0.06122   0.14235
 Alpha virt. eigenvalues --    0.15847   0.17288   0.17869   0.19094   0.20516
 Alpha virt. eigenvalues --    0.20952   0.22040   0.22306   0.22784   0.23566
 Alpha virt. eigenvalues --    0.24515   0.24985   0.25044   0.26663   0.28119

  Beta  occ. eigenvalues --  -18.76499 -18.76498  -9.92231  -9.92230  -9.91476
  Beta  occ. eigenvalues --   -9.91431  -9.91093  -9.91092  -9.90600  -9.90599
  Beta  occ. eigenvalues --   -9.89221  -9.89182  -9.88634  -9.88588  -0.67983
  Beta  occ. eigenvalues --   -0.67570  -0.58254  -0.53928  -0.48728  -0.48020
  Beta  occ. eigenvalues --   -0.46581  -0.40983  -0.38065  -0.33094  -0.31866
  Beta  occ. eigenvalues --   -0.27767  -0.23998  -0.22341  -0.19025  -0.18565
  Beta  occ. eigenvalues --   -0.17773  -0.15829  -0.14736  -0.13743  -0.13255
  Beta  occ. eigenvalues --   -0.13019  -0.11775  -0.11652  -0.10042  -0.08908
  Beta  occ. eigenvalues --   -0.06747  -0.06553  -0.06046  -0.05355   0.01514
  Beta  occ. eigenvalues --    0.02750   0.04156   0.05345   0.06122   0.14235
  Beta virt. eigenvalues --    0.15847   0.17288   0.17869   0.19094   0.20516
  Beta virt. eigenvalues --    0.20952   0.22040   0.22306   0.22784   0.23566
  Beta virt. eigenvalues --    0.24515   0.24985   0.25044   0.26663   0.28119

 Mulliken charges and spin densities:
               1          2
     1  C   -0.589218   0.000000
     2  C    1.035689   0.000000
     3  C    1.037036   0.000000
     4  C   -0.589642  -0.000000
     5  C   -1.500116  -0.000000
     6  O   -0.532629  -0.000000
     7  C    0.884295  -0.000000
     8  C   -0.669072   0.000000
     9  C    0.375324   0.000000
    10  C    0.375739   0.000000
    11  C   -0.668540  -0.000000
    12  C    0.882216   0.000000
    13  C   -1.499115  -0.000000
    14  O   -0.532621  -0.000000
    15  H    0.075830  -0.000000
    16  H    0.072978  -0.000000
    17  H    0.178638   0.000000
    18  H    0.178589   0.000000
    19  H    0.072973  -0.000000
    20  H    0.075833  -0.000000
    21  H    0.173125   0.000000
    22  H   -0.505271   0.000000
    23  H   -0.505132  -0.000000
    24  H    0.173092   0.000000
 Sum of Mulliken charges =  -2.00000   0.00000

 Dipole moment (field-independent basis, Debye):
    X=             -6.1301    Y=              1.0799    Z=              0.2918  Tot=              6.2314
 Quadrupole moment (field-independent basis, Debye-Ang):
   XX=           -155.7125   YY=           -149.1683   ZZ=            -98.9469
   XY=              1.4899   XZ=              3.6759   YZ=              5.4653

  Exact polarizability:1890.450-239.042 903.995-102.234-168.046 188.745
 Approx polarizability:3449.915-515.155 633.786-165.353 -39.968 211.652

                      1                      2                      3
                      A                      A                      A
 Frequencies --     58.1954                78.5986               114.5590
 Red. masses --      1.0632                 5.2340                 2.9292
 Frc consts  --      0.0021                 0.0191                 0.0226
 IR Inten    --      7.8188                 4.2810                 5.3622

                      4                      5                      6
                      A                      A                      A
 Frequencies --    135.0565               149.9749               182.7993
 Red. masses --      1.0915                 3.8741                 4.5145
 Frc consts  --      0.0117                 0.0513                 0.0889
 IR Inten    --      4.3188                 2.8879                 7.4658

                      7                      8                      9
                      A                      A                      A
 Frequencies --    253.4615               290.2194               312.2117
 Red. masses --      4.3286                 3.8876                 2.6074
 Frc consts  --      0.1638                 0.1929                 0.1497
 IR Inten    --      3.6913                 6.5029                 7.9897

                     10                     11                     12
                      A                      A                      A
 Frequencies --    335.8193               370.4081               392.5902
 Red. masses --      4.0635                 9.2403                 6.9933
 Frc consts  --      0.2700                 0.7470                 0.6351
 IR Inten    --      0.2940               151.2314                57.5209

                     13                     14                     15
                      A                      A                      A
 Frequencies --    414.0812               430.6199               456.7967
 Red. masses --      7.1217                 5.7769                 3.2084
 Frc consts  --      0.7195                 0.6311                 0.3944
 IR Inten    --   1071.2350                26.9148                16.7790

                     16                     17                     18
                      A                      A                      A
 Frequencies --    503.5817               514.5190               604.0797
 Red. masses --      7.5018                 4.1838                 5.1947
 Frc consts  --      1.1209                 0.6526                 1.1169
 IR Inten    --    650.0611                 9.7673                 1.7276

                     19                     20                     21
                      A                      A                      A
 Frequencies --    664.0023               671.2350               676.4291
 Red. masses --      6.0213                 5.1027                 4.5654
 Frc consts  --      1.5642                 1.3546                 1.2308
 IR Inten    --      6.0190                27.9184                21.1907

                     22                     23                     24
                      A                      A                      A
 Frequencies --    706.1235               789.1558               810.2745
 Red. masses --      3.2767                 2.6290                 1.6047
 Frc consts  --      0.9626                 0.9647                 0.6207
 IR Inten    --      2.4984                 3.1882                94.2573

                     25                     26                     27
                      A                      A                      A
 Frequencies --    827.7342               839.7907               890.3826
 Red. masses --      3.4461                 1.9491                 3.5135
 Frc consts  --      1.3911                 0.8099                 1.6411
 IR Inten    --     83.0880                 5.9364                77.2490

                     28                     29                     30
                      A                      A                      A
 Frequencies --    961.8136               974.5337               983.8041
 Red. masses --      1.2130                 1.4544                 3.1374
 Frc consts  --      0.6611                 0.8138                 1.7891
 IR Inten    --      3.4339               177.2094                 7.4398

                     31                     32                     33
                      A                      A                      A
 Frequencies --    995.2615              1015.4468              1025.4148
 Red. masses --      1.7820                 1.9650                 1.3986
 Frc consts  --      1.0400                 1.1938                 0.8664
 IR Inten    --     52.9620               357.0229                 2.7854

                     34                     35                     36
                      A                      A                      A
 Frequencies --   1044.3883              1091.6247              1095.8264
 Red. masses --      1.5036                 2.3426                 2.1729
 Frc consts  --      0.9663                 1.6447                 1.5373
 IR Inten    --      3.0389                21.2224                23.2349

                     37                     38                     39
                      A                      A                      A
 Frequencies --   1118.4293              1168.7422              1195.4185
 Red. masses --      1.5455                 2.6292                 1.9249
 Frc consts  --      1.1390                 2.1160                 1.6207
 IR Inten    --     75.8255               145.6259                51.3119

                     40                     41                     42
                      A                      A                      A
 Frequencies --   1226.0276              1265.4538              1324.7363
 Red. masses --      3.5198                 2.2944                 6.2076
 Frc consts  --      3.1172                 2.1647                 6.4185
 IR Inten    --    561.7754                81.6331              2752.6874

                     43                     44                     45
                      A                      A                      A
 Frequencies --   1334.1726              1354.6966              1396.9919
 Red. masses --      1.4510                 1.7959                 3.2211
 Frc consts  --      1.5218                 1.9419                 3.7037
 IR Inten    --    159.4990                24.0273              1444.8103

                     46                     47                     48
                      A                      A                      A
 Frequencies --   1411.4861              1421.2457              1444.0763
 Red. masses --      2.4299                 3.9324                 3.6726
 Frc consts  --      2.8523                 4.6800                 4.5123
 IR Inten    --    145.3457               346.2425               510.4685

                     49                     50                     51
                      A                      A                      A
 Frequencies --   1465.4115              1471.9805              1484.4909
 Red. masses --      1.3829                 1.2443                 1.0700
 Frc consts  --      1.7497                 1.5884                 1.3892
 IR Inten    --     49.5498               327.6741                 5.4932

                     52                     53                     54
                      A                      A                      A
 Frequencies --   1489.2240              1499.6611              1507.0945
 Red. masses --      2.5773                 1.0953                 2.8017
 Frc consts  --      3.3677                 1.4514                 3.7493
 IR Inten    --   2964.7826                 5.3254               136.5738

                     55                     56                     57
                      A                      A                      A
 Frequencies --   1557.8613              1586.2298              2922.1407
 Red. masses --      6.4876                 5.2910                 1.0467
 Frc consts  --      9.2767                 7.8436                 5.2657
 IR Inten    --   2994.1270                42.9891                40.8548

                     58                     59                     60
                      A                      A                      A
 Frequencies --   2931.1764              2937.7108              2946.6377
 Red. masses --      1.0613                 1.0762                 1.0935
 Frc consts  --      5.3723                 5.4721                 5.5941
 IR Inten    --    428.7291              3286.6024               342.3127

                     61                     62                     63
                      A                      A                      A
 Frequencies --   3072.2533              3072.8263              3081.1249
 Red. masses --      1.0909                 1.0904                 1.0836
 Frc consts  --      6.0666                 6.0660                 6.0609
 IR Inten    --     23.4457                28.0332               686.1367

                     64                     65                     66
                      A                      A                      A
 Frequencies --   3109.4543              3153.3088              3155.2822
 Red. masses --      1.0915                 1.0900                 1.0909
 Frc consts  --      6.2179                 6.3854                 6.3989
 IR Inten    --     16.8118                 4.9031               104.3821

 - Thermochemistry -
 -------------------
 Temperature   298.150 Kelvin.  Pressure   1.00000 Atm.
 Atom     1 has atomic number  6 and mass  12.00000

 Molecular mass:   186.06808 amu.
 Principal axes and moments of inertia in atomic units:
                           1         2         3
     Eigenvalues --  1696.376382725.523084399.48032
           X            0.98377   0.16825   0.06236
           Y           -0.17326   0.98111   0.08606
           Z           -0.04670  -0.09547   0.99434
 This molecule is an asymmetric top.
 Rotational symmetry number  1.
 Warning -- assumption of classical behavior for rotation
           may cause significant error
 Rotational temperatures (Kelvin)      0.05106     0.03178     0.01969
 Rotational constants (GHZ):           1.06388     0.66216     0.41022
 Zero-point vibrational energy     477107.6 (Joules/Mol)
                                  114.03145 (Kcal/Mol)
 Warning -- explicit consideration of  18 degrees of freedom as
           vibrations may cause significant error
 Vibrational temperatures:     83.73   113.09   164.82   194.32   215.78
          (Kelvin)            263.01   364.67   417.56   449.20   483.17
                              532.93   564.85   595.77   619.57   657.23
                              724.54   740.28   869.14   955.35   965.76
                              973.23  1015.95  1135.42  1165.80  1190.92
                             1208.27  1281.06  1383.84  1402.14  1415.47
                             1431.96  1461.00  1475.34  1502.64  1570.60
                             1576.65  1609.17  1681.56  1719.94  1763.98
                             1820.71  1906.00  1919.58  1949.11  2009.96
                             2030.81  2044.86  2077.70  2108.40  2117.85
                             2135.85  2142.66  2157.68  2168.37  2241.41
                             2282.23  4204.31  4217.31  4226.71  4239.55
                             4420.29  4421.11  4433.05  4473.81  4536.91
                             4539.75

 Zero-point correction=                           0.181721 (Hartree/Particle)
 Thermal correction to Energy=                    0.193865
 Thermal correction to Enthalpy=                  0.194809
 Thermal correction to Gibbs Free Energy=         0.143492
 Sum of electronic and zero-point Energies=           -613.701129
 Sum of electronic and thermal Energies=              -613.688984
 Sum of electronic and thermal Enthalpies=            -613.688040
 Sum of electronic and thermal Free Energies=         -613.739357

                     E (Thermal)             CV                S
                      KCal/Mol        Cal/Mol-Kelvin    Cal/Mol-Kelvin
 Total                  121.652             47.053            108.006
 Electronic               0.000              0.000              0.000
 Translational            0.889              2.981             41.569
 Rotational               0.889              2.981             31.387
 Vibrational            119.875             41.091             35.050
 Vibration     1          0.596              1.974              4.517
 Vibration     2          0.600              1.964              3.926
 Vibration     3          0.607              1.937              3.190
 Vibration     4          0.613              1.918              2.873
 Vibration     5          0.618              1.903              2.673
 Vibration     6          0.630              1.863              2.300
 Vibration     7          0.665              1.757              1.706
 Vibration     8          0.686              1.692              1.473
 Vibration     9          0.701              1.650              1.351
 Vibration    10          0.717              1.604              1.232
 Vibration    11          0.742              1.533              1.078
 Vibration    12          0.760              1.486              0.990
 Vibration    13          0.778              1.440              0.912
 Vibration    14          0.792              1.404              0.857
 Vibration    15          0.815              1.346              0.775
 Vibration    16          0.859              1.242              0.649
 Vibration    17          0.870              1.218              0.623
 Vibration    18          0.963              1.023              0.443

                           ! Non-Optimized Parameters !
 Normal termination of Gaussian 16 at Tue Dec 26 22:51:30 2023.
