 Q-Chem 5.4, Q-Chem, Inc., Pleasanton, CA (2021)
 Q-Chem 5.4.0 for Intel X86 EM64T Linux

User input:
--------------------------------------------------------------
$molecule
-2 1
C                  4.7652990000     -3.0783630000      0.3361300000
C                  5.6767100000     -2.2857210000     -0.3207360000
C                  5.2549490000     -1.0814170000     -0.9522380000
C                  3.3846610000     -2.7245030000      0.4061700000
C                  2.9576650000     -1.5036020000     -0.2339830000
C                  3.9272720000     -0.7149960000     -0.9006540000
C                  2.4475060000     -3.5317320000      1.0776180000
C                  1.0887980000     -3.1514920000      1.1258550000
C                  0.6562700000     -1.9330070000      0.4910060000
C                  1.5816040000     -1.0823460000     -0.2036450000
C                  0.1318010000     -4.0107710000      1.8420290000
C                 -1.2115050000     -3.5853210000      1.8266400000
C                 -0.7395180000     -1.5638350000      0.5614690000
C                 -1.6407410000     -2.3623970000      1.2088500000
O                  2.8853220000     -4.6855510000      1.6723610000
O                  1.2036010000      0.0205340000     -0.7818970000
O                  0.5443280000     -5.0724510000      2.4558110000
H                  5.0752980000     -3.9977070000      0.8199090000
H                  6.7235950000     -2.5790660000     -0.3587850000
H                  5.9786310000     -0.4573500000     -1.4710480000
H                  2.0457020000     -5.0647630000      2.0925050000
O                 -1.1530130000     -0.4019020000     -0.0323260000
H                 -2.6824160000     -2.0764490000      1.2511090000
H                 -0.3041360000     -0.0202040000     -0.4382030000
H                  3.5726800000      0.1959600000     -1.3710630000
S                 -2.4427200000     -4.5815310000      2.5778580000
O                 -3.7120250000     -3.8440440000      2.5987890000
O                 -2.4775950000     -5.9696800000      2.0916620000
O                 -2.0537270000     -4.6909680000      4.2129750000
C                 -1.3819570000     -5.8773110000      4.6678410000
H                 -0.4694940000     -6.0370850000      4.0924450000
H                 -2.0434880000     -6.7465450000      4.5936840000
H                 -1.1476900000     -5.6787760000      5.7175090000
$end
$rem
MAX_SCF_CYCLES=200
BASIS  =  6-311++G(d,p)
GUI  =  2
JOB_TYPE  =  SP
METHOD  =  B3LYP
SOLVENT_METHOD = COSMO
$end
$solvent
dielectric 37.219
opticaldielectric 1.43
$end

--------------------------------------------------------------

             Standard Nuclear Orientation (Angstroms)
    I     Atom           X                Y                Z
 ----------------------------------------------------------------
    1      C       3.7624311542    -2.0449449683    -0.0734879548
    2      C       5.1046532039    -1.7513304514    -0.0219634174
    3      C       5.5392862088    -0.3981341443     0.0615778727
    4      C       2.7735615485    -1.0165501141    -0.0447701050
    5      C       3.2146231932     0.3549415441     0.0400588779
    6      C       4.6060028602     0.6156602657     0.0908107300
    7      C       1.3983743235    -1.3113167720    -0.0966669529
    8      C       0.4474332815    -0.2683113766    -0.0675538133
    9      C       0.8807548781     1.1026360723     0.0193651430
   10      C       2.2745137890     1.4444050017     0.0744764625
   11      C      -0.9846121356    -0.6061000200    -0.1150260368
   12      C      -1.8767687996     0.4846563595    -0.1102783235
   13      C      -0.1141176247     2.1507175453     0.0544517476
   14      C      -1.4464705631     1.8504938171    -0.0064390023
   15      O       1.0134364991    -2.6234307494    -0.1796136360
   16      O       2.6790988406     2.6788475801     0.1523763638
   17      O      -1.3602473707    -1.8440626719    -0.1354694791
   18      H       3.4203295440    -3.0716692863    -0.1378195505
   19      H       5.8375884370    -2.5549022366    -0.0453203991
   20      H       6.6016516917    -0.1698774943     0.1017967261
   21      H       0.0022763646    -2.5702837702    -0.1834927016
   22      O       0.2931793445     3.4542787540     0.1466269482
   23      H      -2.1801267656     2.6441142015     0.0171013741
   24      H       1.3065055777     3.3922082871     0.1650352573
   25      H       4.9031515965     1.6570783516     0.1541506593
   26      S      -3.5996378913     0.1932008940    -0.2496663734
   27      O      -4.3203381155     1.4533242188    -0.0302563512
   28      O      -3.9848064578    -0.6083752670    -1.4217078811
   29      O      -4.0505364202    -0.7262348545     1.0875800645
   30      C      -4.2005103346    -2.1445916338     0.9104936563
   31      H      -3.2845517171    -2.5715559090     0.5007152613
   32      H      -5.0539810562    -2.3631366413     0.2604812883
   33      H      -4.3918578726    -2.5313526398     1.9154325240
 ----------------------------------------------------------------

   11   -1502.7207659444      5.68e-06  Convergence criterion met
 Total energy in the final basis set =    -1502.7207659444
    5   -1502.9638742941      7.67e-06  Convergence criterion met
 Total energy in the final basis set =    -1502.9638742941

                    Orbital Energies (a.u.)
 --------------------------------------------------------------

 Alpha MOs
 -- Occupied --
-89.0722 -19.1566 -19.1219 -19.1218 -19.1147 -19.1109 -19.0724 -19.0602
-10.2308 -10.2117 -10.2108 -10.2097 -10.2057 -10.1822 -10.1707 -10.1686
-10.1661 -10.1650 -10.1641 -10.1640 -10.1630 -10.1625 -10.1543  -8.1326
 -6.0964  -6.0951  -6.0928  -1.1345  -1.0349  -1.0292  -1.0246  -1.0108
 -0.9863  -0.9719  -0.8538  -0.8311  -0.7905  -0.7513  -0.7440  -0.7233
 -0.7073  -0.6768  -0.6486  -0.6236  -0.6016  -0.5743  -0.5697  -0.5397
 -0.5327  -0.5129  -0.5076  -0.4869  -0.4841  -0.4747  -0.4604  -0.4529
 -0.4435  -0.4374  -0.4278  -0.4226  -0.4186  -0.4168  -0.4074  -0.3962
 -0.3895  -0.3865  -0.3828  -0.3775  -0.3711  -0.3523  -0.3505  -0.3470
 -0.3366  -0.3354  -0.3297  -0.3252  -0.3182  -0.3096  -0.3039  -0.2860
 -0.2648  -0.2502  -0.2492  -0.2388  -0.2325  -0.1962  -0.1420

          Ground-State Mulliken Net Atomic Charges

     Atom                 Charge (a.u.)
  ----------------------------------------
      1 C                    -0.240172
      2 C                    -0.418659
      3 C                    -0.507248
      4 C                     0.234956
      5 C                     0.101018
      6 C                    -0.115851
      7 C                    -0.131849
      8 C                     0.608733
      9 C                     0.846275
     10 C                    -0.277547
     11 C                    -0.711602
     12 C                    -1.015519
     13 C                    -0.338953
     14 C                    -0.298314
     15 O                    -0.508499
     16 O                    -0.646607
     17 O                    -0.524400
     18 H                     0.169577
     19 H                     0.200089
     20 H                     0.196172
     21 H                     0.454253
     22 O                    -0.485169
     23 H                     0.229630
     24 H                     0.385980
     25 H                     0.179169
     26 S                     1.222586
     27 O                    -0.302418
     28 O                    -0.297096
     29 O                    -0.216370
     30 C                    -0.360324
     31 H                     0.231009
     32 H                     0.177799
     33 H                     0.159351
  ----------------------------------------
  Sum of atomic charges =    -2.000001

                    Cartesian Multipole Moments
 -----------------------------------------------------------------
    Charge (ESU x 10^10)
                -9.6064
    Dipole Moment (Debye)
         X       3.3493      Y      -7.4313      Z       1.8291
       Tot       8.3539
    Quadrupole Moments (Debye-Ang)
        XX    -221.8109     XY      -1.7646     YY    -193.1781
        XZ      -8.7606     YZ      -6.4171     ZZ    -155.4700

 Total job time:  116.93s(wall), 903.76s(cpu)
        *  Thank you very much for using Q-Chem.  Have a nice day.  *
