 Gaussian 16, Revision A.03,
 Gaussian 16:  ES64L-G16RevA.03 25-Dec-2016

 ----------------------------------------------------------------------
 #P UB3LYP/6-311++G(d,p) nosym opt freq SCRF=(PCM,Solvent=n,n-DiMethylF
 ormamide)
 ----------------------------------------------------------------------

 -------
 Reduced
 -------
 Symbolic Z-matrix:
 Charge = -2 Multiplicity = 1

 SCF Done:  E(UB3LYP) =  -610.933599454     A.U. after   17 cycles
 SCF Done:  E(UB3LYP) =  -610.935831153     A.U. after   14 cycles
 SCF Done:  E(UB3LYP) =  -610.936342646     A.U. after   14 cycles
 SCF Done:  E(UB3LYP) =  -610.936444037     A.U. after   12 cycles
 SCF Done:  E(UB3LYP) =  -610.936506487     A.U. after   13 cycles
 SCF Done:  E(UB3LYP) =  -610.936537923     A.U. after   12 cycles
 SCF Done:  E(UB3LYP) =  -610.936553117     A.U. after   12 cycles
 SCF Done:  E(UB3LYP) =  -610.936567651     A.U. after   12 cycles
 SCF Done:  E(UB3LYP) =  -610.936571358     A.U. after   11 cycles
 SCF Done:  E(UB3LYP) =  -610.936571674     A.U. after   11 cycles
 Optimization completed.
    -- Stationary point found.
 Normal termination of Gaussian 16 at Sat Feb 10 12:29:57 2024.

 ----------------------------------------------------------------------
 #P Geom=AllCheck Guess=TCheck SCRF=Check GenChk UB3LYP/6-311++G(d,p) F
 req
 ----------------------------------------------------------------------

 Structure from the checkpoint file:  "085-an.chk"
 -------
 Reduced
 -------
 Charge = -2 Multiplicity = 1

                          Input orientation:
 ---------------------------------------------------------------------
 Center     Atomic      Atomic             Coordinates (Angstroms)
 Number     Number       Type             X           Y           Z
 ---------------------------------------------------------------------
      1          6           0       -3.504466    0.678323   -0.221073
      2          8           0       -2.746172   -0.517339   -0.232999
      3          6           0       -1.380976   -0.437027    0.042181
      4          6           0       -0.742638    0.768944    0.339693
      5          6           0        0.651568    0.882637    0.637508
      6          8           0        1.216313    2.030835    0.945091
      7          6           0        1.343614   -0.354032    0.576026
      8          6           0        0.702240   -1.564358    0.275010
      9          6           0       -0.681811   -1.687762   -0.000496
     10          8           0       -1.269261   -2.833131   -0.274051
     11          8           0        2.715081   -0.413542    0.880748
     12          6           0        3.548100    0.203580   -0.098798
     13          1           0       -4.528296    0.393988   -0.467428
     14          1           0       -3.144284    1.399075   -0.965463
     15          1           0       -3.494826    1.160338    0.764229
     16          1           0       -1.310849    1.692388    0.373233
     17          1           0        1.304461   -2.470474    0.257212
     18          1           0        3.470835   -0.319913   -1.061017
     19          1           0        3.274054    1.253738   -0.229393
     20          1           0        4.577314    0.133732    0.261581
 ---------------------------------------------------------------------

 SCF Done:  E(UB3LYP) =  -610.936571674     A.U. after    1 cycles

 Alpha  occ. eigenvalues --  -19.12278 -19.10828 -19.00944 -19.00900 -10.20267
 Alpha  occ. eigenvalues --  -10.19123 -10.17961 -10.16513 -10.16444 -10.16432
 Alpha  occ. eigenvalues --  -10.12045 -10.11718  -1.03059  -1.01432  -0.91261
 Alpha  occ. eigenvalues --   -0.90996  -0.77675  -0.71462  -0.68424  -0.66221
 Alpha  occ. eigenvalues --   -0.62297  -0.55953  -0.53450  -0.47801  -0.46475
 Alpha  occ. eigenvalues --   -0.45516  -0.44559  -0.43223  -0.41968  -0.40371
 Alpha  occ. eigenvalues --   -0.37796  -0.36399  -0.35406  -0.34898  -0.33586
 Alpha  occ. eigenvalues --   -0.32372  -0.30799  -0.30283  -0.28634  -0.25449
 Alpha  occ. eigenvalues --   -0.21337  -0.19216  -0.19135  -0.18868  -0.11336
 Alpha virt. eigenvalues --    0.00195   0.01024   0.01860   0.02684   0.03064
 Alpha virt. eigenvalues --    0.03615   0.04096   0.04516   0.05092   0.05662
 Alpha virt. eigenvalues --    0.06592   0.07433   0.08037   0.08169   0.08729

  Beta  occ. eigenvalues --  -19.12278 -19.10828 -19.00944 -19.00900 -10.20267
  Beta  occ. eigenvalues --  -10.19123 -10.17961 -10.16513 -10.16444 -10.16432
  Beta  occ. eigenvalues --  -10.12045 -10.11718  -1.03059  -1.01432  -0.91261
  Beta  occ. eigenvalues --   -0.90996  -0.77675  -0.71462  -0.68424  -0.66221
  Beta  occ. eigenvalues --   -0.62297  -0.55953  -0.53450  -0.47801  -0.46475
  Beta  occ. eigenvalues --   -0.45516  -0.44559  -0.43223  -0.41968  -0.40371
  Beta  occ. eigenvalues --   -0.37796  -0.36399  -0.35406  -0.34898  -0.33586
  Beta  occ. eigenvalues --   -0.32372  -0.30799  -0.30283  -0.28634  -0.25449
  Beta  occ. eigenvalues --   -0.21337  -0.19216  -0.19135  -0.18868  -0.11336
  Beta virt. eigenvalues --    0.00195   0.01024   0.01860   0.02684   0.03064
  Beta virt. eigenvalues --    0.03615   0.04096   0.04516   0.05092   0.05662
  Beta virt. eigenvalues --    0.06592   0.07433   0.08037   0.08169   0.08729

 Mulliken charges and spin densities:
               1          2
     1  C   -0.282207   0.000000
     2  O   -0.254870   0.000000
     3  C   -0.272761  -0.000000
     4  C    0.578673   0.000000
     5  C   -0.433561  -0.000000
     6  O   -0.754254   0.000000
     7  C   -0.409016  -0.000000
     8  C    0.680521   0.000000
     9  C   -0.733771  -0.000000
    10  O   -0.772885   0.000000
    11  O   -0.263879   0.000000
    12  C   -0.267254  -0.000000
    13  H    0.174454  -0.000000
    14  H    0.141159  -0.000000
    15  H    0.140445  -0.000000
    16  H    0.161927   0.000000
    17  H    0.156422  -0.000000
    18  H    0.114056   0.000000
    19  H    0.165259   0.000000
    20  H    0.131540  -0.000000
 Sum of Mulliken charges =  -2.00000  -0.00000

 Dipole moment (field-independent basis, Debye):
    X=             -0.5501    Y=              6.3979    Z=             -4.3888  Tot=              7.7780
 Quadrupole moment (field-independent basis, Debye-Ang):
   XX=            -93.1986   YY=           -130.0895   ZZ=            -85.7438
   XY=            -27.0277   XZ=            -11.6008   YZ=            -10.5865

  Exact polarizability: 222.224  13.257 215.593  15.679  17.014 125.403
 Approx polarizability: 233.923  18.396 236.082  20.707  19.532 134.652

                      1                      2                      3
                      A                      A                      A
 Frequencies --     54.2315                80.4423               111.9810
 Red. masses --      3.3858                 3.1379                 4.8819
 Frc consts  --      0.0059                 0.0120                 0.0361
 IR Inten    --     20.9384                14.9817                 3.8213

                      4                      5                      6
                      A                      A                      A
 Frequencies --    163.1081               192.7761               212.2967
 Red. masses --      5.6239                 1.1465                 1.7999
 Frc consts  --      0.0882                 0.0251                 0.0478
 IR Inten    --     15.7400                 2.5685                 1.5450

                      7                      8                      9
                      A                      A                      A
 Frequencies --    224.8662               281.2074               300.2473
 Red. masses --      3.0375                 1.9252                 5.2770
 Frc consts  --      0.0905                 0.0897                 0.2803
 IR Inten    --     10.3877                 4.4014                 1.5922

                     10                     11                     12
                      A                      A                      A
 Frequencies --    334.1529               340.4991               378.4315
 Red. masses --      8.2320                 7.5457                 7.3998
 Frc consts  --      0.5416                 0.5154                 0.6244
 IR Inten    --     15.8380                 2.8935                 2.0122

                     13                     14                     15
                      A                      A                      A
 Frequencies --    443.4984               472.6695               488.4555
 Red. masses --      4.6933                 5.2426                 4.8665
 Frc consts  --      0.5439                 0.6901                 0.6841
 IR Inten    --      2.4517                 2.7606                 6.1660

                     16                     17                     18
                      A                      A                      A
 Frequencies --    534.0011               649.2721               692.3210
 Red. masses --      5.3947                 5.4685                 3.2908
 Frc consts  --      0.9064                 1.3582                 0.9293
 IR Inten    --      1.1585                13.7345                31.3827

                     19                     20                     21
                      A                      A                      A
 Frequencies --    705.9297               731.8366               736.0328
 Red. masses --      2.6509                 6.9011                 7.0593
 Frc consts  --      0.7783                 2.1777                 2.2532
 IR Inten    --     29.1820                12.5473                 2.8943

                     22                     23                     24
                      A                      A                      A
 Frequencies --    803.6863               828.3946               868.9119
 Red. masses --      2.3210                 1.5450                 3.7658
 Frc consts  --      0.8833                 0.6247                 1.6752
 IR Inten    --     13.1677                94.3570               303.9768

                     25                     26                     27
                      A                      A                      A
 Frequencies --   1001.1815              1043.4776              1122.1870
 Red. masses --      6.9910                 4.5254                 5.7614
 Frc consts  --      4.1287                 2.9031                 4.2747
 IR Inten    --     96.9393                87.4748                96.7029

                     28                     29                     30
                      A                      A                      A
 Frequencies --   1145.3096              1164.8230              1165.8945
 Red. masses --      3.2907                 1.2802                 1.2705
 Frc consts  --      2.5432                 1.0234                 1.0175
 IR Inten    --    999.4304                 1.2255                 1.2876

                     31                     32                     33
                      A                      A                      A
 Frequencies --   1186.4730              1205.1963              1212.8198
 Red. masses --      3.4117                 1.5828                 1.8897
 Frc consts  --      2.8297                 1.3545                 1.6377
 IR Inten    --    188.4816                98.1804                70.2726

                     34                     35                     36
                      A                      A                      A
 Frequencies --   1227.6891              1252.8127              1343.2352
 Red. masses --      1.5031                 2.8945                10.2471
 Frc consts  --      1.3348                 2.6767                10.8932
 IR Inten    --     40.7666               615.2978                29.1613

                     37                     38                     39
                      A                      A                      A
 Frequencies --   1376.4202              1450.7429              1458.5650
 Red. masses --      7.2339                 1.2440                 1.7466
 Frc consts  --      8.0747                 1.5426                 2.1893
 IR Inten    --    655.2530               147.0157               612.2176

                     40                     41                     42
                      A                      A                      A
 Frequencies --   1470.5736              1476.1522              1481.2546
 Red. masses --      1.1006                 1.0480                 1.6272
 Frc consts  --      1.4023                 1.3455                 2.1036
 IR Inten    --     15.5906                 9.7022               336.6572

                     43                     44                     45
                      A                      A                      A
 Frequencies --   1498.2681              1503.7936              1508.9725
 Red. masses --      1.1431                 1.0799                 3.7240
 Frc consts  --      1.5118                 1.4388                 4.9960
 IR Inten    --     40.9641                 9.6360                32.8323

                     46                     47                     48
                      A                      A                      A
 Frequencies --   1608.1812              2980.6579              2984.2218
 Red. masses --      7.5816                 1.0407                 1.0346
 Frc consts  --     11.5526                 5.4477                 5.4285
 IR Inten    --      3.1823               157.7971               106.2791

                     49                     50                     51
                      A                      A                      A
 Frequencies --   3031.7350              3056.4596              3091.5568
 Red. masses --      1.1048                 1.0899                 1.1053
 Frc consts  --      5.9827                 5.9987                 6.2242
 IR Inten    --     93.9101                82.9897                56.9451

                     52                     53                     54
                      A                      A                      A
 Frequencies --   3103.8744              3126.1421              3161.2139
 Red. masses --      1.0979                 1.0882                 1.0871
 Frc consts  --      6.2319                 6.2659                 6.4005
 IR Inten    --     56.0491                71.7142                39.1574

 - Thermochemistry -
 -------------------
 Temperature   298.150 Kelvin.  Pressure   1.00000 Atm.
 Atom     1 has atomic number  6 and mass  12.00000

 Molecular mass:   168.04226 amu.
 Principal axes and moments of inertia in atomic units:
                           1         2         3
     Eigenvalues --  1092.148102808.211373771.62466
           X            0.97828  -0.17721  -0.10753
           Y            0.16096   0.97632  -0.14455
           Z            0.13059   0.12410   0.98364
 This molecule is an asymmetric top.
 Rotational symmetry number  1.
 Warning -- assumption of classical behavior for rotation
           may cause significant error
 Rotational temperatures (Kelvin)      0.07931     0.03084     0.02296
 Rotational constants (GHZ):           1.65247     0.64267     0.47850
 Zero-point vibrational energy     383218.5 (Joules/Mol)
                                   91.59143 (Kcal/Mol)
 Warning -- explicit consideration of  16 degrees of freedom as
           vibrations may cause significant error
 Vibrational temperatures:     78.03   115.74   161.12   234.68   277.36
          (Kelvin)            305.45   323.53   404.59   431.99   480.77
                              489.90   544.48   638.10   680.07   702.78
                              768.31   934.16   996.10  1015.68  1052.95
                             1058.99  1156.33  1191.88  1250.17  1440.48
                             1501.33  1614.58  1647.85  1675.92  1677.46
                             1707.07  1734.01  1744.98  1766.37  1802.52
                             1932.62  1980.36  2087.30  2098.55  2115.83
                             2123.85  2131.19  2155.67  2163.62  2171.07
                             2313.81  4288.50  4293.63  4361.99  4397.56
                             4448.06  4465.78  4497.82  4548.28

 Zero-point correction=                           0.145960 (Hartree/Particle)
 Thermal correction to Energy=                    0.157315
 Thermal correction to Enthalpy=                  0.158260
 Thermal correction to Gibbs Free Energy=         0.108579
 Sum of electronic and zero-point Energies=           -610.790611
 Sum of electronic and thermal Energies=              -610.779256
 Sum of electronic and thermal Enthalpies=            -610.778312
 Sum of electronic and thermal Free Energies=         -610.827993

                     E (Thermal)             CV                S
                      KCal/Mol        Cal/Mol-Kelvin    Cal/Mol-Kelvin
 Total                   98.717             41.934            104.562
 Electronic               0.000              0.000              0.000
 Translational            0.889              2.981             41.265
 Rotational               0.889              2.981             30.826
 Vibrational             96.939             35.972             32.471
 Vibration     1          0.596              1.976              4.657
 Vibration     2          0.600              1.962              3.880
 Vibration     3          0.607              1.940              3.234
 Vibration     4          0.623              1.888              2.513
 Vibration     5          0.635              1.850              2.201
 Vibration     6          0.643              1.822              2.024
 Vibration     7          0.650              1.803              1.920
 Vibration     8          0.681              1.708              1.526
 Vibration     9          0.693              1.673              1.416
 Vibration    10          0.716              1.607              1.240
 Vibration    11          0.720              1.595              1.210
 Vibration    12          0.749              1.516              1.045
 Vibration    13          0.803              1.375              0.816
 Vibration    14          0.830              1.311              0.730
 Vibration    15          0.844              1.276              0.688
 Vibration    16          0.889              1.175              0.578

                           ! Non-Optimized Parameters !
 Normal termination of Gaussian 16 at Sat Feb 10 12:43:11 2024.
