 Gaussian 16, Revision A.03,
 Gaussian 16:  ES64L-G16RevA.03 25-Dec-2016

 ----------------------------------------------------------------------
 #P UB3LYP/6-311++G(d,p) nosym opt freq SCRF=(PCM,Solvent=n,n-DiMethylF
 ormamide)
 ----------------------------------------------------------------------

 -------
 Radical
 -------
 Symbolic Z-matrix:
 Charge = -1 Multiplicity = 2

 SCF Done:  E(UB3LYP) =  -918.209005361     A.U. after   18 cycles
 SCF Done:  E(UB3LYP) =  -918.209739005     A.U. after   14 cycles
 SCF Done:  E(UB3LYP) =  -918.209887950     A.U. after   13 cycles
 SCF Done:  E(UB3LYP) =  -918.209892015     A.U. after   11 cycles
 SCF Done:  E(UB3LYP) =  -918.209893567     A.U. after   10 cycles
 SCF Done:  E(UB3LYP) =  -918.209894711     A.U. after   10 cycles
 Optimization completed.
    -- Stationary point found.
 Normal termination of Gaussian 16 at Sat Feb 10 16:28:03 2024.

 ----------------------------------------------------------------------
 #P Geom=AllCheck Guess=TCheck SCRF=Check GenChk UB3LYP/6-311++G(d,p) F
 req
 ----------------------------------------------------------------------

 Structure from the checkpoint file:  "141-rad.chk"
 -------
 Radical
 -------
 Charge = -1 Multiplicity = 2

                          Input orientation:
 ---------------------------------------------------------------------
 Center     Atomic      Atomic             Coordinates (Angstroms)
 Number     Number       Type             X           Y           Z
 ---------------------------------------------------------------------
      1          6           0       -3.284601    3.598016    0.084940
      2          6           0       -4.510229    2.960106    0.091112
      3          6           0       -4.555498    1.547077    0.067327
      4          6           0       -2.066837    2.887202    0.055701
      5          6           0       -2.122007    1.459887    0.032588
      6          6           0       -3.376783    0.820594    0.038800
      7          6           0       -0.803209    3.614029    0.049707
      8          6           0        0.413317    2.803828    0.020068
      9          6           0        0.358147    1.376514   -0.003047
     10          6           0       -0.905483    0.649688    0.002870
     11          6           0        1.668093    3.443121    0.013929
     12          6           0        2.846809    2.716637   -0.014530
     13          6           0        2.801541    1.303607   -0.038315
     14          6           0        1.575912    0.665698   -0.032210
     15          8           0       -0.757320    4.878795    0.069343
     16          8           0       -0.951369   -0.615081   -0.016616
     17          1           0       -3.413847   -0.261529    0.020651
     18          1           0        1.533120   -0.416523   -0.050330
     19          1           0       -3.241808    4.680237    0.103059
     20          1           0        1.705157    4.525244    0.032078
     21          8           0        4.011017    3.439465   -0.018036
     22          8           0       -5.719705    0.824248    0.070891
     23          6           0       -6.964055    1.524499    0.096243
     24          6           0        5.255369    2.739211   -0.043239
     25          1           0       -5.418514    3.547162    0.113901
     26          1           0        3.709826    0.716551   -0.061052
     27          1           0       -7.735735    0.756849    0.092480
     28          1           0       -7.081645    2.160390   -0.786264
     29          1           0       -7.061674    2.131401    1.001316
     30          1           0        6.027050    3.506860   -0.039403
     31          1           0        5.353088    2.132294   -0.948292
     32          1           0        5.372860    2.103334    0.839291
 ---------------------------------------------------------------------

 SCF Done:  E(UB3LYP) =  -918.209894711     A.U. after    1 cycles

 Alpha  occ. eigenvalues --  -19.15576 -19.15576 -19.07165 -19.07165 -10.23479
 Alpha  occ. eigenvalues --  -10.23479 -10.22083 -10.22081 -10.22043 -10.22043
 Alpha  occ. eigenvalues --  -10.17416 -10.17416 -10.17383 -10.17382 -10.17352
 Alpha  occ. eigenvalues --  -10.17352 -10.16808 -10.16807 -10.16501 -10.16500
 Alpha  occ. eigenvalues --   -1.06761  -1.06760  -0.99553  -0.99281  -0.86053
 Alpha  occ. eigenvalues --   -0.85061  -0.78596  -0.76072  -0.75866  -0.74379
 Alpha  occ. eigenvalues --   -0.70347  -0.70302  -0.65228  -0.64322  -0.60230
 Alpha  occ. eigenvalues --   -0.59673  -0.56038  -0.54420  -0.53452  -0.51295
 Alpha  occ. eigenvalues --   -0.49011  -0.48359  -0.47007  -0.46998  -0.46982
 Alpha  occ. eigenvalues --   -0.45460  -0.43313  -0.42424  -0.42295  -0.41988
 Alpha  occ. eigenvalues --   -0.41682  -0.41400  -0.40180  -0.39564  -0.38187
 Alpha  occ. eigenvalues --   -0.37555  -0.37240  -0.36520  -0.36152  -0.35424
 Alpha  occ. eigenvalues --   -0.33197  -0.32636  -0.32262  -0.31004  -0.26396
 Alpha  occ. eigenvalues --   -0.25483  -0.24331  -0.23783  -0.23548  -0.22510
 Alpha  occ. eigenvalues --   -0.13668
 Alpha virt. eigenvalues --   -0.05478  -0.00935  -0.00463  -0.00444   0.00010
 Alpha virt. eigenvalues --    0.01178   0.01256   0.01939   0.02897   0.03385
 Alpha virt. eigenvalues --    0.03557   0.03657   0.03986   0.05022   0.05158

  Beta  occ. eigenvalues --  -19.15541 -19.15541 -19.06630 -19.06629 -10.23422
  Beta  occ. eigenvalues --  -10.23422 -10.22045 -10.22045 -10.21885 -10.21884
  Beta  occ. eigenvalues --  -10.17402 -10.17402 -10.17340 -10.17340 -10.17286
  Beta  occ. eigenvalues --  -10.17285 -10.16771 -10.16770 -10.16472 -10.16472
  Beta  occ. eigenvalues --   -1.06690  -1.06689  -0.98610  -0.98313  -0.85795
  Beta  occ. eigenvalues --   -0.84953  -0.78230  -0.75880  -0.75740  -0.74209
  Beta  occ. eigenvalues --   -0.70233  -0.70102  -0.64614  -0.64167  -0.60030
  Beta  occ. eigenvalues --   -0.59590  -0.55819  -0.54304  -0.53293  -0.51141
  Beta  occ. eigenvalues --   -0.48898  -0.48291  -0.46901  -0.46883  -0.46776
  Beta  occ. eigenvalues --   -0.45355  -0.43181  -0.42383  -0.42220  -0.41417
  Beta  occ. eigenvalues --   -0.41241  -0.40817  -0.39879  -0.39332  -0.37898
  Beta  occ. eigenvalues --   -0.37198  -0.35974  -0.35878  -0.35304  -0.35283
  Beta  occ. eigenvalues --   -0.33163  -0.32528  -0.31969  -0.29958  -0.25180
  Beta  occ. eigenvalues --   -0.24654  -0.23839  -0.23046  -0.22805  -0.21893
  Beta virt. eigenvalues --   -0.07831  -0.04493  -0.00435  -0.00177   0.00008
  Beta virt. eigenvalues --    0.00044   0.01185   0.01272   0.01936   0.02901
  Beta virt. eigenvalues --    0.03433   0.03564   0.03674   0.04002   0.05025

 Mulliken charges and spin densities:
               1          2
     1  C   -0.041424   0.032955
     2  C    0.075336   0.008324
     3  C   -0.775900   0.031733
     4  C    0.554546   0.008746
     5  C    0.704502   0.064393
     6  C   -0.545393   0.039640
     7  C   -0.530091   0.113552
     8  C    0.704504   0.064393
     9  C    0.554541   0.008745
    10  C   -0.530091   0.113553
    11  C   -0.545397   0.039640
    12  C   -0.775901   0.031733
    13  C    0.075342   0.008324
    14  C   -0.041429   0.032955
    15  O   -0.476337   0.199392
    16  O   -0.476338   0.199392
    17  H    0.172767  -0.003101
    18  H    0.168509  -0.002002
    19  H    0.168509  -0.002002
    20  H    0.172767  -0.003101
    21  O   -0.213482   0.007323
    22  O   -0.213482   0.007323
    23  C   -0.327186  -0.000359
    24  C   -0.327186  -0.000359
    25  H    0.216178  -0.001551
    26  H    0.216178  -0.001551
    27  H    0.190217  -0.000035
    28  H    0.163904   0.000496
    29  H    0.163859   0.000494
    30  H    0.190217  -0.000035
    31  H    0.163856   0.000494
    32  H    0.163907   0.000496
 Sum of Mulliken charges =  -1.00000   1.00000

 Dipole moment (field-independent basis, Debye):
    X=              4.1036    Y=            -10.2397    Z=             -0.1264  Tot=             11.0321
 Quadrupole moment (field-independent basis, Debye-Ang):
   XX=            -87.3528   YY=           -181.9483   ZZ=           -122.6742
   XY=             -5.9640   XZ=             -0.6113   YZ=             -0.6520

  Exact polarizability: 541.927  15.753 380.691  -4.977   3.497 157.299
 Approx polarizability: 536.339  22.088 456.470  -4.535   4.284 179.597

                      1                      2                      3
                      A                      A                      A
 Frequencies --     31.2454                62.0164                72.3839
 Red. masses --      4.8991                 3.2369                 4.1143
 Frc consts  --      0.0028                 0.0073                 0.0127
 IR Inten    --     14.9216                 0.0000                 0.4630

                      4                      5                      6
                      A                      A                      A
 Frequencies --     87.9415               109.3330               126.2126
 Red. masses --      4.0713                 5.2159                 4.6397
 Frc consts  --      0.0186                 0.0367                 0.0435
 IR Inten    --     13.3493                 0.0000                12.7232

                      7                      8                      9
                      A                      A                      A
 Frequencies --    155.6397               189.9016               194.0748
 Red. masses --      7.4593                 5.2477                 4.8441
 Frc consts  --      0.1065                 0.1115                 0.1075
 IR Inten    --     10.7953                 0.0000                 0.0000

                     10                     11                     12
                      A                      A                      A
 Frequencies --    221.9170               229.5366               260.1234
 Red. masses --      1.2129                 1.1573                 5.1705
 Frc consts  --      0.0352                 0.0359                 0.2061
 IR Inten    --      0.5211                 0.0000                 0.0000

                     13                     14                     15
                      A                      A                      A
 Frequencies --    288.3975               292.6897               325.4986
 Red. masses --      3.6806                 3.8366                 6.6043
 Frc consts  --      0.1804                 0.1936                 0.4123
 IR Inten    --      8.7748                 2.0098                 0.0000

                     16                     17                     18
                      A                      A                      A
 Frequencies --    329.1631               346.9155               423.9184
 Red. masses --      5.0121                10.2311                 6.9069
 Frc consts  --      0.3200                 0.7255                 0.7313
 IR Inten    --      0.0000                15.0870                 0.0000

                     19                     20                     21
                      A                      A                      A
 Frequencies --    431.9670               444.5637               457.6882
 Red. masses --      3.3296                 6.2854                 3.3076
 Frc consts  --      0.3661                 0.7319                 0.4082
 IR Inten    --      2.5259                16.4759                 0.0000

                     22                     23                     24
                      A                      A                      A
 Frequencies --    485.9051               488.6942               536.5045
 Red. masses --      6.9672                11.9831                 4.3200
 Frc consts  --      0.9692                 1.6861                 0.7326
 IR Inten    --      0.0000                 0.0000                 0.0000

                     25                     26                     27
                      A                      A                      A
 Frequencies --    572.6271               583.0279               629.1483
 Red. masses --      3.5227                 5.0848                 6.6991
 Frc consts  --      0.6806                 1.0184                 1.5623
 IR Inten    --     29.8827                86.7259                 0.0000

                     28                     29                     30
                      A                      A                      A
 Frequencies --    665.1089               665.5594               699.9477
 Red. masses --      3.5695                 6.2847                 6.7610
 Frc consts  --      0.9303                 1.6403                 1.9516
 IR Inten    --      0.0000                23.1919                 0.0000

                     31                     32                     33
                      A                      A                      A
 Frequencies --    712.3552               714.2492               730.8300
 Red. masses --      6.9049                 4.1624                 6.6413
 Frc consts  --      2.0644                 1.2511                 2.0899
 IR Inten    --     88.8608                16.9890                45.3611

                     34                     35                     36
                      A                      A                      A
 Frequencies --    776.1931               785.0660               816.5144
 Red. masses --      3.0402                 6.0956                 1.5247
 Frc consts  --      1.0792                 2.2135                 0.5989
 IR Inten    --      0.0000                 0.0000                71.0813

                     37                     38                     39
                      A                      A                      A
 Frequencies --    819.6050               875.1061               896.5215
 Red. masses --      1.9162                 6.7503                 1.4725
 Frc consts  --      0.7584                 3.0458                 0.6973
 IR Inten    --      0.0000               128.1169                 0.0000

                     40                     41                     42
                      A                      A                      A
 Frequencies --    898.0079               968.2977               972.2937
 Red. masses --      1.4823                 4.1898                 1.3107
 Frc consts  --      0.7043                 2.3145                 0.7301
 IR Inten    --     66.2693                75.9932                 0.0000

                     43                     44                     45
                      A                      A                      A
 Frequencies --    974.2537               980.0786              1045.2332
 Red. masses --      1.3347                 5.3945                 3.5976
 Frc consts  --      0.7464                 3.0530                 2.3157
 IR Inten    --      5.0424                 0.0000                 0.0000

                     46                     47                     48
                      A                      A                      A
 Frequencies --   1047.1212              1114.0705              1136.9702
 Red. masses --      2.4714                 3.2051                 1.5955
 Frc consts  --      1.5966                 2.3438                 1.2152
 IR Inten    --    134.6024               267.2194                 0.0000

                     49                     50                     51
                      A                      A                      A
 Frequencies --   1153.2897              1153.4464              1165.3999
 Red. masses --      2.3976                 2.3432                 1.2701
 Frc consts  --      1.8789                 1.8368                 1.0163
 IR Inten    --    369.3551                 0.0001                 2.2953

                     52                     53                     54
                      A                      A                      A
 Frequencies --   1165.4201              1191.5037              1196.4303
 Red. masses --      1.2701                 1.6852                 1.5700
 Frc consts  --      1.0164                 1.4096                 1.3241
 IR Inten    --      0.0001                15.6735                 0.0000

                     55                     56                     57
                      A                      A                      A
 Frequencies --   1210.3433              1214.4394              1257.5745
 Red. masses --      1.7847                 1.6137                 3.1833
 Frc consts  --      1.5404                 1.4022                 2.9662
 IR Inten    --    450.2342                 0.0000               303.5143

                     58                     59                     60
                      A                      A                      A
 Frequencies --   1261.4899              1270.5010              1325.4843
 Red. masses --      5.0118                 2.4595                 2.4016
 Frc consts  --      4.6991                 2.3391                 2.4860
 IR Inten    --      0.0000               676.1654                 0.0000

                     61                     62                     63
                      A                      A                      A
 Frequencies --   1355.1784              1366.7937              1397.3968
 Red. masses --      8.6544                 6.6826                 4.2721
 Frc consts  --      9.3644                 7.3553                 4.9151
 IR Inten    --    142.5487                 0.0000              1540.7688

                     64                     65                     66
                      A                      A                      A
 Frequencies --   1452.7963              1465.5015              1471.2073
 Red. masses --      2.1060                 2.4831                 1.8800
 Frc consts  --      2.6189                 3.1420                 2.3974
 IR Inten    --    476.1663                 0.0000                 0.0000

                     67                     68                     69
                      A                      A                      A
 Frequencies --   1476.3738              1484.4014              1484.4488
 Red. masses --      1.7768                 1.0450                 1.0450
 Frc consts  --      2.2818                 1.3566                 1.3567
 IR Inten    --    621.1335                 0.0000                26.2234

                     70                     71                     72
                      A                      A                      A
 Frequencies --   1490.5379              1491.1951              1498.9914
 Red. masses --      1.8208                 2.1862                 1.2545
 Frc consts  --      2.3834                 2.8643                 1.6608
 IR Inten    --    912.2165                 0.0002                 0.0000

                     73                     74                     75
                      A                      A                      A
 Frequencies --   1500.3195              1529.4803              1555.1297
 Red. masses --      1.3857                 4.4064                 5.3139
 Frc consts  --      1.8378                 6.0733                 7.5718
 IR Inten    --    161.5714                 0.0000               148.8769

                     76                     77                     78
                      A                      A                      A
 Frequencies --   1597.7038              1625.4247              1633.6040
 Red. masses --      8.2161                 6.5285                 6.7743
 Frc consts  --     12.3569                10.1624                10.6515
 IR Inten    --      0.0000                 0.0000               527.3050

                     79                     80                     81
                      A                      A                      A
 Frequencies --   3014.7347              3014.9132              3077.4846
 Red. masses --      1.0333                 1.0333                 1.1068
 Frc consts  --      5.5331                 5.5339                 6.1760
 IR Inten    --    221.9185                 0.0000                 0.0042

                     82                     83                     84
                      A                      A                      A
 Frequencies --   3077.4873              3136.8735              3136.8825
 Red. masses --      1.1068                 1.1007                 1.1006
 Frc consts  --      6.1760                 6.3811                 6.3810
 IR Inten    --    106.1542                65.4104                 0.0123

                     85                     86                     87
                      A                      A                      A
 Frequencies --   3187.0564              3187.1588              3193.7491
 Red. masses --      1.0871                 1.0872                 1.0894
 Frc consts  --      6.5058                 6.5066                 6.5472
 IR Inten    --      1.8566                 0.0000                34.2643

                     88                     89                     90
                      A                      A                      A
 Frequencies --   3194.0725              3206.3217              3206.4751
 Red. masses --      1.0895                 1.0929                 1.0929
 Frc consts  --      6.5488                 6.6196                 6.6205
 IR Inten    --      0.0000                38.9734                 0.0000

 - Thermochemistry -
 -------------------
 Temperature   298.150 Kelvin.  Pressure   1.00000 Atm.
 Atom     1 has atomic number  6 and mass  12.00000

 Molecular mass:   268.07356 amu.
 Principal axes and moments of inertia in atomic units:
                           1         2         3
     Eigenvalues --  1799.86745********************
           X            0.99366  -0.11166   0.01346
           Y            0.11188   0.99358  -0.01656
           Z           -0.01153   0.01796   0.99977
 This molecule is an asymmetric top.
 Rotational symmetry number  1.
 Warning -- assumption of classical behavior for rotation
           may cause significant error
 Rotational temperatures (Kelvin)      0.04812     0.00802     0.00689
 Rotational constants (GHZ):           1.00271     0.16709     0.14349
 Zero-point vibrational energy     632498.2 (Joules/Mol)
                                  151.17069 (Kcal/Mol)
 Warning -- explicit consideration of  26 degrees of freedom as
           vibrations may cause significant error
 Vibrational temperatures:     44.96    89.23   104.14   126.53   157.31
          (Kelvin)            181.59   223.93   273.23   279.23   319.29
                              330.25   374.26   414.94   421.12   468.32
                              473.59   499.13   609.92   621.50   639.63
                              658.51   699.11   703.12   771.91   823.88
                              838.85   905.20   956.94   957.59  1007.07
                             1024.92  1027.65  1051.50  1116.77  1129.53
                             1174.78  1179.23  1259.08  1289.89  1292.03
                             1393.16  1398.91  1401.73  1410.11  1503.86
                             1506.57  1602.90  1635.85  1659.33  1659.55
                             1676.75  1676.78  1714.31  1721.40  1741.41
                             1747.31  1809.37  1815.00  1827.97  1907.08
                             1949.80  1966.51  2010.54  2090.25  2108.53
                             2116.74  2124.17  2135.72  2135.79  2144.55
                             2145.50  2156.71  2158.63  2200.58  2237.48
                             2298.74  2338.62  2350.39  4337.53  4337.79
                             4427.81  4427.82  4513.26  4513.27  4585.46
                             4585.61  4595.09  4595.56  4613.18  4613.40

 Zero-point correction=                           0.240906 (Hartree/Particle)
 Thermal correction to Energy=                    0.257645
 Thermal correction to Enthalpy=                  0.258590
 Thermal correction to Gibbs Free Energy=         0.195655
 Sum of electronic and zero-point Energies=           -917.968989
 Sum of electronic and thermal Energies=              -917.952249
 Sum of electronic and thermal Enthalpies=            -917.951305
 Sum of electronic and thermal Free Energies=         -918.014240

                     E (Thermal)             CV                S
                      KCal/Mol        Cal/Mol-Kelvin    Cal/Mol-Kelvin
 Total                  161.675             65.021            132.457
 Electronic               0.000              0.000              1.377
 Translational            0.889              2.981             42.657
 Rotational               0.889              2.981             33.858
 Vibrational            159.897             59.059             54.564
 Vibration     1          0.594              1.983              5.749
 Vibration     2          0.597              1.972              4.392
 Vibration     3          0.598              1.967              4.087
 Vibration     4          0.601              1.958              3.705
 Vibration     5          0.606              1.942              3.281
 Vibration     6          0.611              1.927              3.003
 Vibration     7          0.620              1.896              2.602
 Vibration     8          0.633              1.854              2.229
 Vibration     9          0.635              1.848              2.189
 Vibration    10          0.648              1.808              1.943
 Vibration    11          0.652              1.796              1.883
 Vibration    12          0.668              1.746              1.661
 Vibration    13          0.685              1.695              1.483
 Vibration    14          0.688              1.687              1.458
 Vibration    15          0.710              1.624              1.282
 Vibration    16          0.712              1.617              1.264
 Vibration    17          0.725              1.582              1.180
 Vibration    18          0.786              1.418              0.879
 Vibration    19          0.793              1.401              0.852
 Vibration    20          0.804              1.373              0.812
 Vibration    21          0.816              1.344              0.773
 Vibration    22          0.842              1.281              0.694
 Vibration    23          0.845              1.275              0.687
 Vibration    24          0.892              1.169              0.573
 Vibration    25          0.929              1.090              0.499
 Vibration    26          0.940              1.068              0.480

                           ! Non-Optimized Parameters !
 Normal termination of Gaussian 16 at Sat Feb 10 18:23:51 2024.
