 Gaussian 16, Revision A.03,
 Gaussian 16:  ES64L-G16RevA.03 25-Dec-2016

 --------------------------------------
 #P UB3LYP/6-311++G(d,p) nosym opt freq
 --------------------------------------

 -------
 Reduced
 -------
 Symbolic Z-matrix:
 Charge = -2 Multiplicity = 1

 SCF Done:  E(UB3LYP) =  -967.832152643     A.U. after   56 cycles
 Optimization completed.
    -- Stationary point found.
 Normal termination of Gaussian 16 at Sun Jan  7 21:18:17 2024.

 ----------------------------------------------------------------------
 #P Geom=AllCheck Guess=TCheck SCRF=Check GenChk UB3LYP/6-311++G(d,p) F
 req
 ----------------------------------------------------------------------

 Structure from the checkpoint file:  "249-an.chk"
 -------
 Reduced
 -------
 Charge = -2 Multiplicity = 1

                          Input orientation:
 ---------------------------------------------------------------------
 Center     Atomic      Atomic             Coordinates (Angstroms)
 Number     Number       Type             X           Y           Z
 ---------------------------------------------------------------------
      1          6           0        5.874617   -5.656888    0.531967
      2          6           0        6.015851   -5.863521   -0.828993
      3          6           0        5.282201   -5.066916   -1.739105
      4          6           0        5.010801   -4.664865    1.044854
      5          6           0        4.267909   -3.859997    0.123557
      6          6           0        4.428530   -4.088931   -1.259984
      7          6           0        4.896198   -4.479406    2.491037
      8          6           0        3.987212   -3.445989    2.919817
      9          6           0        3.264792   -2.650387    2.014870
     10          6           0        3.355430   -2.816563    0.587443
     11          8           0        5.569260   -5.197602    3.306830
     12          8           0        2.687268   -2.098602   -0.231331
     13          1           0        6.687393   -6.635309   -1.198702
     14          6           0        2.334517   -1.555364    2.489331
     15          1           0        5.388687   -5.224136   -2.810148
     16          6           0        3.861086   -3.249261    4.413748
     17          6           0        0.856285   -1.986454    2.591738
     18          6           0       -0.073253   -0.851797    3.040808
     19          6           0       -1.549178   -1.253550    3.164325
     20          1           0        6.423698   -6.250429    1.255564
     21          1           0        3.850192   -3.462450   -1.931199
     22          1           0        2.388268   -0.735711    1.763986
     23          1           0        2.657509   -1.165502    3.462016
     24          1           0        4.387823   -4.062888    4.915660
     25          1           0        2.816294   -3.237355    4.748522
     26          1           0        4.311035   -2.302154    4.747440
     27          1           0        0.768811   -2.828150    3.291095
     28          1           0        0.544588   -2.355190    1.609154
     29          1           0        0.014069   -0.018102    2.331043
     30          1           0        0.271915   -0.462370    4.009662
     31          1           0       -1.637149   -2.092489    3.867827
     32          1           0       -1.901229   -1.632969    2.196164
     33          6           0       -2.465425   -0.112161    3.625186
     34          6           0       -3.941710   -0.505369    3.768424
     35          6           0       -4.844933    0.642820    4.237425
     36          6           0       -6.321784    0.256290    4.390458
     37          6           0       -7.215402    1.409577    4.865781
     38          6           0       -8.689719    1.025955    5.022886
     39          1           0       -2.383028    0.723280    2.916935
     40          1           0       -2.102737    0.272744    4.588135
     41          1           0       -4.025575   -1.341807    4.475079
     42          1           0       -4.310013   -0.885674    2.806422
     43          1           0       -4.762969    1.478152    3.529078
     44          1           0       -4.472250    1.024166    5.197681
     45          1           0       -6.407254   -0.579081    5.097697
     46          1           0       -6.700584   -0.120595    3.431437
     47          1           0       -7.131279    2.245184    4.158990
     48          1           0       -6.835358    1.787823    5.823605
     49          1           0       -9.118461    0.681904    4.074614
     50          1           0       -9.295055    1.873098    5.363298
     51          1           0       -8.819087    0.221022    5.755539
 ---------------------------------------------------------------------

 SCF Done:  E(UB3LYP) =  -967.832152643     A.U. after    7 cycles

 Alpha  occ. eigenvalues --  -18.83660 -18.83637 -10.02787 -10.02647 -10.02625
 Alpha  occ. eigenvalues --  -10.02588 -10.02108 -10.01536 -10.01160  -9.99903
 Alpha  occ. eigenvalues --   -9.99111  -9.99054  -9.97942  -9.97424  -9.97375
 Alpha  occ. eigenvalues --   -9.96555  -9.96534  -9.96531  -9.95932  -9.95500
 Alpha  occ. eigenvalues --   -9.95454  -9.95081  -9.94794  -0.75601  -0.75246
 Alpha  occ. eigenvalues --   -0.67342  -0.64816  -0.64527  -0.62061  -0.60153
 Alpha  occ. eigenvalues --   -0.57714  -0.54916  -0.54104  -0.53645  -0.50530
 Alpha  occ. eigenvalues --   -0.47810  -0.45369  -0.44160  -0.44062  -0.43045
 Alpha  occ. eigenvalues --   -0.40990  -0.38902  -0.37376  -0.34747  -0.33877
 Alpha  occ. eigenvalues --   -0.32404  -0.30587  -0.29375  -0.29335  -0.28631
 Alpha  occ. eigenvalues --   -0.27881  -0.26603  -0.25824  -0.25024  -0.24567
 Alpha  occ. eigenvalues --   -0.24201  -0.23083  -0.21953  -0.21902  -0.21690
 Alpha  occ. eigenvalues --   -0.20743  -0.20503  -0.19630  -0.19285  -0.18953
 Alpha  occ. eigenvalues --   -0.18866  -0.18671  -0.18614  -0.18062  -0.17831
 Alpha  occ. eigenvalues --   -0.17289  -0.16696  -0.16132  -0.15554  -0.15224
 Alpha  occ. eigenvalues --   -0.14137  -0.12825  -0.12721  -0.12109  -0.11687
 Alpha  occ. eigenvalues --   -0.04515  -0.03657  -0.02191  -0.01261  -0.00401
 Alpha  occ. eigenvalues --    0.09039
 Alpha virt. eigenvalues --    0.09747   0.11963   0.12195   0.12328   0.13715
 Alpha virt. eigenvalues --    0.13970   0.14029   0.14567   0.15102   0.15494
 Alpha virt. eigenvalues --    0.15575   0.16343   0.16928   0.17245   0.17559

  Beta  occ. eigenvalues --  -18.83660 -18.83637 -10.02787 -10.02647 -10.02625
  Beta  occ. eigenvalues --  -10.02588 -10.02108 -10.01536 -10.01160  -9.99903
  Beta  occ. eigenvalues --   -9.99111  -9.99054  -9.97942  -9.97424  -9.97375
  Beta  occ. eigenvalues --   -9.96555  -9.96534  -9.96531  -9.95932  -9.95500
  Beta  occ. eigenvalues --   -9.95454  -9.95081  -9.94794  -0.75601  -0.75246
  Beta  occ. eigenvalues --   -0.67342  -0.64816  -0.64527  -0.62061  -0.60153
  Beta  occ. eigenvalues --   -0.57714  -0.54916  -0.54104  -0.53645  -0.50530
  Beta  occ. eigenvalues --   -0.47810  -0.45369  -0.44160  -0.44062  -0.43045
  Beta  occ. eigenvalues --   -0.40990  -0.38902  -0.37376  -0.34747  -0.33877
  Beta  occ. eigenvalues --   -0.32404  -0.30587  -0.29375  -0.29335  -0.28631
  Beta  occ. eigenvalues --   -0.27881  -0.26603  -0.25824  -0.25024  -0.24567
  Beta  occ. eigenvalues --   -0.24201  -0.23083  -0.21953  -0.21902  -0.21690
  Beta  occ. eigenvalues --   -0.20743  -0.20503  -0.19630  -0.19285  -0.18953
  Beta  occ. eigenvalues --   -0.18866  -0.18671  -0.18614  -0.18062  -0.17831
  Beta  occ. eigenvalues --   -0.17289  -0.16696  -0.16132  -0.15554  -0.15224
  Beta  occ. eigenvalues --   -0.14137  -0.12825  -0.12721  -0.12109  -0.11687
  Beta  occ. eigenvalues --   -0.04515  -0.03657  -0.02191  -0.01261  -0.00401
  Beta  occ. eigenvalues --    0.09039
  Beta virt. eigenvalues --    0.09747   0.11963   0.12195   0.12328   0.13715
  Beta virt. eigenvalues --    0.13970   0.14029   0.14567   0.15102   0.15494
  Beta virt. eigenvalues --    0.15575   0.16343   0.16928   0.17245   0.17559

 Mulliken charges and spin densities:
               1          2
     1  C    0.124282   0.000000
     2  C   -0.389500   0.000000
     3  C   -0.369269   0.000000
     4  C    0.394460   0.000000
     5  C   -0.069091  -0.000000
     6  C    0.020415  -0.000000
     7  C   -1.049044  -0.000000
     8  C    1.203862   0.000000
     9  C    1.156633   0.000000
    10  C   -1.165443  -0.000000
    11  O   -0.461604   0.000000
    12  O   -0.436717  -0.000000
    13  H    0.090521   0.000000
    14  C   -0.583568   0.000000
    15  H    0.092138   0.000000
    16  C   -0.627702  -0.000000
    17  C   -0.950972   0.000000
    18  C   -0.226440  -0.000000
    19  C   -0.031743  -0.000000
    20  H    0.147480  -0.000000
    21  H    0.146422   0.000000
    22  H    0.215635  -0.000000
    23  H    0.147820   0.000000
    24  H    0.187783   0.000000
    25  H    0.115275  -0.000000
    26  H    0.118421  -0.000000
    27  H    0.086390   0.000000
    28  H    0.199880  -0.000000
    29  H    0.103659   0.000000
    30  H    0.080175  -0.000000
    31  H    0.119886  -0.000000
    32  H    0.128898  -0.000000
    33  C    0.305173   0.000000
    34  C    0.043739  -0.000000
    35  C   -0.420574   0.000000
    36  C    0.865451  -0.000000
    37  C   -2.376721   0.000000
    38  C    2.348828  -0.000000
    39  H    0.113746  -0.000000
    40  H    0.101807  -0.000000
    41  H    0.071049   0.000000
    42  H    0.073241   0.000000
    43  H    0.088239  -0.000000
    44  H    0.085387  -0.000000
    45  H    0.109655   0.000000
    46  H    0.120253   0.000000
    47  H   -0.066793  -0.000000
    48  H   -0.076925  -0.000000
    49  H   -0.377851   0.000000
    50  H   -1.131811   0.000000
    51  H   -0.394836   0.000000
 Sum of Mulliken charges =  -2.00000  -0.00000

 Dipole moment (field-independent basis, Debye):
    X=             -2.1294    Y=             21.3747    Z=            -24.0257  Tot=             32.2280
 Quadrupole moment (field-independent basis, Debye-Ang):
   XX=           -549.8092   YY=           -289.7983   ZZ=           -285.5011
   XY=            165.6075   XZ=             96.0709   YZ=             18.2226

  Exact polarizability:4236.015********1496.508-982.326 418.4981276.400
 Approx polarizability:********************************8631.4817474.421

                      1                      2                      3
                      A                      A                      A
 Frequencies --     14.5978                20.9390                30.8013
 Red. masses --      4.8268                 4.9125                 1.6021
 Frc consts  --      0.0006                 0.0013                 0.0009
 IR Inten    --      2.5752                 2.5835                 0.2649

                      4                      5                      6
                      A                      A                      A
 Frequencies --     35.9112                49.2024                76.2461
 Red. masses --      3.8989                 4.7120                 3.2006
 Frc consts  --      0.0030                 0.0067                 0.0110
 IR Inten    --      6.4467                 8.5076                 1.8519

                      7                      8                      9
                      A                      A                      A
 Frequencies --     79.0973                84.1272               102.5634
 Red. masses --      2.1425                 2.7557                 2.0847
 Frc consts  --      0.0079                 0.0115                 0.0129
 IR Inten    --      0.7240                 1.9401                 0.9894

                     10                     11                     12
                      A                      A                      A
 Frequencies --    117.8687               122.1696               125.8581
 Red. masses --      1.6173                 2.7446                 1.8131
 Frc consts  --      0.0132                 0.0241                 0.0169
 IR Inten    --      0.1558                 0.8643                 0.1476

                     13                     14                     15
                      A                      A                      A
 Frequencies --    129.5495               144.6183               159.6159
 Red. masses --      2.2787                 4.2699                 1.8339
 Frc consts  --      0.0225                 0.0526                 0.0275
 IR Inten    --      1.8542                 1.0781                 0.0125

                     16                     17                     18
                      A                      A                      A
 Frequencies --    168.0864               177.5260               202.4342
 Red. masses --      2.1183                 6.0911                 3.8505
 Frc consts  --      0.0353                 0.1131                 0.0930
 IR Inten    --      0.4561                 3.0982                 0.8058

                     19                     20                     21
                      A                      A                      A
 Frequencies --    246.0545               255.6175               261.9609
 Red. masses --      3.8166                 4.2763                 1.1140
 Frc consts  --      0.1361                 0.1646                 0.0450
 IR Inten    --      0.6070                 4.1527                 2.7764

                     22                     23                     24
                      A                      A                      A
 Frequencies --    308.5712               329.8558               337.9764
 Red. masses --      4.1981                 3.2405                 2.6586
 Frc consts  --      0.2355                 0.2077                 0.1789
 IR Inten    --      0.9796                 1.0324                 0.7577

                     25                     26                     27
                      A                      A                      A
 Frequencies --    346.5119               380.1873               384.8585
 Red. masses --      3.8857                 7.5141                 4.4042
 Frc consts  --      0.2749                 0.6399                 0.3843
 IR Inten    --      1.2370                56.3383                11.5870

                     28                     29                     30
                      A                      A                      A
 Frequencies --    420.0332               426.7356               445.4666
 Red. masses --      4.6443                 6.0463                 4.0347
 Frc consts  --      0.4828                 0.6487                 0.4717
 IR Inten    --     99.0626               267.8875               127.8942

                     31                     32                     33
                      A                      A                      A
 Frequencies --    456.6376               487.0675               491.9660
 Red. masses --      3.3475                 4.8422                 3.2947
 Frc consts  --      0.4113                 0.6768                 0.4698
 IR Inten    --     18.8992               411.5384                63.6606

                     34                     35                     36
                      A                      A                      A
 Frequencies --    523.9467               558.2745               636.0948
 Red. masses --      5.4551                 4.9352                 5.0618
 Frc consts  --      0.8823                 0.9063                 1.2067
 IR Inten    --    249.4034                17.6515                13.1507

                     37                     38                     39
                      A                      A                      A
 Frequencies --    671.9979               673.7307               686.0898
 Red. masses --      5.5429                 3.3663                 3.1441
 Frc consts  --      1.4748                 0.9003                 0.8720
 IR Inten    --      2.3600                 3.7396                24.8851

                     40                     41                     42
                      A                      A                      A
 Frequencies --    710.5738               722.2394               727.6368
 Red. masses --      2.5332                 1.0639                 1.0755
 Frc consts  --      0.7536                 0.3270                 0.3355
 IR Inten    --     38.0718                42.5241                 3.3456

                     43                     44                     45
                      A                      A                      A
 Frequencies --    732.9824               752.5497               765.8832
 Red. masses --      1.1333                 1.2070                 2.3582
 Frc consts  --      0.3587                 0.4027                 0.8150
 IR Inten    --      3.4010                 5.8986                14.3457

                     46                     47                     48
                      A                      A                      A
 Frequencies --    787.8778               793.3139               830.0745
 Red. masses --      1.3734                 2.9581                 1.9110
 Frc consts  --      0.5023                 1.0969                 0.7758
 IR Inten    --      5.5081                 1.1631                 2.9883

                     49                     50                     51
                      A                      A                      A
 Frequencies --    837.4415               859.3081               889.4500
 Red. masses --      1.7276                 1.6427                 1.9600
 Frc consts  --      0.7138                 0.7147                 0.9136
 IR Inten    --      0.0624                16.2687                13.9162

                     52                     53                     54
                      A                      A                      A
 Frequencies --    900.7859               928.5610               963.1504
 Red. masses --      2.0897                 1.7563                 1.2457
 Frc consts  --      0.9990                 0.8922                 0.6809
 IR Inten    --     32.9734                33.8531                 0.2070

                     55                     56                     57
                      A                      A                      A
 Frequencies --    966.6928               972.8910               982.4252
 Red. masses --      1.3653                 4.4887                 1.4990
 Frc consts  --      0.7517                 2.5032                 0.8524
 IR Inten    --      2.4814                 2.2141                30.9611

                     58                     59                     60
                      A                      A                      A
 Frequencies --    987.1871               999.5800              1009.5265
 Red. masses --      2.9912                 3.3800                 3.5436
 Frc consts  --      1.7175                 1.9898                 2.1278
 IR Inten    --     29.0591                 0.3508                 9.2683

                     61                     62                     63
                      A                      A                      A
 Frequencies --   1024.7300              1033.1565              1036.9969
 Red. masses --      2.0409                 2.6523                 1.3264
 Frc consts  --      1.2627                 1.6680                 0.8404
 IR Inten    --    495.3908                 6.9153                18.4511

                     64                     65                     66
                      A                      A                      A
 Frequencies --   1040.7244              1052.9890              1060.3341
 Red. masses --      1.5270                 2.6194                 2.1966
 Frc consts  --      0.9745                 1.7112                 1.4551
 IR Inten    --      3.2146                14.0473                 4.9049

                     67                     68                     69
                      A                      A                      A
 Frequencies --   1061.2838              1062.4029              1076.2256
 Red. masses --      2.2122                 1.6472                 2.8785
 Frc consts  --      1.4681                 1.0954                 1.9644
 IR Inten    --     15.8650                40.9349                43.4954

                     70                     71                     72
                      A                      A                      A
 Frequencies --   1099.4027              1132.0170              1133.3547
 Red. masses --      2.0037                 1.6976                 2.1973
 Frc consts  --      1.4269                 1.2817                 1.6629
 IR Inten    --     11.3289                39.1819                61.3654

                     73                     74                     75
                      A                      A                      A
 Frequencies --   1137.0439              1177.0457              1201.5857
 Red. masses --      1.7869                 2.7285                 1.8886
 Frc consts  --      1.3611                 2.2272                 1.6066
 IR Inten    --    155.1056               534.4084                23.3721

                     76                     77                     78
                      A                      A                      A
 Frequencies --   1206.3790              1221.5038              1230.0836
 Red. masses --      1.9342                 1.2572                 2.3637
 Frc consts  --      1.6585                 1.1052                 2.1072
 IR Inten    --      2.7326                 7.0394                19.9541

                     79                     80                     81
                      A                      A                      A
 Frequencies --   1241.3204              1259.1932              1266.3886
 Red. masses --      1.8978                 1.3030                 1.9664
 Frc consts  --      1.7229                 1.2172                 1.8580
 IR Inten    --     61.5289                 0.0635                24.5160

                     82                     83                     84
                      A                      A                      A
 Frequencies --   1276.4095              1295.7402              1303.9348
 Red. masses --      1.4571                 1.3210                 1.2700
 Frc consts  --      1.3987                 1.3067                 1.2722
 IR Inten    --      8.7520                 4.8142                 2.4714

                     85                     86                     87
                      A                      A                      A
 Frequencies --   1317.8830              1323.6640              1324.9648
 Red. masses --      1.0275                 1.1650                 1.0719
 Frc consts  --      1.0515                 1.2026                 1.1087
 IR Inten    --     50.1180                 9.6185                66.3192

                     88                     89                     90
                      A                      A                      A
 Frequencies --   1330.0203              1333.4164              1334.0564
 Red. masses --      1.3360                 1.0992                 1.1168
 Frc consts  --      1.3925                 1.1515                 1.1710
 IR Inten    --      5.4889                31.1055                 3.0303

                     91                     92                     93
                      A                      A                      A
 Frequencies --   1348.1704              1355.7553              1366.3190
 Red. masses --      8.6139                 1.4145                 1.3682
 Frc consts  --      9.2244                 1.5318                 1.5049
 IR Inten    --    971.9371                11.7602                93.1658

                     94                     95                     96
                      A                      A                      A
 Frequencies --   1371.5176              1384.2210              1390.8915
 Red. masses --      1.4686                 1.5594                 1.5705
 Frc consts  --      1.6277                 1.7604                 1.7901
 IR Inten    --     16.2936                39.8529               149.5840

                     97                     98                     99
                      A                      A                      A
 Frequencies --   1392.3679              1403.0570              1409.4154
 Red. masses --      1.5674                 1.2739                 2.6848
 Frc consts  --      1.7903                 1.4775                 3.1422
 IR Inten    --     83.1113               459.6189                58.8893

                    100                    101                    102
                      A                      A                      A
 Frequencies --   1439.3385              1447.3654              1455.9646
 Red. masses --      2.2813                 4.1507                 3.0901
 Frc consts  --      2.7846                 5.1231                 3.8595
 IR Inten    --    303.0914              2954.6485               750.4446

                    103                    104                    105
                      A                      A                      A
 Frequencies --   1474.1999              1478.7705              1480.7801
 Red. masses --      1.5229                 1.0624                 1.0964
 Frc consts  --      1.9500                 1.3687                 1.4164
 IR Inten    --     34.7850                 6.5316                11.3165

                    106                    107                    108
                      A                      A                      A
 Frequencies --   1481.3201              1482.0526              1484.2575
 Red. masses --      1.1865                 1.1651                 1.0776
 Frc consts  --      1.5339                 1.5078                 1.3987
 IR Inten    --    201.9495               201.7797                 6.2024

                    109                    110                    111
                      A                      A                      A
 Frequencies --   1486.4569              1487.6706              1493.6719
 Red. masses --      1.0402                 1.0862                 1.0900
 Frc consts  --      1.3542                 1.4163                 1.4328
 IR Inten    --    439.6336                39.7845                32.0445

                    112                    113                    114
                      A                      A                      A
 Frequencies --   1496.8757              1500.3792              1505.9082
 Red. masses --      1.2374                 1.1256                 2.5760
 Frc consts  --      1.6335                 1.4930                 3.4418
 IR Inten    --    700.5059                58.6343               220.5265

                    115                    116                    117
                      A                      A                      A
 Frequencies --   1506.6213              1512.1785              1513.9146
 Red. masses --      1.1551                 1.1031                 2.8939
 Frc consts  --      1.5449                 1.4862                 3.9079
 IR Inten    --    126.3577                 9.1964              2105.9975

                    118                    119                    120
                      A                      A                      A
 Frequencies --   1581.1838              1600.7362              2959.6609
 Red. masses --      7.2239                 5.6225                 1.0536
 Frc consts  --     10.6412                 8.4882                 5.4377
 IR Inten    --   6473.2704                 4.4471               345.2472

                    121                    122                    123
                      A                      A                      A
 Frequencies --   2974.2492              2982.3808              2985.0827
 Red. masses --      1.0614                 1.0575                 1.0567
 Frc consts  --      5.5319                 5.5419                 5.5475
 IR Inten    --     13.4072                 3.1518                 1.8917

                    124                    125                    126
                      A                      A                      A
 Frequencies --   2986.5376              2987.8383              2990.5511
 Red. masses --      1.0493                 1.0563                 1.0513
 Frc consts  --      5.5142                 5.5558                 5.5395
 IR Inten    --      6.8476                 8.8208                12.8684

                    127                    128                    129
                      A                      A                      A
 Frequencies --   2993.3526              2993.7131              2998.3201
 Red. masses --      1.0631                 1.0733                 1.0793
 Frc consts  --      5.6122                 5.6676                 5.7165
 IR Inten    --     60.3983                 5.1224                30.2737

                    130                    131                    132
                      A                      A                      A
 Frequencies --   2999.3311              3000.9485              3003.4528
 Red. masses --      1.0776                 1.0725                 1.0921
 Frc consts  --      5.7114                 5.6904                 5.8042
 IR Inten    --     94.2857                26.8930                39.5536

                    133                    134                    135
                      A                      A                      A
 Frequencies --   3004.7995              3007.4036              3011.0412
 Red. masses --      1.0811                 1.0843                 1.0982
 Frc consts  --      5.7510                 5.7782                 5.8666
 IR Inten    --    105.5301                77.6994                15.1609

                    136                    137                    138
                      A                      A                      A
 Frequencies --   3022.5047              3033.3831              3036.2286
 Red. masses --      1.1036                 1.1028                 1.0976
 Frc consts  --      5.9399                 5.9786                 5.9616
 IR Inten    --      9.6427                 7.5758                13.4019

                    139                    140                    141
                      A                      A                      A
 Frequencies --   3043.5916              3051.3054              3052.3930
 Red. masses --      1.1051                 1.1008                 1.1021
 Frc consts  --      6.0314                 6.0383                 6.0499
 IR Inten    --     55.6671                59.6900                 1.9793

                    142                    143                    144
                      A                      A                      A
 Frequencies --   3062.0250              3092.6659              3107.3213
 Red. masses --      1.1019                 1.0935                 1.0833
 Frc consts  --      6.0868                 6.1620                 6.1629
 IR Inten    --     54.7524                15.8065                27.2256

                    145                    146                    147
                      A                      A                      A
 Frequencies --   3129.4250              3166.4309              3168.8458
 Red. masses --      1.0909                 1.0905                 1.0918
 Frc consts  --      6.2948                 6.4422                 6.4597
 IR Inten    --    354.5396                17.9960               296.8036

 - Thermochemistry -
 -------------------
 Temperature   298.150 Kelvin.  Pressure   1.00000 Atm.
 Atom     1 has atomic number  6 and mass  12.00000

 Molecular mass:   312.20893 amu.
 Principal axes and moments of inertia in atomic units:
                           1         2         3
     Eigenvalues --  2623.84402********************
           X            0.86566   0.28752   0.40984
           Y           -0.40414  -0.08183   0.91103
           Z           -0.29547   0.95427  -0.04536
 This molecule is an asymmetric top.
 Rotational symmetry number  1.
 Warning -- assumption of classical behavior for rotation
           may cause significant error
 Rotational temperatures (Kelvin)      0.03301     0.00276     0.00264
 Rotational constants (GHZ):           0.68782     0.05758     0.05497
 Zero-point vibrational energy    1148782.1 (Joules/Mol)
                                  274.56552 (Kcal/Mol)
 Warning -- explicit consideration of  35 degrees of freedom as
           vibrations may cause significant error
 Vibrational temperatures:     21.00    30.13    44.32    51.67    70.79
          (Kelvin)            109.70   113.80   121.04   147.57   169.59
                              175.77   181.08   186.39   208.07   229.65
                              241.84   255.42   291.26   354.02   367.78
                              376.90   443.97   474.59   486.27   498.55
                              547.00   553.73   604.33   613.98   640.93
                              657.00   700.78   707.83   753.84   803.23
                              915.20   966.86   969.35   987.13  1022.36
                             1039.14  1046.91  1054.60  1082.75  1101.94
                             1133.58  1141.40  1194.29  1204.89  1236.35
                             1279.72  1296.03  1335.99  1385.76  1390.86
                             1399.77  1413.49  1420.34  1438.17  1452.48
                             1474.36  1486.48  1492.01  1497.37  1515.02
                             1525.58  1526.95  1528.56  1548.45  1581.80
                             1628.72  1630.64  1635.95  1693.51  1728.81
                             1735.71  1757.47  1769.82  1785.98  1811.70
                             1822.05  1836.47  1864.28  1876.07  1896.14
                             1904.46  1906.33  1913.60  1918.49  1919.41
                             1939.72  1950.63  1965.83  1973.31  1991.59
                             2001.18  2003.31  2018.69  2027.83  2070.89
                             2082.44  2094.81  2121.04  2127.62  2130.51
                             2131.29  2132.34  2135.52  2138.68  2140.43
                             2149.06  2153.67  2158.71  2166.67  2167.69
                             2175.69  2178.19  2274.97  2303.10  4258.29
                             4279.28  4290.98  4294.87  4296.96  4298.83
                             4302.74  4306.77  4307.29  4313.91  4315.37
                             4317.70  4321.30  4323.24  4326.98  4332.22
                             4348.71  4364.36  4368.46  4379.05  4390.15
                             4391.71  4405.57  4449.66  4470.74  4502.54
                             4555.79  4559.26

 Zero-point correction=                           0.437548 (Hartree/Particle)
 Thermal correction to Energy=                    0.461864
 Thermal correction to Enthalpy=                  0.462809
 Thermal correction to Gibbs Free Energy=         0.380277
 Sum of electronic and zero-point Energies=           -967.394605
 Sum of electronic and thermal Energies=              -967.370288
 Sum of electronic and thermal Enthalpies=            -967.369344
 Sum of electronic and thermal Free Energies=         -967.451876

                     E (Thermal)             CV                S
                      KCal/Mol        Cal/Mol-Kelvin    Cal/Mol-Kelvin
 Total                  289.824             90.781            173.703
 Electronic               0.000              0.000              0.000
 Translational            0.889              2.981             43.112
 Rotational               0.889              2.981             36.244
 Vibrational            288.047             84.820             94.348
 Vibration     1          0.593              1.986              7.260
 Vibration     2          0.593              1.986              6.543
 Vibration     3          0.594              1.984              5.777
 Vibration     4          0.594              1.982              5.473
 Vibration     5          0.595              1.978              4.849
 Vibration     6          0.599              1.965              3.985
 Vibration     7          0.600              1.963              3.913
 Vibration     8          0.601              1.960              3.792
 Vibration     9          0.605              1.947              3.405
 Vibration    10          0.608              1.934              3.135
 Vibration    11          0.610              1.931              3.066
 Vibration    12          0.611              1.927              3.008
 Vibration    13          0.612              1.924              2.953
 Vibration    14          0.616              1.908              2.742
 Vibration    15          0.621              1.892              2.554
 Vibration    16          0.625              1.882              2.457
 Vibration    17          0.628              1.870              2.354
 Vibration    18          0.639              1.836              2.111
 Vibration    19          0.661              1.769              1.759
 Vibration    20          0.666              1.753              1.692
 Vibration    21          0.669              1.742              1.649
 Vibration    22          0.698              1.657              1.370
 Vibration    23          0.713              1.616              1.261
 Vibration    24          0.718              1.600              1.222
 Vibration    25          0.725              1.582              1.182
 Vibration    26          0.750              1.512              1.038
 Vibration    27          0.754              1.503              1.020
 Vibration    28          0.783              1.427              0.892
 Vibration    29          0.788              1.412              0.869
 Vibration    30          0.805              1.371              0.810
 Vibration    31          0.815              1.346              0.776
 Vibration    32          0.843              1.279              0.691
 Vibration    33          0.848              1.268              0.679
 Vibration    34          0.879              1.197              0.601
 Vibration    35          0.914              1.122              0.527

 Optimization completed.
    -- Stationary point found.
 Normal termination of Gaussian 16 at Mon Jan  8 04:19:55 2024.
