 Q-Chem 5.4, Q-Chem, Inc., Pleasanton, CA (2021)
 Q-Chem 5.4.0 for Intel X86 EM64T Linux

User input:
--------------------------------------------------------------
$molecule
-2 1
C                  5.8746170000     -5.6568880000      0.5319670000
C                  6.0158510000     -5.8635210000     -0.8289930000
C                  5.2822010000     -5.0669160000     -1.7391050000
C                  5.0108010000     -4.6648650000      1.0448540000
C                  4.2679090000     -3.8599970000      0.1235570000
C                  4.4285300000     -4.0889310000     -1.2599840000
C                  4.8961980000     -4.4794060000      2.4910370000
C                  3.9872120000     -3.4459890000      2.9198170000
C                  3.2647920000     -2.6503870000      2.0148700000
C                  3.3554300000     -2.8165630000      0.5874430000
O                  5.5692600000     -5.1976020000      3.3068300000
O                  2.6872680000     -2.0986020000     -0.2313310000
H                  6.6873930000     -6.6353090000     -1.1987020000
C                  2.3345170000     -1.5553640000      2.4893310000
H                  5.3886870000     -5.2241360000     -2.8101480000
C                  3.8610860000     -3.2492610000      4.4137480000
C                  0.8562850000     -1.9864540000      2.5917380000
C                 -0.0732530000     -0.8517970000      3.0408080000
C                 -1.5491780000     -1.2535500000      3.1643250000
H                  6.4236980000     -6.2504290000      1.2555640000
H                  3.8501920000     -3.4624500000     -1.9311990000
H                  2.3882680000     -0.7357110000      1.7639860000
H                  2.6575090000     -1.1655020000      3.4620160000
H                  4.3878230000     -4.0628880000      4.9156600000
H                  2.8162940000     -3.2373550000      4.7485220000
H                  4.3110350000     -2.3021540000      4.7474400000
H                  0.7688110000     -2.8281500000      3.2910950000
H                  0.5445880000     -2.3551900000      1.6091540000
H                  0.0140690000     -0.0181020000      2.3310430000
H                  0.2719150000     -0.4623700000      4.0096620000
H                 -1.6371490000     -2.0924890000      3.8678270000
H                 -1.9012290000     -1.6329690000      2.1961640000
C                 -2.4654250000     -0.1121610000      3.6251860000
C                 -3.9417100000     -0.5053690000      3.7684240000
C                 -4.8449330000      0.6428200000      4.2374250000
C                 -6.3217840000      0.2562900000      4.3904580000
C                 -7.2154020000      1.4095770000      4.8657810000
C                 -8.6897190000      1.0259550000      5.0228860000
H                 -2.3830280000      0.7232800000      2.9169350000
H                 -2.1027370000      0.2727440000      4.5881350000
H                 -4.0255750000     -1.3418070000      4.4750790000
H                 -4.3100130000     -0.8856740000      2.8064220000
H                 -4.7629690000      1.4781520000      3.5290780000
H                 -4.4722500000      1.0241660000      5.1976810000
H                 -6.4072540000     -0.5790810000      5.0976970000
H                 -6.7005840000     -0.1205950000      3.4314370000
H                 -7.1312790000      2.2451840000      4.1589900000
H                 -6.8353580000      1.7878230000      5.8236050000
H                 -9.1184610000      0.6819040000      4.0746140000
H                 -9.2950550000      1.8730980000      5.3632980000
H                 -8.8190870000      0.2210220000      5.7555390000
$end
$rem
MAX_SCF_CYCLES=200
SCF_Guess=core
BASIS  =  6-311++G(d,p)
GUI  =  2
JOB_TYPE  =  SP
METHOD  =  B3LYP
THRESH = 14
SCF_CONVERGENCE = 8
SOLVENT_METHOD = COSMO
$end
$solvent
dielectric 37.219
opticaldielectric 1.43
$end

--------------------------------------------------------------

             Standard Nuclear Orientation (Angstroms)
    I     Atom           X                Y                Z
 ----------------------------------------------------------------
    1      C       6.2922624770     0.0209080551    -0.9371080116
    2      C       6.8992061688     1.2636955862    -0.9813219080
    3      C       6.2113350519     2.3979434297    -0.4899555915
    4      C       4.9932534733    -0.1507473564    -0.4113221072
    5      C       4.2973473116     0.9974109761     0.0845974840
    6      C       4.9367250515     2.2546022230     0.0292634513
    7      C       4.3927722634    -1.4839732924    -0.3812375920
    8      C       3.0627698897    -1.5595115597     0.1696219079
    9      C       2.3835120082    -0.4335671738     0.6642533281
   10      C       2.9499335700     0.8900644193     0.6409387321
   11      O       5.0244093136    -2.5054948494    -0.8192610096
   12      O       2.3235171839     1.9129659979     1.0809094022
   13      H       7.9007464670     1.3694445426    -1.3924718912
   14      C       0.9968028499    -0.5425057215     1.2598792928
   15      H       6.6827745100     3.3777024965    -0.5216969353
   16      C       2.4336852357    -2.9341478325     0.2022887432
   17      C      -0.1411922770    -0.2305825871     0.2653107044
   18      C      -1.5357168922    -0.3130482829     0.8990707320
   19      C      -2.6897400629    -0.0200924638    -0.0691358252
   20      H       6.7934927671    -0.8682901509    -1.3051680995
   21      H       4.3814368189     3.1045682063     0.4122721560
   22      H       0.9276135668     0.1844950214     2.0769033697
   23      H       0.8330246258    -1.5407537396     1.6830930782
   24      H       3.0694678239    -3.6192025856    -0.3614815148
   25      H       1.4246207249    -2.9439899704    -0.2284056411
   26      H       2.3442537312    -3.3257863105     1.2267092776
   27      H      -0.0846989210    -0.9242301976    -0.5837273181
   28      H       0.0267969625     0.7750909311    -0.1334285146
   29      H      -1.5860536570     0.3900650059     1.7414107781
   30      H      -1.6789699738    -1.3142206849     1.3310484930
   31      H      -2.6360090641    -0.7173720507    -0.9161226988
   32      H      -2.5566828041     0.9830793975    -0.4947840236
   33      C      -4.0789309815    -0.1173022491     0.5753555438
   34      C      -5.2425201906     0.1574947910    -0.3864624205
   35      C      -6.6255593200     0.0491046601     0.2689504658
   36      C      -7.7952144225     0.3151495373    -0.6876270170
   37      C      -9.1738441835     0.1982152877    -0.0241043331
   38      C     -10.3436738490     0.4598120872    -0.9772696411
   39      H      -4.1346852068     0.5859316583     1.4172129824
   40      H      -4.2034385613    -1.1183029242     1.0106264159
   41      H      -5.1871665045    -0.5438465368    -1.2297177000
   42      H      -5.1250089239     1.1595393041    -0.8198499340
   43      H      -6.6816166699     0.7525511352     1.1105404788
   44      H      -6.7391781619    -0.9525036430     0.7051620449
   45      H      -7.7418532737    -0.3862076432    -1.5305905541
   46      H      -7.6890560140     1.3176666629    -1.1223025590
   47      H      -9.2285998647     0.8995579831     0.8185044102
   48      H      -9.2791188274    -0.8034427806     0.4123915513
   49      H     -10.2971790734     1.4688895548    -1.4027240799
   50      H     -11.3095039753     0.3671635352    -0.4687898695
   51      H     -10.3480995305    -0.2509006055    -1.8117164723
 ----------------------------------------------------------------

   76    -967.8323550723      9.30e-09  Convergence criterion met
 Total energy in the final basis set =     -967.8323550723
   12    -968.0838317551      4.80e-09  Convergence criterion met
 Total energy in the final basis set =     -968.0838317551

                    Orbital Energies (a.u.)
 --------------------------------------------------------------

 Alpha MOs
 -- Occupied --
-19.0156 -19.0146 -10.1643 -10.1634 -10.1569 -10.1543 -10.1540 -10.1534
-10.1526 -10.1510 -10.1506 -10.1481 -10.1461 -10.1456 -10.1430 -10.1429
-10.1424 -10.1350 -10.1316 -10.1313 -10.1308 -10.1228 -10.1191  -0.9397
 -0.9364  -0.8234  -0.8042  -0.7898  -0.7761  -0.7554  -0.7288  -0.7196
 -0.7160  -0.6895  -0.6603  -0.6340  -0.6169  -0.5970  -0.5727  -0.5693
 -0.5642  -0.5609  -0.5459  -0.5160  -0.4809  -0.4757  -0.4601  -0.4568
 -0.4377  -0.4285  -0.4264  -0.4211  -0.4133  -0.4057  -0.3997  -0.3967
 -0.3918  -0.3819  -0.3787  -0.3724  -0.3704  -0.3640  -0.3606  -0.3515
 -0.3485  -0.3473  -0.3379  -0.3321  -0.3298  -0.3239  -0.3191  -0.3174
 -0.3148  -0.3135  -0.3129  -0.3107  -0.3051  -0.3025  -0.2970  -0.2864
 -0.2284  -0.2235  -0.2014  -0.1999  -0.1894  -0.1046

          Ground-State Mulliken Net Atomic Charges

     Atom                 Charge (a.u.)
  ----------------------------------------
      1 C                     0.093316
      2 C                    -0.501619
      3 C                    -0.495954
      4 C                     0.185748
      5 C                    -0.172731
      6 C                    -0.009663
      7 C                    -0.688280
      8 C                     0.873767
      9 C                     0.994393
     10 C                    -0.921331
     11 O                    -0.731383
     12 O                    -0.703675
     13 H                     0.171281
     14 C                    -0.418010
     15 H                     0.171479
     16 C                    -0.573894
     17 C                    -0.981642
     18 C                    -0.270182
     19 C                    -0.065629
     20 H                     0.156841
     21 H                     0.153640
     22 H                     0.176285
     23 H                     0.168053
     24 H                     0.163869
     25 H                     0.144928
     26 H                     0.156284
     27 H                     0.126472
     28 H                     0.192442
     29 H                     0.121825
     30 H                     0.107011
     31 H                     0.131186
     32 H                     0.129052
     33 C                     0.064540
     34 C                    -0.039281
     35 C                    -0.232230
     36 C                    -0.449805
     37 C                    -0.284366
     38 C                    -0.717300
     39 H                     0.134367
     40 H                     0.133297
     41 H                     0.133875
     42 H                     0.135204
     43 H                     0.130812
     44 H                     0.130793
     45 H                     0.128903
     46 H                     0.129660
     47 H                     0.136321
     48 H                     0.136137
     49 H                     0.145753
     50 H                     0.153552
     51 H                     0.145889
  ----------------------------------------
  Sum of atomic charges =    -2.000000

                    Cartesian Multipole Moments
 -----------------------------------------------------------------
    Charge (ESU x 10^10)
                -9.6064
    Dipole Moment (Debye)
         X     -37.2680      Y       1.4132      Z      -0.5403
       Tot      37.2987
    Quadrupole Moments (Debye-Ang)
        XX    -322.6234     XY      24.3480     YY    -192.7775
        XZ       7.6843     YZ     -13.7756     ZZ    -163.9125

 Total job time:  1643.79s(wall), 12575.97s(cpu)
        *  Thank you very much for using Q-Chem.  Have a nice day.  *
