 Q-Chem 5.4, Q-Chem, Inc., Pleasanton, CA (2021)
 Q-Chem 5.4.0 for Intel X86 EM64T Linux

User input:
--------------------------------------------------------------
$molecule
-2 1
C                 -0.5597960000      0.1460210000      2.1187750000
C                 -0.5500200000     -0.9598560000      1.1869220000
C                  0.1710760000     -0.9543360000      0.0140060000
C                  1.0147790000      0.1413690000     -0.4241800000
C                  1.0166060000      1.2762720000      0.4988550000
C                  0.2364390000      1.2393410000      1.6918580000
O                 -1.2250280000      0.1057700000      3.2302400000
O                  1.6182230000      0.0869660000     -1.5452630000
H                 -1.1519180000     -1.8292830000      1.4567670000
H                  0.1387050000     -1.8122350000     -0.6578850000
C                  1.8219510000      2.4580290000      0.1756290000
C                  1.2333910000      3.9261260000      0.3692520000
C                 -0.2978720000      4.0019310000      0.2347040000
C                  1.6779040000      4.4730070000      1.7442790000
C                  1.8555240000      4.8228870000     -0.7204590000
O                  2.9701670000      2.4058390000     -0.2724710000
H                 -0.6137840000      3.6282770000     -0.7448400000
H                 -0.6314750000      5.0454730000      0.3273970000
H                 -0.8073690000      3.4009530000      0.9875160000
H                  1.2207920000      3.9228770000      2.5692950000
H                  1.3989000000      5.5333600000      1.8463050000
H                  2.7654330000      4.3987610000      1.8459050000
H                  1.5669200000      4.4786920000     -1.7186350000
H                  2.9450610000      4.7972030000     -0.6694320000
H                  1.5131560000      5.8598920000     -0.5997590000
H                  0.2978540000      2.0652850000      2.3945600000
$end

$rem
BASIS  =  6-311++G(d,p)
GUI  =  2
JOB_TYPE  =  SP
METHOD  =  B3LYP
SCF_CONVERGENCE  = 8
SOLVENT_METHOD = sm12
$end

$smx
solvent dimethylformamide
charges CM5
$end

--------------------------------------------------------------

             Standard Nuclear Orientation (Angstroms)
    I     Atom           X                Y                Z
 ----------------------------------------------------------------
    1      C      -0.5597960000     0.1460210000     2.1187750000
    2      C      -0.5500200000    -0.9598560000     1.1869220000
    3      C       0.1710760000    -0.9543360000     0.0140060000
    4      C       1.0147790000     0.1413690000    -0.4241800000
    5      C       1.0166060000     1.2762720000     0.4988550000
    6      C       0.2364390000     1.2393410000     1.6918580000
    7      O      -1.2250280000     0.1057700000     3.2302400000
    8      O       1.6182230000     0.0869660000    -1.5452630000
    9      H      -1.1519180000    -1.8292830000     1.4567670000
   10      H       0.1387050000    -1.8122350000    -0.6578850000
   11      C       1.8219510000     2.4580290000     0.1756290000
   12      C       1.2333910000     3.9261260000     0.3692520000
   13      C      -0.2978720000     4.0019310000     0.2347040000
   14      C       1.6779040000     4.4730070000     1.7442790000
   15      C       1.8555240000     4.8228870000    -0.7204590000
   16      O       2.9701670000     2.4058390000    -0.2724710000
   17      H      -0.6137840000     3.6282770000    -0.7448400000
   18      H      -0.6314750000     5.0454730000     0.3273970000
   19      H      -0.8073690000     3.4009530000     0.9875160000
   20      H       1.2207920000     3.9228770000     2.5692950000
   21      H       1.3989000000     5.5333600000     1.8463050000
   22      H       2.7654330000     4.3987610000     1.8459050000
   23      H       1.5669200000     4.4786920000    -1.7186350000
   24      H       2.9450610000     4.7972030000    -0.6694320000
   25      H       1.5131560000     5.8598920000    -0.5997590000
   26      H       0.2978540000     2.0652850000     2.3945600000
 ----------------------------------------------------------------

   18    -652.1964601043      9.34e-09  Convergence criterion met
 Total energy in the final basis set =     -652.4872617174

                    Orbital Energies (a.u.)
 --------------------------------------------------------------

 Alpha MOs
 -- Occupied --
-19.0878 -19.0275 -19.0214 -10.2375 -10.1958 -10.1924 -10.1845 -10.1721
-10.1664 -10.1641 -10.1548 -10.1506 -10.1472 -10.1405  -1.0156  -0.9478
 -0.9328  -0.8202  -0.7955  -0.7346  -0.6969  -0.6895  -0.6662  -0.6221
 -0.5830  -0.5537  -0.4962  -0.4757  -0.4525  -0.4488  -0.4435  -0.4403
 -0.4255  -0.4076  -0.4018  -0.3896  -0.3756  -0.3748  -0.3665  -0.3608
 -0.3546  -0.3496  -0.3379  -0.3301  -0.3256  -0.3194  -0.2432  -0.2365
 -0.2313  -0.1989  -0.1955  -0.1297

          Ground-State Mulliken Net Atomic Charges

     Atom                 Charge (a.u.)
  ----------------------------------------
      1 C                    -1.475091
      2 C                    -0.293531
      3 C                    -0.488034
      4 C                    -1.195294
      5 C                     0.720337
      6 C                    -1.988456
      7 O                    -0.428519
      8 O                    -0.317974
      9 H                     0.070297
     10 H                     0.068632
     11 C                    -0.059485
     12 C                     1.466095
     13 C                    -0.329719
     14 C                     0.276082
     15 C                     0.540137
     16 O                    -0.122448
     17 H                     0.011157
     18 H                     0.368494
     19 H                     0.015504
     20 H                     0.208678
     21 H                     0.389653
     22 H                     0.195850
     23 H                     0.055270
     24 H                     0.248338
     25 H                     0.374347
     26 H                    -0.310321
  ----------------------------------------
  Sum of atomic charges =    -2.000000

                    Cartesian Multipole Moments
 -----------------------------------------------------------------
    Charge (ESU x 10^10)
                -9.6064
    Dipole Moment (Debye)
         X      -5.3075      Y      -4.3302      Z      -7.4793
       Tot      10.1420
    Quadrupole Moments (Debye-Ang)
        XX    -126.3089     XY     -12.4245     YY    -112.4050
        XZ      24.9611     YZ       0.1488     ZZ    -143.4397

 Total job time:  536.40s(wall), 4122.91s(cpu)
        *  Thank you very much for using Q-Chem.  Have a nice day.  *
