 Q-Chem 5.4, Q-Chem, Inc., Pleasanton, CA (2021)
 Q-Chem 5.4.0 for Intel X86 EM64T Linux

User input:
--------------------------------------------------------------
$molecule
-2 1
C                 -0.9280540000      2.1397990000      0.0110600000
C                 -2.0553870000      1.2817760000      0.0967840000
C                 -2.0110780000     -0.1002340000      0.1791770000
C                 -0.8336340000     -0.8879970000      0.1886520000
C                  0.3393610000     -0.0441890000      0.0833320000
C                  0.2959370000      1.3666960000      0.0004410000
O                 -0.9850000000      3.4356870000     -0.0347450000
O                 -0.8056340000     -2.1842760000      0.2670320000
C                  1.5758130000      2.1641320000     -0.1009160000
C                  1.6657130000     -0.7677600000      0.0453710000
O                 -3.3414910000     -0.5867720000      0.3017290000
O                 -3.4077240000      1.6959670000      0.2056420000
C                 -4.1113540000      0.5167060000     -0.1219300000
H                  2.1689040000      1.9106500000     -0.9956510000
H                  2.2444720000      2.0069980000      0.7625750000
H                  1.3112550000      3.2245060000     -0.1460560000
H                  1.4664340000     -1.8417630000      0.1021180000
H                  2.3281370000     -0.4895660000      0.8820670000
H                  2.2361550000     -0.5624900000     -0.8765100000
H                 -4.2435120000      0.4658960000     -1.2256500000
H                 -5.0843320000      0.5150230000      0.3813780000
$end
$rem
MAX_SCF_CYCLES=200
BASIS  =  6-311++G(d,p)
GUI  =  2
JOB_TYPE  =  SP
METHOD  =  B3LYP
SOLVENT_METHOD = PCM
$end
$pcm
theory = CPCM
$end
$solvent
dielectric 37.219
opticaldielectric 1.43
$end

--------------------------------------------------------------

             Standard Nuclear Orientation (Angstroms)
    I     Atom           X                Y                Z
 ----------------------------------------------------------------
    1      C      -0.9280540000     2.1397990000     0.0110600000
    2      C      -2.0553870000     1.2817760000     0.0967840000
    3      C      -2.0110780000    -0.1002340000     0.1791770000
    4      C      -0.8336340000    -0.8879970000     0.1886520000
    5      C       0.3393610000    -0.0441890000     0.0833320000
    6      C       0.2959370000     1.3666960000     0.0004410000
    7      O      -0.9850000000     3.4356870000    -0.0347450000
    8      O      -0.8056340000    -2.1842760000     0.2670320000
    9      C       1.5758130000     2.1641320000    -0.1009160000
   10      C       1.6657130000    -0.7677600000     0.0453710000
   11      O      -3.3414910000    -0.5867720000     0.3017290000
   12      O      -3.4077240000     1.6959670000     0.2056420000
   13      C      -4.1113540000     0.5167060000    -0.1219300000
   14      H       2.1689040000     1.9106500000    -0.9956510000
   15      H       2.2444720000     2.0069980000     0.7625750000
   16      H       1.3112550000     3.2245060000    -0.1460560000
   17      H       1.4664340000    -1.8417630000     0.1021180000
   18      H       2.3281370000    -0.4895660000     0.8820670000
   19      H       2.2361550000    -0.5624900000    -0.8765100000
   20      H      -4.2435120000     0.4658960000    -1.2256500000
   21      H      -5.0843320000     0.5150230000     0.3813780000
 ----------------------------------------------------------------

    9    -649.0675338543      4.98e-06  Convergence criterion met
 Total energy in the final basis set =     -649.0675338543

                    Orbital Energies (a.u.)
 --------------------------------------------------------------

 Alpha MOs
 -- Occupied --
-19.1333 -19.1332 -19.0183 -19.0181 -10.2589 -10.1756 -10.1750 -10.1719
-10.1718 -10.1342 -10.1340 -10.1268 -10.1263  -1.0919  -0.9964  -0.9309
 -0.9270  -0.7910  -0.7417  -0.6969  -0.6624  -0.6405  -0.6019  -0.5518
 -0.5399  -0.4950  -0.4759  -0.4607  -0.4283  -0.4074  -0.4029  -0.3731
 -0.3682  -0.3653  -0.3651  -0.3592  -0.3524  -0.3494  -0.3310  -0.3192
 -0.3129  -0.2986  -0.2920  -0.2153  -0.2036  -0.1981  -0.1750  -0.1183

          Ground-State Mulliken Net Atomic Charges

     Atom                 Charge (a.u.)
  ----------------------------------------
      1 C                    -0.826957
      2 C                     0.210545
      3 C                     0.253828
      4 C                    -0.837781
      5 C                     0.536926
      6 C                     0.550033
      7 O                    -0.772011
      8 O                    -0.772971
      9 C                    -0.493895
     10 C                    -0.494407
     11 O                    -0.257824
     12 O                    -0.249811
     13 C                    -0.059451
     14 H                     0.134171
     15 H                     0.136019
     16 H                     0.162317
     17 H                     0.162229
     18 H                     0.136023
     19 H                     0.134124
     20 H                     0.161814
     21 H                     0.187079
  ----------------------------------------
  Sum of atomic charges =    -2.000000

                    Cartesian Multipole Moments
 -----------------------------------------------------------------
    Charge (ESU x 10^10)
                -9.6064
    Dipole Moment (Debye)
         X      10.0574      Y      -5.9711      Z      -1.8620
       Tot      11.8437
    Quadrupole Moments (Debye-Ang)
        XX     -97.5924     XY       8.4387     YY    -157.2710
        XZ       4.2326     YZ       2.6109     ZZ     -84.1757

 Total job time:  23.26s(wall), 177.07s(cpu)
        *  Thank you very much for using Q-Chem.  Have a nice day.  *
