 Gaussian 16, Revision A.03,
 Gaussian 16:  ES64L-G16RevA.03 25-Dec-2016

 --------------------------------------
 #P UB3LYP/6-311++G(d,p) nosym opt freq
 --------------------------------------

 -------
 Reduced
 -------
 Symbolic Z-matrix:
 Charge = -2 Multiplicity = 1

 SCF Done:  E(UB3LYP) =  -1896.93919426     A.U. after   29 cycles
 SCF Done:  E(UB3LYP) =  -1896.98977289     A.U. after   20 cycles
 SCF Done:  E(UB3LYP) =  -1897.01714910     A.U. after   18 cycles
 SCF Done:  E(UB3LYP) =  -1897.02015886     A.U. after   18 cycles
 SCF Done:  E(UB3LYP) =  -1897.02188061     A.U. after   18 cycles
 SCF Done:  E(UB3LYP) =  -1897.02418000     A.U. after   23 cycles
 SCF Done:  E(UB3LYP) =  -1897.02602083     A.U. after   18 cycles
 SCF Done:  E(UB3LYP) =  -1897.02733289     A.U. after   19 cycles
 SCF Done:  E(UB3LYP) =  -1897.02765401     A.U. after   20 cycles
 SCF Done:  E(UB3LYP) =  -1897.02793192     A.U. after   17 cycles
 SCF Done:  E(UB3LYP) =  -1897.02798000     A.U. after   15 cycles
 SCF Done:  E(UB3LYP) =  -1897.02800861     A.U. after   15 cycles
 SCF Done:  E(UB3LYP) =  -1897.02801965     A.U. after   15 cycles
 SCF Done:  E(UB3LYP) =  -1897.02802350     A.U. after   13 cycles
 SCF Done:  E(UB3LYP) =  -1897.02802454     A.U. after   12 cycles
 SCF Done:  E(UB3LYP) =  -1897.02802462     A.U. after   12 cycles
 Optimization completed.
    -- Stationary point found.
 Normal termination of Gaussian 16 at Thu Dec 21 22:46:21 2023.

 ----------------------------------------------------------------------
 #P Geom=AllCheck Guess=TCheck SCRF=Check GenChk UB3LYP/6-311++G(d,p) F
 req
 ----------------------------------------------------------------------

 Structure from the checkpoint file:  "220-an.chk"
 -------
 Reduced
 -------
 Charge = -2 Multiplicity = 1

                          Input orientation:
 ---------------------------------------------------------------------
 Center     Atomic      Atomic             Coordinates (Angstroms)
 Number     Number       Type             X           Y           Z
 ---------------------------------------------------------------------
      1          6           0        4.950536   -2.737878   -0.036039
      2          6           0        5.690552   -1.793342   -0.740732
      3          6           0        5.043919   -0.688071   -1.380804
      4          6           0        3.556696   -2.643276    0.054094
      5          6           0        2.878161   -1.535673   -0.593493
      6          6           0        3.679177   -0.592722   -1.301010
      7          6           0        2.838568   -3.664607    0.814552
      8          6           0        1.389985   -3.471398    0.852981
      9          6           0        0.737033   -2.353869    0.196270
     10          6           0        1.449199   -1.345899   -0.549907
     11          6           0        0.614002   -4.395746    1.562396
     12          6           0       -0.680675   -2.258713    0.307351
     13          6           0       -1.433964   -3.163807    1.008363
     14          8           0        3.419572   -4.621745    1.398317
     15          8           0        0.861087   -0.360357   -1.123298
     16          1           0        5.429944   -3.576989    0.454890
     17          1           0       -2.511645   -3.077491    1.075382
     18          1           0        3.146132    0.219781   -1.783151
     19          1           0        1.128257   -5.221974    2.039717
     20          1           0       -1.143991   -1.419287   -0.200047
     21          6           0       -0.768943   -4.262508    1.640748
     22         16           0        7.433828   -1.862219   -0.698613
     23         16           0       -1.679845   -5.346827    2.660611
     24          8           0       -0.941040   -6.601176    2.901200
     25          8           0       -3.092383   -5.446626    2.251331
     26          7           0       -1.778592   -4.484456    4.171387
     27          1           0       -0.836719   -4.426633    4.553867
     28          1           0       -2.348241   -5.054151    4.796890
     29          8           0        7.906784   -3.217612   -0.357549
     30          8           0        8.049119   -1.188508   -1.856345
     31          7           0        7.842918   -0.802992    0.622752
     32          1           0        5.634407    0.035652   -1.929336
     33          1           0        8.861328   -0.763268    0.661617
     34          1           0        7.502562   -1.235044    1.479608
 ---------------------------------------------------------------------

 SCF Done:  E(UB3LYP) =  -1897.02802462     A.U. after    2 cycles

 Alpha  occ. eigenvalues --  -88.87276 -88.87276 -18.92696 -18.92696 -18.92657
 Alpha  occ. eigenvalues --  -18.92657 -18.83896 -18.80620 -14.16048 -14.16047
 Alpha  occ. eigenvalues --  -10.00005  -9.99599  -9.99598  -9.97798  -9.97797
 Alpha  occ. eigenvalues --   -9.97348  -9.97215  -9.97214  -9.95824  -9.95823
 Alpha  occ. eigenvalues --   -9.95366  -9.95365  -9.94684  -9.94683  -7.93462
 Alpha  occ. eigenvalues --   -7.93462  -5.89765  -5.89764  -5.89716  -5.89716
 Alpha  occ. eigenvalues --   -5.89507  -5.89507  -0.92536  -0.92536  -0.81437
 Alpha  occ. eigenvalues --   -0.81437  -0.76348  -0.72764  -0.72203  -0.72200
 Alpha  occ. eigenvalues --   -0.65186  -0.64943  -0.58322  -0.55882  -0.54811
 Alpha  occ. eigenvalues --   -0.54046  -0.49342  -0.46722  -0.44613  -0.41098
 Alpha  occ. eigenvalues --   -0.40010  -0.37838  -0.36106  -0.35301  -0.33869
 Alpha  occ. eigenvalues --   -0.33355  -0.33125  -0.31121  -0.30806  -0.29046
 Alpha  occ. eigenvalues --   -0.27091  -0.26957  -0.26831  -0.24747  -0.24402
 Alpha  occ. eigenvalues --   -0.22134  -0.21836  -0.20880  -0.20031  -0.19189
 Alpha  occ. eigenvalues --   -0.18547  -0.17645  -0.17515  -0.16308  -0.15877
 Alpha  occ. eigenvalues --   -0.15724  -0.15043  -0.14492  -0.13517  -0.13405
 Alpha  occ. eigenvalues --   -0.13055  -0.12564  -0.12305  -0.11652  -0.11564
 Alpha  occ. eigenvalues --   -0.10928  -0.09935  -0.09701  -0.05381  -0.04265
 Alpha  occ. eigenvalues --   -0.03651  -0.02900  -0.01102   0.01365   0.08732
 Alpha virt. eigenvalues --    0.13284   0.13310   0.15060   0.15582   0.17211
 Alpha virt. eigenvalues --    0.17426   0.17684   0.18065   0.19485   0.19963
 Alpha virt. eigenvalues --    0.20041   0.20569   0.21084   0.21514   0.22097

  Beta  occ. eigenvalues --  -88.87276 -88.87276 -18.92696 -18.92696 -18.92657
  Beta  occ. eigenvalues --  -18.92657 -18.83896 -18.80620 -14.16048 -14.16047
  Beta  occ. eigenvalues --  -10.00005  -9.99599  -9.99598  -9.97798  -9.97797
  Beta  occ. eigenvalues --   -9.97348  -9.97215  -9.97214  -9.95824  -9.95823
  Beta  occ. eigenvalues --   -9.95366  -9.95365  -9.94684  -9.94683  -7.93462
  Beta  occ. eigenvalues --   -7.93462  -5.89765  -5.89764  -5.89716  -5.89716
  Beta  occ. eigenvalues --   -5.89507  -5.89507  -0.92536  -0.92536  -0.81437
  Beta  occ. eigenvalues --   -0.81437  -0.76348  -0.72764  -0.72203  -0.72200
  Beta  occ. eigenvalues --   -0.65186  -0.64943  -0.58322  -0.55882  -0.54811
  Beta  occ. eigenvalues --   -0.54046  -0.49342  -0.46722  -0.44613  -0.41098
  Beta  occ. eigenvalues --   -0.40010  -0.37838  -0.36106  -0.35301  -0.33869
  Beta  occ. eigenvalues --   -0.33355  -0.33125  -0.31121  -0.30806  -0.29046
  Beta  occ. eigenvalues --   -0.27091  -0.26957  -0.26831  -0.24747  -0.24402
  Beta  occ. eigenvalues --   -0.22134  -0.21836  -0.20880  -0.20031  -0.19189
  Beta  occ. eigenvalues --   -0.18547  -0.17645  -0.17515  -0.16308  -0.15877
  Beta  occ. eigenvalues --   -0.15724  -0.15043  -0.14492  -0.13517  -0.13405
  Beta  occ. eigenvalues --   -0.13055  -0.12564  -0.12305  -0.11652  -0.11564
  Beta  occ. eigenvalues --   -0.10928  -0.09935  -0.09701  -0.05381  -0.04265
  Beta  occ. eigenvalues --   -0.03651  -0.02900  -0.01102   0.01365   0.08732
  Beta virt. eigenvalues --    0.13284   0.13310   0.15060   0.15582   0.17211
  Beta virt. eigenvalues --    0.17426   0.17684   0.18065   0.19485   0.19963
  Beta virt. eigenvalues --    0.20041   0.20569   0.21084   0.21514   0.22097

 Mulliken charges and spin densities:
               1          2
     1  C   -0.144477   0.000000
     2  C   -0.213335  -0.000000
     3  C   -0.358827  -0.000000
     4  C    0.161837  -0.000000
     5  C    0.758214   0.000000
     6  C   -0.220651   0.000000
     7  C   -1.004377  -0.000000
     8  C    0.160690   0.000000
     9  C    0.757602   0.000000
    10  C   -0.550122  -0.000000
    11  C   -0.144660  -0.000000
    12  C   -0.220372   0.000000
    13  C   -0.359910  -0.000000
    14  O   -0.413225   0.000000
    15  O   -0.492845   0.000000
    16  H    0.228938   0.000000
    17  H    0.187539   0.000000
    18  H    0.145604   0.000000
    19  H    0.228867   0.000000
    20  H    0.145618  -0.000000
    21  C   -0.212392  -0.000000
    22  S    0.113045  -0.000000
    23  S    0.113620  -0.000000
    24  O   -0.226849  -0.000000
    25  O   -0.309905  -0.000000
    26  N   -0.390076  -0.000000
    27  H    0.251440   0.000000
    28  H    0.248502   0.000000
    29  O   -0.226896  -0.000000
    30  O   -0.310124   0.000000
    31  N   -0.389939  -0.000000
    32  H    0.187535  -0.000000
    33  H    0.248499  -0.000000
    34  H    0.251434  -0.000000
 Sum of Mulliken charges =  -2.00000  -0.00000

 Dipole moment (field-independent basis, Debye):
    X=            -22.0036    Y=             29.0592    Z=              0.0734  Tot=             36.4499
 Quadrupole moment (field-independent basis, Debye-Ang):
   XX=           -347.5082   YY=           -310.8553   ZZ=           -179.7091
   XY=             41.3033   XZ=             39.6053   YZ=             33.1732

  Exact polarizability: 670.635 143.833 295.465-138.467-109.018 287.986
 Approx polarizability:1171.187 239.068 528.085-250.670-209.020 458.396

                      1                      2                      3
                      A                      A                      A
 Frequencies --     23.9282                29.5224                40.1449
 Red. masses --      8.4352                 6.9763                 8.0931
 Frc consts  --      0.0028                 0.0036                 0.0077
 IR Inten    --      0.5907                 0.9202                 3.3201

                      4                      5                      6
                      A                      A                      A
 Frequencies --     55.5199                75.8435                84.0455
 Red. masses --      5.4238                10.6447                 6.5230
 Frc consts  --      0.0099                 0.0361                 0.0271
 IR Inten    --      4.7019                 0.0538                 6.3199

                      7                      8                      9
                      A                      A                      A
 Frequencies --    125.8051               141.2842               144.9038
 Red. masses --      4.4063                 5.6304                 3.3325
 Frc consts  --      0.0411                 0.0662                 0.0412
 IR Inten    --      8.7408                 0.0881                 4.0989

                     10                     11                     12
                      A                      A                      A
 Frequencies --    163.8277               178.3906               194.0913
 Red. masses --      3.6694                 1.4902                 4.8095
 Frc consts  --      0.0580                 0.0279                 0.1067
 IR Inten    --      5.6252                31.1405                 0.4959

                     13                     14                     15
                      A                      A                      A
 Frequencies --    201.6391               227.2051               242.2969
 Red. masses --      2.3158                 9.8440                 3.6857
 Frc consts  --      0.0555                 0.2994                 0.1275
 IR Inten    --      0.5260                 3.7338                36.0076

                     16                     17                     18
                      A                      A                      A
 Frequencies --    257.6850               268.4710               304.3544
 Red. masses --     12.1083                11.0905                 4.7283
 Frc consts  --      0.4737                 0.4710                 0.2581
 IR Inten    --      2.2098                 4.2418                15.2017

                     19                     20                     21
                      A                      A                      A
 Frequencies --    317.5179               359.7900               364.9798
 Red. masses --      5.0329                 4.4357                 4.7149
 Frc consts  --      0.2990                 0.3383                 0.3701
 IR Inten    --    146.4214                 7.7286                62.8008

                     22                     23                     24
                      A                      A                      A
 Frequencies --    378.9132               407.0690               434.5699
 Red. masses --      8.5832                 5.3716                 7.0773
 Frc consts  --      0.7261                 0.5244                 0.7875
 IR Inten    --      3.1354                 2.9029                55.7422

                     25                     26                     27
                      A                      A                      A
 Frequencies --    434.6186               435.9562               448.8029
 Red. masses --      6.4435                 4.4623                 6.6546
 Frc consts  --      0.7171                 0.4997                 0.7897
 IR Inten    --      3.3737                 7.9234                 9.4767

                     28                     29                     30
                      A                      A                      A
 Frequencies --    456.9168               476.2243               482.1359
 Red. masses --      4.6879                 4.0505                 7.1857
 Frc consts  --      0.5766                 0.5412                 0.9841
 IR Inten    --    130.3665                 0.0032                26.2311

                     31                     32                     33
                      A                      A                      A
 Frequencies --    484.8241               496.8151               522.6872
 Red. masses --     10.0529                10.1652                 6.5246
 Frc consts  --      1.3922                 1.4783                 1.0502
 IR Inten    --      6.4401                 7.6568               206.5155

                     34                     35                     36
                      A                      A                      A
 Frequencies --    557.0682               559.1539               610.3072
 Red. masses --      7.8403                 6.7164                 5.3195
 Frc consts  --      1.4335                 1.2372                 1.1674
 IR Inten    --    265.0837                32.5780                18.9249

                     37                     38                     39
                      A                      A                      A
 Frequencies --    642.0325               651.1483               653.2267
 Red. masses --      8.8644                 8.5429                 8.0899
 Frc consts  --      2.1529                 2.1341                 2.0339
 IR Inten    --    185.4268               284.0257               312.4194

                     40                     41                     42
                      A                      A                      A
 Frequencies --    683.5954               695.4825               699.5864
 Red. masses --      6.3914                 6.8795                 4.6232
 Frc consts  --      1.7597                 1.9605                 1.3331
 IR Inten    --    128.7313                 3.5662                28.0066

                     43                     44                     45
                      A                      A                      A
 Frequencies --    717.8954               725.0561               781.9639
 Red. masses --      3.1083                 7.2771                 2.1645
 Frc consts  --      0.9438                 2.2540                 0.7798
 IR Inten    --     15.0695               115.1671                12.9619

                     46                     47                     48
                      A                      A                      A
 Frequencies --    791.2321               823.1250               846.6080
 Red. masses --      1.4510                 4.0263                 6.0926
 Frc consts  --      0.5352                 1.6073                 2.5729
 IR Inten    --     12.4679                15.3808                23.9709

                     49                     50                     51
                      A                      A                      A
 Frequencies --    878.9186               880.7402               925.3281
 Red. masses --      1.3707                 1.4139                 6.4623
 Frc consts  --      0.6239                 0.6462                 3.2601
 IR Inten    --    218.8065                90.7660                 3.7137

                     52                     53                     54
                      A                      A                      A
 Frequencies --    956.7694               964.3265               981.9990
 Red. masses --      1.3354                 1.3793                 2.5424
 Frc consts  --      0.7202                 0.7557                 1.4445
 IR Inten    --      1.1309                 5.5023                 0.0019

                     55                     56                     57
                      A                      A                      A
 Frequencies --    984.2641               986.2599              1031.9782
 Red. masses --      1.6873                 1.3126                 2.6215
 Frc consts  --      0.9631                 0.7522                 1.6449
 IR Inten    --      0.0608                 4.9300               564.8186

                     58                     59                     60
                      A                      A                      A
 Frequencies --   1036.6825              1060.9754              1061.7877
 Red. masses --      2.7593                 5.4172                 3.4897
 Frc consts  --      1.7472                 3.5928                 2.3180
 IR Inten    --     57.7671              1773.3373               148.2838

                     61                     62                     63
                      A                      A                      A
 Frequencies --   1098.6698              1109.8948              1118.9565
 Red. masses --      1.3522                 1.5154                 2.3682
 Frc consts  --      0.9617                 1.0998                 1.7470
 IR Inten    --    869.8572               145.8886                22.2298

                     64                     65                     66
                      A                      A                      A
 Frequencies --   1128.0195              1165.4434              1175.9343
 Red. masses --      1.6297                 2.3703                 6.3568
 Frc consts  --      1.2217                 1.8969                 5.1791
 IR Inten    --    242.4988                 5.5884               332.0022

                     67                     68                     69
                      A                      A                      A
 Frequencies --   1200.1181              1221.2020              1234.2306
 Red. masses --      2.9419                 1.5864                 3.7714
 Frc consts  --      2.4965                 1.3939                 3.3849
 IR Inten    --      8.8131                40.6173               355.6087

                     70                     71                     72
                      A                      A                      A
 Frequencies --   1238.6309              1245.2456              1322.3388
 Red. masses --      9.7681                 2.3180                 2.2599
 Frc consts  --      8.8296                 2.1178                 2.3282
 IR Inten    --    230.0637                 0.5832               160.0279

                     73                     74                     75
                      A                      A                      A
 Frequencies --   1341.7092              1361.5549              1387.1897
 Red. masses --      4.5898                 5.7599                 5.5261
 Frc consts  --      4.8681                 6.2912                 6.2652
 IR Inten    --    131.5721               242.7332               288.3834

                     76                     77                     78
                      A                      A                      A
 Frequencies --   1448.9718              1449.9819              1454.8843
 Red. masses --      7.2694                 2.7748                 2.5215
 Frc consts  --      8.9923                 3.4372                 3.1445
 IR Inten    --    471.8901               106.5608                65.2950

                     79                     80                     81
                      A                      A                      A
 Frequencies --   1472.2184              1501.5979              1511.2690
 Red. masses --      8.1805                 5.9672                 7.0781
 Frc consts  --     10.4466                 7.9274                 9.5247
 IR Inten    --    105.5546                 6.7953                48.6785

                     82                     83                     84
                      A                      A                      A
 Frequencies --   1542.2607              1573.0301              1579.9543
 Red. masses --      7.9922                 2.6367                 1.1051
 Frc consts  --     11.2003                 3.8440                 1.6254
 IR Inten    --    291.1744               555.4589                47.1347

                     85                     86                     87
                      A                      A                      A
 Frequencies --   1581.6588              1613.7202              3166.2749
 Red. masses --      1.4063                 8.2375                 1.0859
 Frc consts  --      2.0728                12.6388                 6.4140
 IR Inten    --    100.3007                15.2189                11.0803

                     88                     89                     90
                      A                      A                      A
 Frequencies --   3166.4845              3186.4694              3186.6464
 Red. masses --      1.0859                 1.0931                 1.0929
 Frc consts  --      6.4149                 6.5391                 6.5389
 IR Inten    --      0.0755                10.8391                21.3090

                     91                     92                     93
                      A                      A                      A
 Frequencies --   3187.5286              3188.0773              3440.0695
 Red. masses --      1.0895                 1.0898                 1.0485
 Frc consts  --      6.5219                 6.5260                 7.3107
 IR Inten    --      2.8086                 5.4606               192.6475

                     94                     95                     96
                      A                      A                      A
 Frequencies --   3440.5111              3549.3334              3549.8326
 Red. masses --      1.0484                 1.0936                 1.0935
 Frc consts  --      7.3118                 8.1169                 8.1190
 IR Inten    --     58.7625                80.9220                54.4377

 - Thermochemistry -
 -------------------
 Temperature   298.150 Kelvin.  Pressure   1.00000 Atm.
 Atom     1 has atomic number  6 and mass  12.00000

 Molecular mass:   365.99803 amu.
 Principal axes and moments of inertia in atomic units:
                           1         2         3
     Eigenvalues --  3361.58781********************
           X            0.88316  -0.46415   0.06772
           Y            0.33768   0.72934   0.59501
           Z           -0.32557  -0.50262   0.80086
 This molecule is an asymmetric top.
 Rotational symmetry number  1.
 Warning -- assumption of classical behavior for rotation
           may cause significant error
 Rotational temperatures (Kelvin)      0.02577     0.00409     0.00366
 Rotational constants (GHZ):           0.53687     0.08531     0.07620
 Zero-point vibrational energy     595669.7 (Joules/Mol)
                                  142.36849 (Kcal/Mol)
 Warning -- explicit consideration of  36 degrees of freedom as
           vibrations may cause significant error
 Vibrational temperatures:     34.43    42.48    57.76    79.88   109.12
          (Kelvin)            120.92   181.01   203.28   208.48   235.71
                              256.66   279.25   290.11   326.90   348.61
                              370.75   386.27   437.90   456.84   517.66
                              525.12   545.17   585.68   625.25   625.32
                              627.24   645.73   657.40   685.18   693.69
                              697.55   714.81   752.03   801.50   804.50
                              878.10   923.74   936.86   939.85   983.54
                             1000.64  1006.55  1032.89  1043.19  1125.07
                             1138.41  1184.29  1218.08  1264.57  1267.19
                             1331.34  1376.58  1387.45  1412.88  1416.14
                             1419.01  1484.79  1491.55  1526.51  1527.68
                             1580.74  1596.89  1609.93  1622.97  1676.81
                             1691.91  1726.70  1757.04  1775.78  1782.11
                             1791.63  1902.55  1930.42  1958.97  1995.86
                             2084.75  2086.20  2093.25  2118.19  2160.46
                             2174.38  2218.97  2263.24  2273.20  2275.65
                             2321.78  4555.56  4555.86  4584.62  4584.87
                             4586.14  4586.93  4949.49  4950.13  5106.70
                             5107.42

 Zero-point correction=                           0.226879 (Hartree/Particle)
 Thermal correction to Energy=                    0.248219
 Thermal correction to Enthalpy=                  0.249163
 Thermal correction to Gibbs Free Energy=         0.175461
 Sum of electronic and zero-point Energies=          -1896.801146
 Sum of electronic and thermal Energies=             -1896.779806
 Sum of electronic and thermal Enthalpies=           -1896.778862
 Sum of electronic and thermal Free Energies=        -1896.852564

                     E (Thermal)             CV                S
                      KCal/Mol        Cal/Mol-Kelvin    Cal/Mol-Kelvin
 Total                  155.759             81.947            155.119
 Electronic               0.000              0.000              0.000
 Translational            0.889              2.981             43.585
 Rotational               0.889              2.981             35.775
 Vibrational            153.982             75.985             75.758
 Vibration     1          0.593              1.985              6.278
 Vibration     2          0.593              1.984              5.861
 Vibration     3          0.594              1.981              5.252
 Vibration     4          0.596              1.975              4.610
 Vibration     5          0.599              1.965              3.996
 Vibration     6          0.601              1.960              3.794
 Vibration     7          0.611              1.927              3.009
 Vibration     8          0.615              1.912              2.786
 Vibration     9          0.616              1.908              2.738
 Vibration    10          0.623              1.887              2.505
 Vibration    11          0.629              1.869              2.345
 Vibration    12          0.635              1.848              2.188
 Vibration    13          0.639              1.838              2.118
 Vibration    14          0.651              1.800              1.901
 Vibration    15          0.658              1.775              1.786
 Vibration    16          0.667              1.750              1.677
 Vibration    17          0.673              1.731              1.606
 Vibration    18          0.695              1.665              1.393
 Vibration    19          0.704              1.640              1.323
 Vibration    20          0.734              1.555              1.123
 Vibration    21          0.738              1.544              1.101
 Vibration    22          0.749              1.515              1.043
 Vibration    23          0.772              1.455              0.937
 Vibration    24          0.795              1.395              0.844
 Vibration    25          0.795              1.395              0.844
 Vibration    26          0.796              1.392              0.839
 Vibration    27          0.808              1.364              0.799
 Vibration    28          0.815              1.346              0.775
 Vibration    29          0.833              1.303              0.720
 Vibration    30          0.838              1.290              0.704
 Vibration    31          0.841              1.284              0.697
 Vibration    32          0.852              1.257              0.666
 Vibration    33          0.878              1.200              0.604
 Vibration    34          0.913              1.124              0.530
 Vibration    35          0.915              1.120              0.526
 Vibration    36          0.969              1.010              0.432

                           ! Non-Optimized Parameters !
 Normal termination of Gaussian 16 at Fri Dec 22 01:01:09 2023.
