 Q-Chem 5.4, Q-Chem, Inc., Pleasanton, CA (2021)
 Q-Chem 5.4.0 for Intel X86 EM64T Linux

User input:
--------------------------------------------------------------
$molecule
-1 2
C                  0.8554270000      1.1714950000     -1.4985620000
C                 -0.3393570000      0.3917530000     -1.7633170000
C                 -0.6135220000     -0.7621530000     -1.1021200000
C                  0.2657010000     -1.3129950000     -0.0906220000
C                  1.4685020000     -0.5475190000      0.2228340000
C                  1.7012300000      0.6562170000     -0.4252130000
O                  1.1405580000      2.1911270000     -2.1674990000
O                  0.0021720000     -2.4031850000      0.4851510000
S                  3.0931600000      1.6992180000      0.0324940000
C                  4.2279830000      1.6385110000     -1.3770940000
C                  5.1478350000      0.5943350000     -1.4485960000
C                  4.1696720000      2.6336970000     -2.3484520000
C                  5.0679960000      2.5843750000     -3.4129030000
C                  6.0361900000      0.5539330000     -2.5215680000
C                  5.9989260000      1.5487820000     -3.4993990000
O                  3.7869660000      1.0293250000      1.1510630000
O                  2.6728820000      3.0932260000      0.2196820000
H                 -0.9951700000      0.7780030000     -2.5374230000
H                 -1.5056640000     -1.3422880000     -1.3183390000
H                  5.1566610000     -0.1685330000     -0.6793530000
H                  3.4185600000      3.4074060000     -2.2669190000
H                  5.0345680000      3.3515920000     -4.1789300000
H                  6.7562910000     -0.2540360000     -2.5919850000
H                  6.6926290000      1.5132570000     -4.3332080000
C                  2.4365880000     -1.2647800000      1.1675940000
O                  3.3360530000     -1.9133640000      0.6759510000
C                  2.1976850000     -1.2874360000      2.7017250000
C                  1.1451370000     -0.2579120000      3.1408590000
C                  1.7304580000     -2.7148030000      3.0774290000
C                  3.5373230000     -1.0111340000      3.4164040000
H                  0.1734510000     -0.4580140000      2.6836070000
H                  1.4506050000      0.7579760000      2.8799420000
H                  1.0195550000     -0.3030770000      4.2282510000
H                  0.7979160000     -2.9683940000      2.5744130000
H                  1.5916390000     -2.7716190000      4.1631620000
H                  2.4873360000     -3.4478070000      2.7866780000
H                  3.8809620000      0.0058490000      3.2311630000
H                  4.3054560000     -1.7032980000      3.0650920000
H                  3.4068540000     -1.1557210000      4.4947980000
$end

$rem
BASIS  =  6-311++G(d,p)
GUI  =  2
JOB_TYPE  =  SP
METHOD  =  B3LYP
SCF_CONVERGENCE  = 8
SOLVENT_METHOD = sm12
$end

$smx
solvent dimethylformamide
charges CM5
$end

--------------------------------------------------------------

             Standard Nuclear Orientation (Angstroms)
    I     Atom           X                Y                Z
 ----------------------------------------------------------------
    1      C       0.8554270000     1.1714950000    -1.4985620000
    2      C      -0.3393570000     0.3917530000    -1.7633170000
    3      C      -0.6135220000    -0.7621530000    -1.1021200000
    4      C       0.2657010000    -1.3129950000    -0.0906220000
    5      C       1.4685020000    -0.5475190000     0.2228340000
    6      C       1.7012300000     0.6562170000    -0.4252130000
    7      O       1.1405580000     2.1911270000    -2.1674990000
    8      O       0.0021720000    -2.4031850000     0.4851510000
    9      S       3.0931600000     1.6992180000     0.0324940000
   10      C       4.2279830000     1.6385110000    -1.3770940000
   11      C       5.1478350000     0.5943350000    -1.4485960000
   12      C       4.1696720000     2.6336970000    -2.3484520000
   13      C       5.0679960000     2.5843750000    -3.4129030000
   14      C       6.0361900000     0.5539330000    -2.5215680000
   15      C       5.9989260000     1.5487820000    -3.4993990000
   16      O       3.7869660000     1.0293250000     1.1510630000
   17      O       2.6728820000     3.0932260000     0.2196820000
   18      H      -0.9951700000     0.7780030000    -2.5374230000
   19      H      -1.5056640000    -1.3422880000    -1.3183390000
   20      H       5.1566610000    -0.1685330000    -0.6793530000
   21      H       3.4185600000     3.4074060000    -2.2669190000
   22      H       5.0345680000     3.3515920000    -4.1789300000
   23      H       6.7562910000    -0.2540360000    -2.5919850000
   24      H       6.6926290000     1.5132570000    -4.3332080000
   25      C       2.4365880000    -1.2647800000     1.1675940000
   26      O       3.3360530000    -1.9133640000     0.6759510000
   27      C       2.1976850000    -1.2874360000     2.7017250000
   28      C       1.1451370000    -0.2579120000     3.1408590000
   29      C       1.7304580000    -2.7148030000     3.0774290000
   30      C       3.5373230000    -1.0111340000     3.4164040000
   31      H       0.1734510000    -0.4580140000     2.6836070000
   32      H       1.4506050000     0.7579760000     2.8799420000
   33      H       1.0195550000    -0.3030770000     4.2282510000
   34      H       0.7979160000    -2.9683940000     2.5744130000
   35      H       1.5916390000    -2.7716190000     4.1631620000
   36      H       2.4873360000    -3.4478070000     2.7866780000
   37      H       3.8809620000     0.0058490000     3.2311630000
   38      H       4.3054560000    -1.7032980000     3.0650920000
   39      H       3.4068540000    -1.1557210000     4.4947980000
 ----------------------------------------------------------------

   18   -1432.0533352997      4.26e-09  Convergence criterion met
 Total energy in the final basis set =    -1432.1361820048

                    Orbital Energies (a.u.)
 --------------------------------------------------------------

 Alpha MOs
 -- Occupied --
-89.0497 -19.1187 -19.1135 -19.1132 -19.0904 -19.0891 -10.2726 -10.2425
-10.2382 -10.2137 -10.2099 -10.2049 -10.1960 -10.1941 -10.1937 -10.1926
-10.1907 -10.1900 -10.1824 -10.1812 -10.1636 -10.1583 -10.1569  -8.1135
 -6.0763  -6.0752  -6.0745  -1.1080  -1.0547  -1.0177  -1.0140  -1.0020
 -0.8786  -0.8485  -0.8202  -0.7896  -0.7732  -0.7660  -0.7232  -0.6911
 -0.6858  -0.6766  -0.6464  -0.6253  -0.6205  -0.5932  -0.5779  -0.5410
 -0.5255  -0.5022  -0.4992  -0.4867  -0.4811  -0.4780  -0.4662  -0.4585
 -0.4572  -0.4514  -0.4409  -0.4390  -0.4268  -0.4252  -0.4210  -0.4104
 -0.3961  -0.3947  -0.3920  -0.3858  -0.3841  -0.3811  -0.3759  -0.3697
 -0.3666  -0.3630  -0.3385  -0.3346  -0.3288  -0.3237  -0.3073  -0.3024
 -0.2981  -0.2861  -0.2739  -0.2717  -0.2636  -0.2548  -0.2413  -0.1788

 Beta MOs
 -- Occupied --
-89.0497 -19.1185 -19.1134 -19.1132 -19.0825 -19.0824 -10.2728 -10.2420
-10.2373 -10.2137 -10.2087 -10.2023 -10.1960 -10.1941 -10.1937 -10.1925
-10.1908 -10.1900 -10.1819 -10.1802 -10.1636 -10.1583 -10.1569  -8.1135
 -6.0763  -6.0752  -6.0745  -1.1078  -1.0540  -1.0073  -1.0014  -1.0001
 -0.8785  -0.8422  -0.8200  -0.7883  -0.7715  -0.7660  -0.7166  -0.6908
 -0.6858  -0.6723  -0.6443  -0.6253  -0.6190  -0.5911  -0.5761  -0.5400
 -0.5237  -0.5005  -0.4969  -0.4855  -0.4805  -0.4779  -0.4641  -0.4578
 -0.4566  -0.4511  -0.4407  -0.4385  -0.4263  -0.4164  -0.4111  -0.4056
 -0.3939  -0.3925  -0.3871  -0.3840  -0.3816  -0.3752  -0.3699  -0.3676
 -0.3630  -0.3572  -0.3374  -0.3343  -0.3286  -0.3233  -0.3063  -0.3000
 -0.2851  -0.2742  -0.2682  -0.2619  -0.2594  -0.2478  -0.2367

          Ground-State Mulliken Net Atomic Charges

     Atom                 Charge (a.u.)    Spin (a.u.)
  --------------------------------------------------------
      1 C                    -0.895818       0.012390
      2 C                     0.414230       0.064592
      3 C                     0.436242       0.049723
      4 C                    -1.262637       0.063200
      5 C                     0.107922       0.179797
      6 C                    -0.346079       0.132788
      7 O                    -0.280710       0.245012
      8 O                    -0.281445       0.293566
      9 S                    -0.491225      -0.041243
     10 C                    -0.967849       0.002954
     11 C                    -0.986713       0.004425
     12 C                    -0.337054       0.019212
     13 C                     0.434081      -0.001676
     14 C                     0.351920      -0.001818
     15 C                     1.101885       0.003516
     16 O                    -0.092949      -0.003523
     17 O                    -0.076141       0.009195
     18 H                     0.289869      -0.006390
     19 H                     0.286540      -0.004306
     20 H                     0.142413       0.001139
     21 H                     0.185341      -0.000366
     22 H                     0.347119       0.000175
     23 H                     0.341441       0.000052
     24 H                     0.394667      -0.000201
     25 C                    -0.525684      -0.029272
     26 O                    -0.187893       0.002057
     27 C                     0.490629      -0.001183
     28 C                    -0.452369      -0.001505
     29 C                    -0.286183       0.008077
     30 C                    -0.242243      -0.000091
     31 H                     0.070534       0.000389
     32 H                     0.089040      -0.000075
     33 H                     0.261840       0.000210
     34 H                     0.106358      -0.002305
     35 H                     0.231250       0.000161
     36 H                     0.142936       0.000538
     37 H                     0.097819       0.000184
     38 H                     0.148754       0.000104
     39 H                     0.240159       0.000499
  --------------------------------------------------------
  Sum of atomic charges =    -1.000000

                    Cartesian Multipole Moments
 -----------------------------------------------------------------
    Charge (ESU x 10^10)
                -4.8032
    Dipole Moment (Debye)
         X      -7.7802      Y      -1.1564      Z      -1.5367
       Tot       8.0144
    Quadrupole Moments (Debye-Ang)
        XX    -164.5079     XY      -7.4681     YY    -183.6522
        XZ     -15.2251     YZ       3.7853     ZZ    -150.0034

 Total job time:  2045.02s(wall), 15464.77s(cpu)
        *  Thank you very much for using Q-Chem.  Have a nice day.  *
