 Gaussian 16, Revision A.03,
 Gaussian 16:  ES64L-G16RevA.03 25-Dec-2016

 --------------------------------------
 #P UB3LYP/6-311++G(d,p) nosym opt freq
 --------------------------------------

 -------
 Radical
 -------
 Symbolic Z-matrix:
 Charge = -1 Multiplicity = 2

 SCF Done:  E(UB3LYP) =  -921.351132640     A.U. after   23 cycles
 Optimization completed.
    -- Stationary point found.
 Normal termination of Gaussian 16 at Wed Dec 27 20:01:39 2023.

 ----------------------------------------------------------------------
 #P Geom=AllCheck Guess=TCheck SCRF=Check GenChk UB3LYP/6-311++G(d,p) F
 req
 ----------------------------------------------------------------------

 Structure from the checkpoint file:  "134-rad.chk"
 -------
 Radical
 -------
 Charge = -1 Multiplicity = 2

                          Input orientation:
 ---------------------------------------------------------------------
 Center     Atomic      Atomic             Coordinates (Angstroms)
 Number     Number       Type             X           Y           Z
 ---------------------------------------------------------------------
      1          6           0        7.105869   -1.844537   -0.605359
      2          6           0        7.629810   -0.806191   -1.445967
      3          6           0        6.778091    0.278698   -1.864064
      4          6           0        5.478564    0.290014   -1.444028
      5          6           0        4.916383   -0.714988   -0.612549
      6          6           0        5.716098   -1.806534   -0.172918
      7          6           0        5.127323   -2.836291    0.683353
      8          6           0        3.705132   -2.673438    1.045741
      9          6           0        2.925033   -1.580617    0.598738
     10          6           0        3.508350   -0.547037   -0.257991
     11          6           0        3.100162   -3.645453    1.869919
     12          6           0        1.772054   -3.542260    2.239699
     13          6           0        0.998057   -2.452377    1.792584
     14          6           0        1.571888   -1.489467    0.984524
     15          8           0        5.751021   -3.836804    1.122414
     16          8           0        2.827728    0.428027   -0.661826
     17          1           0        4.809285    1.090679   -1.739224
     18          1           0        3.717443   -4.472564    2.199441
     19          1           0        1.005636   -0.638890    0.623133
     20          6           0        7.302471    1.384207   -2.747791
     21          1           0       -0.045279   -2.371192    2.082958
     22          6           0        8.983999   -0.860464   -1.856492
     23          6           0        8.003938   -2.881142   -0.233603
     24          6           0        9.319333   -2.896660   -0.656142
     25          6           0        9.839036   -1.881604   -1.480272
     26          6           0       11.279887   -1.914168   -1.932049
     27          1           0        1.324177   -4.300876    2.874931
     28          1           0        8.137439    1.922061   -2.282089
     29          1           0        6.511706    2.108768   -2.953259
     30          1           0        7.667054    1.003806   -3.709947
     31          1           0        9.367590   -0.069673   -2.491879
     32          1           0        7.621083   -3.667614    0.398334
     33          1           0        9.964527   -3.713810   -0.342438
     34          1           0       11.515948   -1.057112   -2.568406
     35          1           0       11.500853   -2.824092   -2.501874
     36          1           0       11.967978   -1.895948   -1.078939
 ---------------------------------------------------------------------

 SCF Done:  E(UB3LYP) =  -921.351132640     A.U. after    1 cycles

 Alpha  occ. eigenvalues --  -18.95225 -18.95003 -10.10399 -10.10147 -10.08293
 Alpha  occ. eigenvalues --  -10.07766 -10.07134 -10.07094 -10.07011 -10.06800
 Alpha  occ. eigenvalues --  -10.06399 -10.06349 -10.06340 -10.06099 -10.05775
 Alpha  occ. eigenvalues --  -10.05670 -10.05570 -10.05516 -10.05443 -10.05249
 Alpha  occ. eigenvalues --  -10.05012 -10.05004  -0.87970  -0.87698  -0.76311
 Alpha  occ. eigenvalues --   -0.74247  -0.72119  -0.68434  -0.66625  -0.63970
 Alpha  occ. eigenvalues --   -0.63498  -0.62485  -0.60008  -0.58080  -0.54423
 Alpha  occ. eigenvalues --   -0.51562  -0.50559  -0.48944  -0.47398  -0.44179
 Alpha  occ. eigenvalues --   -0.42375  -0.40177  -0.38815  -0.37657  -0.35875
 Alpha  occ. eigenvalues --   -0.34824  -0.33494  -0.33421  -0.32984  -0.32467
 Alpha  occ. eigenvalues --   -0.32288  -0.31151  -0.30501  -0.29941  -0.29519
 Alpha  occ. eigenvalues --   -0.28944  -0.28593  -0.27821  -0.27671  -0.26308
 Alpha  occ. eigenvalues --   -0.25973  -0.25395  -0.24210  -0.23454  -0.22830
 Alpha  occ. eigenvalues --   -0.22489  -0.21531  -0.19912  -0.16309  -0.14421
 Alpha  occ. eigenvalues --   -0.14013  -0.13169  -0.11967  -0.10916  -0.10811
 Alpha  occ. eigenvalues --   -0.02345
 Alpha virt. eigenvalues --    0.06296   0.06425   0.07369   0.07899   0.08019
 Alpha virt. eigenvalues --    0.09371   0.09486   0.09989   0.10327   0.10734
 Alpha virt. eigenvalues --    0.11475   0.11745   0.12119   0.12226   0.12916

  Beta  occ. eigenvalues --  -18.94627 -18.94453 -10.10262 -10.10037 -10.08295
  Beta  occ. eigenvalues --  -10.07736 -10.07138 -10.07102 -10.07026 -10.06689
  Beta  occ. eigenvalues --  -10.06363 -10.06324 -10.06313 -10.06090 -10.05677
  Beta  occ. eigenvalues --  -10.05651 -10.05548 -10.05482 -10.05379 -10.05110
  Beta  occ. eigenvalues --  -10.05054 -10.04970  -0.86989  -0.86693  -0.76203
  Beta  occ. eigenvalues --   -0.74079  -0.71973  -0.68139  -0.66470  -0.63824
  Beta  occ. eigenvalues --   -0.63350  -0.62425  -0.59830  -0.57936  -0.53804
  Beta  occ. eigenvalues --   -0.51483  -0.50395  -0.48775  -0.47314  -0.43988
  Beta  occ. eigenvalues --   -0.42201  -0.40040  -0.38742  -0.37525  -0.35713
  Beta  occ. eigenvalues --   -0.34695  -0.33436  -0.33291  -0.32931  -0.32323
  Beta  occ. eigenvalues --   -0.32228  -0.31094  -0.30394  -0.29377  -0.28924
  Beta  occ. eigenvalues --   -0.28839  -0.28232  -0.27735  -0.27383  -0.25986
  Beta  occ. eigenvalues --   -0.25813  -0.24134  -0.23388  -0.22737  -0.22618
  Beta  occ. eigenvalues --   -0.22392  -0.21370  -0.19114  -0.15756  -0.13592
  Beta  occ. eigenvalues --   -0.12817  -0.12486  -0.11426  -0.10404  -0.09945
  Beta virt. eigenvalues --    0.03362   0.06422   0.06908   0.07898   0.08013
  Beta virt. eigenvalues --    0.08163   0.09366   0.09647   0.09983   0.10649
  Beta virt. eigenvalues --    0.10730   0.11479   0.11771   0.12224   0.12605

 Mulliken charges and spin densities:
               1          2
     1  C    0.857355  -0.008220
     2  C    0.195776   0.000305
     3  C    0.532780   0.078474
     4  C   -0.195610  -0.046495
     5  C    0.224044   0.115029
     6  C    0.590128   0.097154
     7  C   -1.054344   0.076184
     8  C    0.212381   0.010237
     9  C    0.264892   0.042081
    10  C   -0.768982   0.064003
    11  C    0.054133   0.017280
    12  C   -0.439981   0.029325
    13  C   -0.297326   0.028101
    14  C   -0.022914   0.015784
    15  O   -0.323525   0.210303
    16  O   -0.347981   0.223306
    17  H    0.105525   0.001356
    18  H    0.155219  -0.001149
    19  H    0.153862  -0.001559
    20  C   -0.405592  -0.007964
    21  H    0.126487  -0.002370
    22  C   -0.866818   0.012786
    23  C   -0.588586   0.028163
    24  C   -0.543498  -0.000927
    25  C    0.388265   0.017717
    26  C   -0.298230  -0.000686
    27  H    0.126961  -0.002521
    28  H    0.134468   0.004988
    29  H    0.163862   0.000136
    30  H    0.134541   0.004993
    31  H    0.010165  -0.001747
    32  H    0.152623  -0.005166
    33  H    0.146273  -0.000588
    34  H    0.146306   0.000064
    35  H    0.138410   0.000798
    36  H    0.138934   0.000826
 Sum of Mulliken charges =  -1.00000   1.00000

 Dipole moment (field-independent basis, Debye):
    X=            -22.9697    Y=              8.1668    Z=             -0.3143  Tot=             24.3804
 Quadrupole moment (field-independent basis, Debye-Ang):
   XX=           -267.6380   YY=           -164.6521   ZZ=           -141.2908
   XY=             47.9967   XZ=             -0.4887   YZ=              6.3219

  Exact polarizability: 453.190   0.444 251.493-106.700 -78.769 215.069
 Approx polarizability: 672.178 -45.827 453.973-121.631-140.485 342.658

                      1                      2                      3
                      A                      A                      A
 Frequencies --     34.7152                45.1826                56.6618
 Red. masses --      5.8124                 4.5005                 1.1190
 Frc consts  --      0.0041                 0.0054                 0.0021
 IR Inten    --      2.9357                 1.2905                 0.0168

                      4                      5                      6
                      A                      A                      A
 Frequencies --     85.0034               127.5392               140.9099
 Red. masses --      3.7480                 4.5617                 4.2198
 Frc consts  --      0.0160                 0.0437                 0.0494
 IR Inten    --      1.9269                 0.0559                 0.0191

                      7                      8                      9
                      A                      A                      A
 Frequencies --    153.0094               169.8791               192.9621
 Red. masses --      4.5833                 3.5952                 2.5895
 Frc consts  --      0.0632                 0.0611                 0.0568
 IR Inten    --      1.7666                 4.5248                 0.2668

                     10                     11                     12
                      A                      A                      A
 Frequencies --    222.0478               236.6710               276.3100
 Red. masses --      1.4135                 3.1711                 4.1494
 Frc consts  --      0.0411                 0.1047                 0.1866
 IR Inten    --      0.6518                 0.6277                 0.8364

                     13                     14                     15
                      A                      A                      A
 Frequencies --    283.0716               290.8021               344.2755
 Red. masses --      5.9472                 4.7232                 7.2378
 Frc consts  --      0.2808                 0.2353                 0.5054
 IR Inten    --      0.8793                 1.5736                 0.9264

                     16                     17                     18
                      A                      A                      A
 Frequencies --    352.0643               372.5580               399.6831
 Red. masses --      4.5948                 3.5642                11.4537
 Frc consts  --      0.3356                 0.2915                 1.0780
 IR Inten    --      0.0218                 1.4227                 8.9354

                     19                     20                     21
                      A                      A                      A
 Frequencies --    415.1792               444.0896               450.1033
 Red. masses --      3.8934                 3.9488                 3.9841
 Frc consts  --      0.3954                 0.4588                 0.4756
 IR Inten    --      2.7687                 1.0474                 0.0016

                     22                     23                     24
                      A                      A                      A
 Frequencies --    483.1186               492.4346               516.0326
 Red. masses --     10.0437                 5.7002                 5.2294
 Frc consts  --      1.3812                 0.8144                 0.8205
 IR Inten    --      0.3646                 2.4903                 1.5696

                     25                     26                     27
                      A                      A                      A
 Frequencies --    526.2641               538.5636               568.9432
 Red. masses --      3.3337                 5.2573                 4.7402
 Frc consts  --      0.5440                 0.8984                 0.9040
 IR Inten    --      7.5588                 2.3275                 1.2313

                     28                     29                     30
                      A                      A                      A
 Frequencies --    593.7260               627.7779               644.0841
 Red. masses --      5.9674                 3.9147                 6.3024
 Frc consts  --      1.2394                 0.9090                 1.5404
 IR Inten    --      6.0855                 1.3222                 6.7891

                     31                     32                     33
                      A                      A                      A
 Frequencies --    687.2496               698.0097               713.7565
 Red. masses --      6.1993                 4.8277                 2.3410
 Frc consts  --      1.7251                 1.3858                 0.7027
 IR Inten    --      1.2577                 1.1118                48.9589

                     34                     35                     36
                      A                      A                      A
 Frequencies --    723.0430               740.8057               770.1458
 Red. masses --      5.4527                 6.6931                 3.9178
 Frc consts  --      1.6795                 2.1641                 1.3691
 IR Inten    --      1.1466                 0.5421                 1.0158

                     37                     38                     39
                      A                      A                      A
 Frequencies --    785.0244               803.9948               820.9671
 Red. masses --      1.9542                 3.8719                 6.0518
 Frc consts  --      0.7095                 1.4746                 2.4032
 IR Inten    --     25.9179                 2.1351                 2.6606

                     40                     41                     42
                      A                      A                      A
 Frequencies --    833.8859               866.5792               875.7035
 Red. masses --      1.4767                 1.4444                 1.4894
 Frc consts  --      0.6050                 0.6391                 0.6729
 IR Inten    --     29.3184                 2.9668                 0.0690

                     43                     44                     45
                      A                      A                      A
 Frequencies --    882.6540               927.1866               944.0166
 Red. masses --      6.2653                 3.8717                 1.3527
 Frc consts  --      2.8759                 1.9610                 0.7102
 IR Inten    --      0.6470                 8.0750                 9.4679

                     46                     47                     48
                      A                      A                      A
 Frequencies --    982.3943               986.7513              1000.2326
 Red. masses --      1.3273                 1.2965                 2.2592
 Frc consts  --      0.7547                 0.7438                 1.3317
 IR Inten    --      1.7874                 1.0245                19.3176

                     49                     50                     51
                      A                      A                      A
 Frequencies --   1003.8335              1012.1321              1025.5034
 Red. masses --      1.2843                 1.6965                 2.9209
 Frc consts  --      0.7625                 1.0240                 1.8099
 IR Inten    --      2.4485                17.6420                 1.7434

                     52                     53                     54
                      A                      A                      A
 Frequencies --   1047.3585              1051.9322              1059.3428
 Red. masses --      2.0584                 1.4859                 1.4963
 Frc consts  --      1.3304                 0.9688                 0.9893
 IR Inten    --     30.3790                 2.0797                 1.1136

                     55                     56                     57
                      A                      A                      A
 Frequencies --   1085.0555              1098.0862              1120.5389
 Red. masses --      2.2713                 4.2545                 1.9977
 Frc consts  --      1.5756                 3.0225                 1.4779
 IR Inten    --      0.0421                 1.7964                10.2023

                     58                     59                     60
                      A                      A                      A
 Frequencies --   1149.1330              1176.7008              1190.4803
 Red. masses --      1.3667                 1.5192                 2.1215
 Frc consts  --      1.0633                 1.2394                 1.7715
 IR Inten    --     31.6977                15.6164                11.2324

                     61                     62                     63
                      A                      A                      A
 Frequencies --   1218.6966              1219.4625              1233.4747
 Red. masses --      2.0997                 2.5163                 1.9449
 Frc consts  --      1.8374                 2.2047                 1.7434
 IR Inten    --     19.4222                44.4856                 9.3742

                     64                     65                     66
                      A                      A                      A
 Frequencies --   1252.3357              1290.1865              1295.9296
 Red. masses --      3.2319                 1.9194                 2.4445
 Frc consts  --      2.9864                 1.8825                 2.4189
 IR Inten    --      0.7622                60.0700                13.3843

                     67                     68                     69
                      A                      A                      A
 Frequencies --   1343.5870              1362.6224              1371.6913
 Red. masses --      5.5512                 8.9758                 3.7435
 Frc consts  --      5.9043                 9.8191                 4.1499
 IR Inten    --     35.3928                12.2175               116.3667

                     70                     71                     72
                      A                      A                      A
 Frequencies --   1397.1284              1400.4375              1404.5628
 Red. masses --      2.2713                 2.9866                 1.2691
 Frc consts  --      2.6122                 3.4511                 1.4751
 IR Inten    --     70.4215                73.3141                 3.2468

                     73                     74                     75
                      A                      A                      A
 Frequencies --   1411.0236              1457.7719              1475.8787
 Red. masses --      1.7105                 3.1042                 2.4886
 Frc consts  --      2.0065                 3.8867                 3.1938
 IR Inten    --     18.3842                83.1325                 3.3258

                     76                     77                     78
                      A                      A                      A
 Frequencies --   1479.5511              1482.3044              1483.6404
 Red. masses --      2.4114                 1.0450                 1.0455
 Frc consts  --      3.1101                 1.3528                 1.3559
 IR Inten    --     34.7013                 8.1662                 2.3786

                     79                     80                     81
                      A                      A                      A
 Frequencies --   1493.1397              1497.8005              1510.4143
 Red. masses --      1.4967                 1.3564                 2.2969
 Frc consts  --      1.9660                 1.7929                 3.0873
 IR Inten    --      8.2381                 2.7567                31.5041

                     82                     83                     84
                      A                      A                      A
 Frequencies --   1532.7433              1548.1874              1562.9275
 Red. masses --      5.1073                 5.4883                 5.5411
 Frc consts  --      7.0694                 7.7506                 7.9749
 IR Inten    --    347.4687               106.7257                68.3035

                     85                     86                     87
                      A                      A                      A
 Frequencies --   1613.6896              1624.5138              1633.5402
 Red. masses --      8.5932                 5.9281                 6.6761
 Frc consts  --     13.1839                 9.2175                10.4963
 IR Inten    --     64.8877                 3.5935                 6.0465

                     88                     89                     90
                      A                      A                      A
 Frequencies --   1642.3474              2993.7661              3002.1666
 Red. masses --      5.5092                 1.0395                 1.0370
 Frc consts  --      8.7552                 5.4894                 5.5070
 IR Inten    --      1.6728               125.1889               125.4558

                     91                     92                     93
                      A                      A                      A
 Frequencies --   3029.4048              3042.6385              3079.3911
 Red. masses --      1.0994                 1.0999                 1.0989
 Frc consts  --      5.9446                 5.9994                 6.1397
 IR Inten    --     36.2295                32.2462                26.5416

                     94                     95                     96
                      A                      A                      A
 Frequencies --   3089.6941              3131.3505              3134.9606
 Red. masses --      1.0963                 1.0890                 1.0849
 Frc consts  --      6.1659                 6.2914                 6.2820
 IR Inten    --     24.5342                43.8342                16.5674

                     97                     98                     99
                      A                      A                      A
 Frequencies --   3154.1735              3162.9507              3172.3338
 Red. masses --      1.0916                 1.0880                 1.0893
 Frc consts  --      6.3987                 6.4129                 6.4587
 IR Inten    --     62.1061                28.2522                15.8492

                    100                    101                    102
                      A                      A                      A
 Frequencies --   3184.6680              3189.7235              3225.4250
 Red. masses --      1.0918                 1.0920                 1.0918
 Frc consts  --      6.5243                 6.5458                 6.6925
 IR Inten    --     17.4528                25.0672                17.2584

 - Thermochemistry -
 -------------------
 Temperature   298.150 Kelvin.  Pressure   1.00000 Atm.
 Atom     1 has atomic number  6 and mass  12.00000

 Molecular mass:   286.09938 amu.
 Principal axes and moments of inertia in atomic units:
                           1         2         3
     Eigenvalues --  2918.394579733.65977**********
           X            0.91452  -0.30447   0.26638
           Y            0.12886   0.84340   0.52160
           Z           -0.38347  -0.44269   0.81054
 This molecule is an asymmetric top.
 Rotational symmetry number  1.
 Warning -- assumption of classical behavior for rotation
           may cause significant error
 Rotational temperatures (Kelvin)      0.02968     0.00890     0.00686
 Rotational constants (GHZ):           0.61840     0.18541     0.14290
 Zero-point vibrational energy     729592.8 (Joules/Mol)
                                  174.37687 (Kcal/Mol)
 Warning -- explicit consideration of  28 degrees of freedom as
           vibrations may cause significant error
 Vibrational temperatures:     49.95    65.01    81.52   122.30   183.50
          (Kelvin)            202.74   220.15   244.42   277.63   319.48
                              340.52   397.55   407.28   418.40   495.34
                              506.54   536.03   575.05   597.35   638.95
                              647.60   695.10   708.50   742.46   757.18
                              774.87   818.58   854.24   903.23   926.69
                              988.80  1004.28  1026.94  1040.30  1065.85
                             1108.07  1129.47  1156.77  1181.19  1199.78
                             1246.81  1259.94  1269.94  1334.01  1358.23
                             1413.45  1419.71  1439.11  1444.29  1456.23
                             1475.47  1506.92  1513.50  1524.16  1561.15
                             1579.90  1612.21  1653.35  1693.01  1712.84
                             1753.43  1754.53  1774.70  1801.83  1856.29
                             1864.55  1933.12  1960.51  1973.56  2010.16
                             2014.92  2020.85  2030.15  2097.41  2123.46
                             2128.74  2132.71  2134.63  2148.30  2155.00
                             2173.15  2205.28  2227.50  2248.70  2321.74
                             2337.31  2350.30  2362.97  4307.36  4319.45
                             4358.64  4377.68  4430.56  4445.38  4505.32
                             4510.51  4538.15  4550.78  4564.28  4582.03
                             4589.30  4640.67

 Zero-point correction=                           0.277887 (Hartree/Particle)
 Thermal correction to Energy=                    0.295287
 Thermal correction to Enthalpy=                  0.296232
 Thermal correction to Gibbs Free Energy=         0.231929
 Sum of electronic and zero-point Energies=           -921.073245
 Sum of electronic and thermal Energies=              -921.055845
 Sum of electronic and thermal Enthalpies=            -921.054901
 Sum of electronic and thermal Free Energies=         -921.119204

                     E (Thermal)             CV                S
                      KCal/Mol        Cal/Mol-Kelvin    Cal/Mol-Kelvin
 Total                  185.296             69.891            135.336
 Electronic               0.000              0.000              1.377
 Translational            0.889              2.981             42.851
 Rotational               0.889              2.981             34.239
 Vibrational            183.518             63.929             56.869
 Vibration     1          0.594              1.983              5.540
 Vibration     2          0.595              1.979              5.018
 Vibration     3          0.596              1.975              4.570
 Vibration     4          0.601              1.960              3.772
 Vibration     5          0.611              1.926              2.983
 Vibration     6          0.615              1.912              2.791
 Vibration     7          0.619              1.899              2.634
 Vibration     8          0.625              1.880              2.437
 Vibration     9          0.635              1.850              2.199
 Vibration    10          0.648              1.808              1.942
 Vibration    11          0.656              1.785              1.828
 Vibration    12          0.678              1.717              1.556
 Vibration    13          0.682              1.705              1.515
 Vibration    14          0.687              1.691              1.469
 Vibration    15          0.723              1.587              1.192
 Vibration    16          0.729              1.571              1.157
 Vibration    17          0.744              1.528              1.069
 Vibration    18          0.766              1.471              0.964
 Vibration    19          0.779              1.437              0.909
 Vibration    20          0.804              1.374              0.814
 Vibration    21          0.809              1.361              0.795
 Vibration    22          0.839              1.287              0.702
 Vibration    23          0.848              1.267              0.677
 Vibration    24          0.871              1.214              0.619
 Vibration    25          0.881              1.192              0.596
 Vibration    26          0.894              1.165              0.568
 Vibration    27          0.925              1.098              0.506
 Vibration    28          0.951              1.045              0.461

                           ! Non-Optimized Parameters !
 Normal termination of Gaussian 16 at Wed Dec 27 22:59:52 2023.
