 Q-Chem 5.4, Q-Chem, Inc., Pleasanton, CA (2021)
 Q-Chem 5.4.0 for Intel X86 EM64T Linux

User input:
--------------------------------------------------------------
$molecule
-1 2
C                  7.1058690000     -1.8445370000     -0.6053590000
C                  7.6298100000     -0.8061910000     -1.4459670000
C                  6.7780910000      0.2786980000     -1.8640640000
C                  5.4785640000      0.2900140000     -1.4440280000
C                  4.9163830000     -0.7149880000     -0.6125490000
C                  5.7160980000     -1.8065340000     -0.1729180000
C                  5.1273230000     -2.8362910000      0.6833530000
C                  3.7051320000     -2.6734380000      1.0457410000
C                  2.9250330000     -1.5806170000      0.5987380000
C                  3.5083500000     -0.5470370000     -0.2579910000
C                  3.1001620000     -3.6454530000      1.8699190000
C                  1.7720540000     -3.5422600000      2.2396990000
C                  0.9980570000     -2.4523770000      1.7925840000
C                  1.5718880000     -1.4894670000      0.9845240000
O                  5.7510210000     -3.8368040000      1.1224140000
O                  2.8277280000      0.4280270000     -0.6618260000
H                  4.8092850000      1.0906790000     -1.7392240000
H                  3.7174430000     -4.4725640000      2.1994410000
H                  1.0056360000     -0.6388900000      0.6231330000
C                  7.3024710000      1.3842070000     -2.7477910000
H                 -0.0452790000     -2.3711920000      2.0829580000
C                  8.9839990000     -0.8604640000     -1.8564920000
C                  8.0039380000     -2.8811420000     -0.2336030000
C                  9.3193330000     -2.8966600000     -0.6561420000
C                  9.8390360000     -1.8816040000     -1.4802720000
C                 11.2798870000     -1.9141680000     -1.9320490000
H                  1.3241770000     -4.3008760000      2.8749310000
H                  8.1374390000      1.9220610000     -2.2820890000
H                  6.5117060000      2.1087680000     -2.9532590000
H                  7.6670540000      1.0038060000     -3.7099470000
H                  9.3675900000     -0.0696730000     -2.4918790000
H                  7.6210830000     -3.6676140000      0.3983340000
H                  9.9645270000     -3.7138100000     -0.3424380000
H                 11.5159480000     -1.0571120000     -2.5684060000
H                 11.5008530000     -2.8240920000     -2.5018740000
H                 11.9679780000     -1.8959480000     -1.0789390000
$end
$rem
MAX_SCF_CYCLES=200
BASIS  =  6-311++G(d,p)
GUI  =  2
JOB_TYPE  =  SP
METHOD  =  B3LYP
SOLVENT_METHOD = COSMO
$end
$solvent
dielectric 37.219
opticaldielectric 1.43
$end

--------------------------------------------------------------

             Standard Nuclear Orientation (Angstroms)
    I     Atom           X                Y                Z
 ----------------------------------------------------------------
    1      C       1.3764481872    -0.5028511339     0.0000574201
    2      C       2.3176757768     0.5803796763    -0.0001246670
    3      C       1.8463126695     1.9423750159    -0.0000040684
    4      C       0.4994732447     2.1689853425     0.0001977583
    5      C      -0.4686887515     1.1297085877     0.0001866286
    6      C      -0.0539951920    -0.2312915663     0.0001955374
    7      C      -1.0593039018    -1.2941226420     0.0002832256
    8      C      -2.4756472395    -0.8764565938     0.0001266189
    9      C      -2.8694195721     0.4827958519     0.0000325870
   10      C      -1.8684062189     1.5507392860     0.0001138955
   11      C      -3.4756492057    -1.8714778448     0.0000060057
   12      C      -4.8169240037    -1.5364572933    -0.0002167571
   13      C      -5.2054750440    -0.1815195775    -0.0003086338
   14      C      -4.2413329068     0.8083635305    -0.0001674402
   15      O      -0.7929173387    -2.5236909396     0.0004271000
   16      O      -2.2037449640     2.7609569290     0.0000849840
   17      H       0.1092920850     3.1808638709     0.0002799906
   18      H      -3.1497093225    -2.9046750047     0.0001013597
   19      H      -4.5052618756     1.8595854414    -0.0002613657
   20      C       2.8135432949     3.1010651648     0.0000133445
   21      H      -6.2590932573     0.0818180196    -0.0005174513
   22      C       3.7050099888     0.2964644576    -0.0004634464
   23      C       1.9144476610    -1.8180837833    -0.0000931610
   24      C       3.2761771644    -2.0520426305    -0.0002887551
   25      C       4.2040693179    -0.9943865951    -0.0003917147
   26      C       5.6893280616    -1.2686502278     0.0002407935
   27      H      -5.5721338839    -2.3170146326    -0.0003316388
   28      H       3.4678187082     3.0907422826     0.8804416271
   29      H       2.2676832641     4.0468723782     0.0007674738
   30      H       3.4668567511     3.0916037059    -0.8811573891
   31      H       4.4058906107     1.1240968219    -0.0008156515
   32      H       1.2161465888    -2.6407843013    -0.0000884790
   33      H       3.6350305167    -3.0785141996    -0.0003836437
   34      H       6.2647547008    -0.3390967260    -0.0056315527
   35      H       5.9894789993    -1.8527487293    -0.8773847216
   36      H       5.9906845518    -1.8420989910     0.8845137415
 ----------------------------------------------------------------

    9    -921.3512587857      8.20e-06  Convergence criterion met
 Total energy in the final basis set =     -921.3512587857
    4    -921.4312953844      6.86e-06  Convergence criterion met
 Total energy in the final basis set =     -921.4312953844

                    Orbital Energies (a.u.)
 --------------------------------------------------------------

 Alpha MOs
 -- Occupied --
-19.0814 -19.0771 -10.2291 -10.2269 -10.1832 -10.1807 -10.1800 -10.1799
-10.1776 -10.1737 -10.1732 -10.1727 -10.1727 -10.1725 -10.1703 -10.1692
-10.1661 -10.1661 -10.1622 -10.1612 -10.1609 -10.1607  -1.0090  -1.0058
 -0.8739  -0.8581  -0.8296  -0.7959  -0.7719  -0.7506  -0.7498  -0.7302
 -0.7030  -0.6833  -0.6588  -0.6244  -0.6158  -0.6005  -0.5823  -0.5576
 -0.5336  -0.5149  -0.4964  -0.4839  -0.4714  -0.4580  -0.4432  -0.4349
 -0.4306  -0.4301  -0.4250  -0.4198  -0.4171  -0.4121  -0.4096  -0.4025
 -0.3894  -0.3858  -0.3826  -0.3741  -0.3701  -0.3660  -0.3516  -0.3500
 -0.3399  -0.3349  -0.3274  -0.3133  -0.2766  -0.2623  -0.2573  -0.2492
 -0.2445  -0.2356  -0.2198  -0.1470

 Beta MOs
 -- Occupied --
-19.0759 -19.0720 -10.2273 -10.2252 -10.1833 -10.1806 -10.1797 -10.1790
-10.1766 -10.1731 -10.1728 -10.1723 -10.1722 -10.1712 -10.1702 -10.1692
-10.1660 -10.1660 -10.1626 -10.1612 -10.1607 -10.1607  -0.9995  -0.9965
 -0.8726  -0.8565  -0.8281  -0.7930  -0.7704  -0.7488  -0.7484  -0.7295
 -0.7004  -0.6821  -0.6531  -0.6235  -0.6142  -0.5989  -0.5815  -0.5554
 -0.5318  -0.5132  -0.4955  -0.4825  -0.4691  -0.4574  -0.4418  -0.4341
 -0.4295  -0.4244  -0.4244  -0.4162  -0.4131  -0.4073  -0.4066  -0.4012
 -0.3878  -0.3823  -0.3739  -0.3704  -0.3651  -0.3609  -0.3508  -0.3421
 -0.3391  -0.3339  -0.3267  -0.3048  -0.2701  -0.2517  -0.2498  -0.2442
 -0.2389  -0.2311  -0.2131

          Ground-State Mulliken Net Atomic Charges

     Atom                 Charge (a.u.)    Spin (a.u.)
  --------------------------------------------------------
      1 C                     0.793932      -0.000248
      2 C                     0.131341       0.004071
      3 C                     0.442760       0.072941
      4 C                    -0.207347      -0.029880
      5 C                     0.145849       0.091141
      6 C                     0.558812       0.074618
      7 C                    -0.860652       0.110017
      8 C                     0.150437       0.004172
      9 C                     0.127115       0.030003
     10 C                    -0.573947       0.109427
     11 C                     0.059910       0.024327
     12 C                    -0.514048       0.031578
     13 C                    -0.348584       0.025858
     14 C                    -0.027541       0.027726
     15 O                    -0.444127       0.191669
     16 O                    -0.477098       0.202139
     17 H                     0.120412       0.000864
     18 H                     0.176692      -0.001284
     19 H                     0.175894      -0.001774
     20 C                    -0.399780      -0.007457
     21 H                     0.205215      -0.002160
     22 C                    -0.852907       0.005091
     23 C                    -0.588463       0.015757
     24 C                    -0.509496       0.007408
     25 C                     0.309115       0.013889
     26 C                    -0.307465      -0.000534
     27 H                     0.203449      -0.002542
     28 H                     0.172870       0.003868
     29 H                     0.188984       0.000185
     30 H                     0.173038       0.003871
     31 H                     0.088565      -0.001186
     32 H                     0.154057      -0.004090
     33 H                     0.212275      -0.000875
     34 H                     0.176739       0.000044
     35 H                     0.171657       0.000673
     36 H                     0.172334       0.000693
  --------------------------------------------------------
  Sum of atomic charges =    -1.000006

                    Cartesian Multipole Moments
 -----------------------------------------------------------------
    Charge (ESU x 10^10)
                -4.8032
    Dipole Moment (Debye)
         X       7.2632      Y      -0.4529      Z      -0.0017
       Tot       7.2773
    Quadrupole Moments (Debye-Ang)
        XX    -129.3496     XY      11.8992     YY    -157.2151
        XZ       0.0032     YZ      -0.0011     ZZ    -136.9656

 Total job time:  167.78s(wall), 1156.89s(cpu)
        *  Thank you very much for using Q-Chem.  Have a nice day.  *
