 Gaussian 16, Revision A.03,
 Gaussian 16:  ES64L-G16RevA.03 25-Dec-2016

 --------------------------------------
 #P UB3LYP/6-311++G(d,p) nosym opt freq
 --------------------------------------

 -------
 Reduced
 -------
 Symbolic Z-matrix:
 Charge = -2 Multiplicity = 1

 SCF Done:  E(UB3LYP) =  -2019.71277794     A.U. after   47 cycles
 SCF Done:  E(UB3LYP) =  -2019.74236790     A.U. after   19 cycles
 SCF Done:  E(UB3LYP) =  -2019.75104397     A.U. after   19 cycles
 SCF Done:  E(UB3LYP) =  -2019.75348677     A.U. after   19 cycles
 SCF Done:  E(UB3LYP) =  -2019.75477030     A.U. after   19 cycles
 SCF Done:  E(UB3LYP) =  -2019.75565695     A.U. after   20 cycles
 SCF Done:  E(UB3LYP) =  -2019.75650234     A.U. after   19 cycles
 SCF Done:  E(UB3LYP) =  -2019.75696685     A.U. after   18 cycles
 SCF Done:  E(UB3LYP) =  -2019.75710629     A.U. after   16 cycles
 SCF Done:  E(UB3LYP) =  -2019.75705875     A.U. after   16 cycles
 SCF Done:  E(UB3LYP) =  -2019.75712457     A.U. after   16 cycles
 SCF Done:  E(UB3LYP) =  -2019.75713579     A.U. after   14 cycles
 SCF Done:  E(UB3LYP) =  -2019.75714267     A.U. after   15 cycles
 SCF Done:  E(UB3LYP) =  -2019.75714608     A.U. after   15 cycles
 SCF Done:  E(UB3LYP) =  -2019.75714860     A.U. after   14 cycles
 SCF Done:  E(UB3LYP) =  -2019.75714968     A.U. after   13 cycles
 SCF Done:  E(UB3LYP) =  -2019.75714985     A.U. after   13 cycles
 SCF Done:  E(UB3LYP) =  -2019.75714989     A.U. after   13 cycles
 SCF Done:  E(UB3LYP) =  -2019.75714990     A.U. after   12 cycles
 Optimization completed.
    -- Stationary point found.
 Normal termination of Gaussian 16 at Wed Dec 20 09:13:25 2023.

 ----------------------------------------------------------------------
 #P Geom=AllCheck Guess=TCheck SCRF=Check GenChk UB3LYP/6-311++G(d,p) F
 req
 ----------------------------------------------------------------------

 Structure from the checkpoint file:  "073-an.chk"
 -------
 Reduced
 -------
 Charge = -2 Multiplicity = 1

                          Input orientation:
 ---------------------------------------------------------------------
 Center     Atomic      Atomic             Coordinates (Angstroms)
 Number     Number       Type             X           Y           Z
 ---------------------------------------------------------------------
      1          6           0        0.903518    1.166555   -1.453466
      2          6           0       -0.464572    1.072235   -1.896183
      3          6           0       -1.381286    0.343509   -1.116870
      4          6           0       -1.061413   -0.387562    0.085827
      5          6           0        0.301941   -0.276749    0.539186
      6          6           0        1.205094    0.499555   -0.209494
      7          8           0        1.798071    1.806233   -2.117078
      8          8           0       -1.939244   -1.086095    0.711386
      9         16           0        2.906687    0.744410    0.331753
     10          6           0        3.190062    2.551269    0.358549
     11          6           0        3.690885    3.216491   -0.759894
     12          6           0        2.937973    3.233754    1.545857
     13          6           0        3.186910    4.605098    1.620712
     14          6           0        3.949612    4.585013   -0.672235
     15          6           0        3.695575    5.281743    0.510303
     16          8           0        3.904117    0.163147   -0.591159
     17          8           0        3.041597    0.359624    1.760580
     18          1           0        3.844762    2.657065   -1.670356
     19          1           0        2.560309    2.682984    2.398458
     20          1           0        4.334798    5.112296   -1.539966
     21          1           0        2.985492    5.140766    2.543623
     22          1           0        3.885877    6.350169    0.564397
     23         16           0       -3.123303    0.240270   -1.567327
     24          6           0       -4.074739    0.759702   -0.094042
     25          6           0       -4.404731    2.106979    0.028119
     26          6           0       -4.500386   -0.172651    0.851342
     27          6           0       -5.277831    0.261507    1.925831
     28          6           0       -5.171208    2.534870    1.113297
     29          6           0       -5.610432    1.610210    2.062852
     30          1           0       -4.067191    2.801596   -0.731143
     31          1           0       -4.198269   -1.202749    0.736384
     32          1           0       -5.609519   -0.456870    2.669653
     33          1           0       -5.424827    3.585957    1.214118
     34          1           0       -6.203420    1.941321    2.911030
     35          8           0       -3.560738   -1.130853   -1.903831
     36          8           0       -3.448366    1.289997   -2.567451
     37          6           0       -0.758218    1.747958   -3.214711
     38          6           0        0.629663   -1.071609    1.781045
     39          1           0        0.203080    2.018817   -3.654624
     40          1           0       -1.356504    2.657416   -3.090766
     41          1           0       -1.319249    1.105371   -3.897125
     42          1           0       -0.222194   -1.725804    1.974297
     43          1           0        0.785331   -0.429947    2.655367
     44          1           0        1.542417   -1.661537    1.670264
 ---------------------------------------------------------------------

 SCF Done:  E(UB3LYP) =  -2019.75714990     A.U. after    2 cycles

 Alpha  occ. eigenvalues --  -88.82209 -88.82207 -18.88551 -18.88548 -18.88401
 Alpha  occ. eigenvalues --  -18.88399 -18.80912 -18.80911 -10.00810 -10.00806
 Alpha  occ. eigenvalues --  -10.00702 -10.00699 -10.00392 -10.00389 -10.00082
 Alpha  occ. eigenvalues --  -10.00080  -9.99978  -9.99975  -9.99193  -9.99188
 Alpha  occ. eigenvalues --   -9.97806  -9.97805  -9.96029  -9.96027  -9.94301
 Alpha  occ. eigenvalues --   -9.94300  -9.92897  -9.92897  -7.88532  -7.88530
 Alpha  occ. eigenvalues --   -5.84818  -5.84816  -5.84738  -5.84736  -5.84599
 Alpha  occ. eigenvalues --   -5.84597  -0.87480  -0.87473  -0.76872  -0.76868
 Alpha  occ. eigenvalues --   -0.73575  -0.73176  -0.68215  -0.68211  -0.59759
 Alpha  occ. eigenvalues --   -0.58311  -0.58072  -0.57195  -0.57187  -0.55558
 Alpha  occ. eigenvalues --   -0.50275  -0.49942  -0.46565  -0.44333  -0.43150
 Alpha  occ. eigenvalues --   -0.43138  -0.41836  -0.40932  -0.38712  -0.36095
 Alpha  occ. eigenvalues --   -0.34157  -0.32828  -0.31644  -0.29211  -0.28126
 Alpha  occ. eigenvalues --   -0.28019  -0.27572  -0.27015  -0.26450  -0.26087
 Alpha  occ. eigenvalues --   -0.25299  -0.25057  -0.24781  -0.24165  -0.22430
 Alpha  occ. eigenvalues --   -0.22367  -0.19871  -0.19582  -0.19567  -0.19170
 Alpha  occ. eigenvalues --   -0.18690  -0.18089  -0.17862  -0.17380  -0.16897
 Alpha  occ. eigenvalues --   -0.16528  -0.15525  -0.14888  -0.13941  -0.13831
 Alpha  occ. eigenvalues --   -0.12236  -0.11812  -0.10631  -0.10577  -0.09476
 Alpha  occ. eigenvalues --   -0.09430  -0.08480  -0.08354  -0.07719  -0.07648
 Alpha  occ. eigenvalues --   -0.07512  -0.07261  -0.06623  -0.05844  -0.02001
 Alpha  occ. eigenvalues --   -0.01768   0.00712   0.01377   0.08503
 Alpha virt. eigenvalues --    0.12704   0.12799   0.14698   0.14740   0.14834
 Alpha virt. eigenvalues --    0.15334   0.16260   0.16340   0.16487   0.16603
 Alpha virt. eigenvalues --    0.18062   0.18250   0.19050   0.19640   0.19909

  Beta  occ. eigenvalues --  -88.82209 -88.82207 -18.88551 -18.88548 -18.88401
  Beta  occ. eigenvalues --  -18.88399 -18.80912 -18.80911 -10.00810 -10.00806
  Beta  occ. eigenvalues --  -10.00702 -10.00699 -10.00392 -10.00389 -10.00082
  Beta  occ. eigenvalues --  -10.00080  -9.99978  -9.99975  -9.99193  -9.99188
  Beta  occ. eigenvalues --   -9.97806  -9.97805  -9.96029  -9.96027  -9.94301
  Beta  occ. eigenvalues --   -9.94300  -9.92897  -9.92897  -7.88532  -7.88530
  Beta  occ. eigenvalues --   -5.84818  -5.84816  -5.84738  -5.84736  -5.84599
  Beta  occ. eigenvalues --   -5.84597  -0.87480  -0.87473  -0.76872  -0.76868
  Beta  occ. eigenvalues --   -0.73575  -0.73176  -0.68215  -0.68211  -0.59759
  Beta  occ. eigenvalues --   -0.58311  -0.58072  -0.57195  -0.57187  -0.55558
  Beta  occ. eigenvalues --   -0.50275  -0.49942  -0.46565  -0.44333  -0.43150
  Beta  occ. eigenvalues --   -0.43138  -0.41836  -0.40932  -0.38712  -0.36095
  Beta  occ. eigenvalues --   -0.34157  -0.32828  -0.31644  -0.29211  -0.28126
  Beta  occ. eigenvalues --   -0.28019  -0.27572  -0.27015  -0.26450  -0.26087
  Beta  occ. eigenvalues --   -0.25299  -0.25057  -0.24781  -0.24165  -0.22430
  Beta  occ. eigenvalues --   -0.22367  -0.19871  -0.19582  -0.19567  -0.19170
  Beta  occ. eigenvalues --   -0.18690  -0.18089  -0.17862  -0.17380  -0.16897
  Beta  occ. eigenvalues --   -0.16528  -0.15525  -0.14888  -0.13941  -0.13831
  Beta  occ. eigenvalues --   -0.12236  -0.11812  -0.10631  -0.10577  -0.09476
  Beta  occ. eigenvalues --   -0.09430  -0.08480  -0.08354  -0.07719  -0.07648
  Beta  occ. eigenvalues --   -0.07512  -0.07261  -0.06623  -0.05844  -0.02001
  Beta  occ. eigenvalues --   -0.01768   0.00712   0.01377   0.08503
  Beta virt. eigenvalues --    0.12704   0.12799   0.14698   0.14740   0.14834
  Beta virt. eigenvalues --    0.15334   0.16260   0.16340   0.16487   0.16603
  Beta virt. eigenvalues --    0.18062   0.18250   0.19050   0.19640   0.19909

 Mulliken charges and spin densities:
               1          2
     1  C   -1.007943   0.000000
     2  C    0.616194   0.000000
     3  C    0.407816  -0.000000
     4  C   -1.007392   0.000000
     5  C    0.614576  -0.000000
     6  C    0.408044   0.000000
     7  O   -0.384953  -0.000000
     8  O   -0.385088  -0.000000
     9  S   -0.034418   0.000000
    10  C    0.213514   0.000000
    11  C   -0.200939   0.000000
    12  C    0.172384  -0.000000
    13  C   -0.521562   0.000000
    14  C   -0.394599   0.000000
    15  C   -0.240678   0.000000
    16  O   -0.108229  -0.000000
    17  O   -0.175067  -0.000000
    18  H    0.288630  -0.000000
    19  H    0.222221  -0.000000
    20  H    0.138842  -0.000000
    21  H    0.130900   0.000000
    22  H    0.107674  -0.000000
    23  S   -0.033773   0.000000
    24  C    0.213762   0.000000
    25  C    0.174475   0.000000
    26  C   -0.203320  -0.000000
    27  C   -0.394353  -0.000000
    28  C   -0.521712   0.000000
    29  C   -0.240932   0.000000
    30  H    0.222257   0.000000
    31  H    0.288498  -0.000000
    32  H    0.138849  -0.000000
    33  H    0.130911  -0.000000
    34  H    0.107668   0.000000
    35  O   -0.107887   0.000000
    36  O   -0.175243   0.000000
    37  C   -0.676708   0.000000
    38  C   -0.676627   0.000000
    39  H    0.165927  -0.000000
    40  H    0.136802   0.000000
    41  H    0.144457   0.000000
    42  H    0.165977  -0.000000
    43  H    0.136764  -0.000000
    44  H    0.144281  -0.000000
 Sum of Mulliken charges =  -2.00000   0.00000

 Dipole moment (field-independent basis, Debye):
    X=              0.8108    Y=             -3.9381    Z=              6.4441  Tot=              7.5956
 Quadrupole moment (field-independent basis, Debye-Ang):
   XX=           -295.0078   YY=           -211.8009   ZZ=           -223.4513
   XY=            -15.4994   XZ=            -17.5451   YZ=              9.1444

  Exact polarizability: 480.321  55.490 334.165 -10.783 -10.664 323.127
 Approx polarizability: 642.121  50.120 564.629 -22.615 -48.822 584.505

                      1                      2                      3
                      A                      A                      A
 Frequencies --     16.9227                17.3131                33.3958
 Red. masses --      5.9614                 6.3176                 3.8785
 Frc consts  --      0.0010                 0.0011                 0.0025
 IR Inten    --      0.2236                 0.2721                 0.5710

                      4                      5                      6
                      A                      A                      A
 Frequencies --     36.2871                60.1334                69.3881
 Red. masses --      6.8811                 4.6595                 3.6642
 Frc consts  --      0.0053                 0.0099                 0.0104
 IR Inten    --      4.1864                 0.0216                 3.4993

                      7                      8                      9
                      A                      A                      A
 Frequencies --     73.1478               102.3463               107.3636
 Red. masses --      3.7709                 6.3068                 4.7790
 Frc consts  --      0.0119                 0.0389                 0.0325
 IR Inten    --      0.3193                 0.4087                 5.8910

                     10                     11                     12
                      A                      A                      A
 Frequencies --    143.2071               150.5963               155.0668
 Red. masses --      7.0192                 1.1143                 1.1554
 Frc consts  --      0.0848                 0.0149                 0.0164
 IR Inten    --      1.3930                 0.2729                 0.2856

                     13                     14                     15
                      A                      A                      A
 Frequencies --    174.4782               178.9055               190.2392
 Red. masses --      7.4532                 5.7591                 7.5730
 Frc consts  --      0.1337                 0.1086                 0.1615
 IR Inten    --      0.0833                 0.8666                 0.6154

                     16                     17                     18
                      A                      A                      A
 Frequencies --    195.3137               210.9574               217.3458
 Red. masses --      6.6064                 6.1521                 6.4240
 Frc consts  --      0.1485                 0.1613                 0.1788
 IR Inten    --      6.8832                 2.1436                 7.6452

                     19                     20                     21
                      A                      A                      A
 Frequencies --    243.7094               247.2516               270.8905
 Red. masses --      8.3310                 6.8699                 9.3708
 Frc consts  --      0.2915                 0.2474                 0.4051
 IR Inten    --      3.3499                 3.6820                 0.3141

                     22                     23                     24
                      A                      A                      A
 Frequencies --    295.0223               305.2756               306.1344
 Red. masses --      7.1418                 8.1819                 8.4193
 Frc consts  --      0.3662                 0.4493                 0.4649
 IR Inten    --      0.1604                 0.1700                 1.9421

                     25                     26                     27
                      A                      A                      A
 Frequencies --    333.1140               362.7316               375.7833
 Red. masses --      5.4929                 5.8132                 4.1480
 Frc consts  --      0.3591                 0.4506                 0.3451
 IR Inten    --      9.3296                 0.3496                 1.2695

                     28                     29                     30
                      A                      A                      A
 Frequencies --    381.4374               402.2493               405.4868
 Red. masses --      5.4360                 6.8169                 6.6507
 Frc consts  --      0.4660                 0.6499                 0.6443
 IR Inten    --      4.6399                 5.4647                 0.0655

                     31                     32                     33
                      A                      A                      A
 Frequencies --    416.6647               416.9818               440.0033
 Red. masses --      3.0046                 2.9637                 8.3292
 Frc consts  --      0.3073                 0.3036                 0.9501
 IR Inten    --      0.4445                 1.2242                 9.5905

                     34                     35                     36
                      A                      A                      A
 Frequencies --    441.3907               459.6843               477.1529
 Red. masses --      6.1455                 4.8942                 4.7640
 Frc consts  --      0.7054                 0.6093                 0.6390
 IR Inten    --      0.0394                 0.8806                 5.7919

                     37                     38                     39
                      A                      A                      A
 Frequencies --    499.8594               519.0237               544.0888
 Red. masses --      9.1032                 7.6391                11.5619
 Frc consts  --      1.3401                 1.2125                 2.0166
 IR Inten    --     32.2320                 1.1435                49.4652

                     40                     41                     42
                      A                      A                      A
 Frequencies --    563.4466               587.8277               592.0517
 Red. masses --      6.9681                 7.6339                 8.6004
 Frc consts  --      1.3034                 1.5542                 1.7762
 IR Inten    --     24.6612                19.2495               425.0382

                     43                     44                     45
                      A                      A                      A
 Frequencies --    627.2469               627.3124               690.2396
 Red. masses --      6.3883                 6.3830                 1.7593
 Frc consts  --      1.4808                 1.4799                 0.4938
 IR Inten    --      4.4250                 1.3262                 7.0353

                     46                     47                     48
                      A                      A                      A
 Frequencies --    690.7100               698.0725               702.8095
 Red. masses --      1.6260                 5.0900                 6.7824
 Frc consts  --      0.4570                 1.4614                 1.9738
 IR Inten    --    104.0203                 4.9377                28.6437

                     49                     50                     51
                      A                      A                      A
 Frequencies --    715.4115               725.7827               731.8101
 Red. masses --      6.2663                 5.9172                 6.2341
 Frc consts  --      1.8896                 1.8365                 1.9671
 IR Inten    --      4.1411                21.7335                73.9316

                     52                     53                     54
                      A                      A                      A
 Frequencies --    748.4211               749.4794               755.8454
 Red. masses --      2.3632                 2.0712                 6.0041
 Frc consts  --      0.7799                 0.6855                 2.0210
 IR Inten    --      1.3775                 2.4080                 0.6274

                     55                     56                     57
                      A                      A                      A
 Frequencies --    823.8089               824.3046               856.8831
 Red. masses --      1.2477                 1.2526                 9.4063
 Frc consts  --      0.4989                 0.5014                 4.0692
 IR Inten    --      5.2301                 1.9207                13.5669

                     58                     59                     60
                      A                      A                      A
 Frequencies --    904.8634               906.1484               921.4113
 Red. masses --      1.4155                 1.4050                 2.4131
 Frc consts  --      0.6829                 0.6797                 1.2071
 IR Inten    --     15.8450                 4.1374                23.4030

                     61                     62                     63
                      A                      A                      A
 Frequencies --    958.6866               959.2418               964.1868
 Red. masses --      1.3736                 1.3647                 1.2784
 Frc consts  --      0.7438                 0.7399                 0.7002
 IR Inten    --      2.7823                 0.2240                 0.2972

                     64                     65                     66
                      A                      A                      A
 Frequencies --    964.3657              1007.6072              1011.4072
 Red. masses --      1.2788                 4.5617                 6.0638
 Frc consts  --      0.7007                 2.7287                 3.6547
 IR Inten    --      0.1857                96.3274                 3.8256

                     67                     68                     69
                      A                      A                      A
 Frequencies --   1013.4129              1033.1836              1035.4386
 Red. masses --      4.4485                 6.4717                 5.1272
 Frc consts  --      2.6917                 4.0703                 3.2387
 IR Inten    --     16.5709               195.0920                68.8594

                     70                     71                     72
                      A                      A                      A
 Frequencies --   1046.1410              1046.5805              1049.5650
 Red. masses --      1.4521                 3.2244                 1.4576
 Frc consts  --      0.9363                 2.0809                 0.9460
 IR Inten    --     16.1766               231.0082                 0.1461

                     73                     74                     75
                      A                      A                      A
 Frequencies --   1051.4719              1055.1702              1086.2617
 Red. masses --      2.8360                 1.8637                 1.6187
 Frc consts  --      1.8474                 1.2226                 1.1253
 IR Inten    --     15.9240                12.7115                 6.9192

                     76                     77                     78
                      A                      A                      A
 Frequencies --   1086.4385              1091.1867              1093.1500
 Red. masses --      1.5909                 3.1472                 3.4724
 Frc consts  --      1.1064                 2.2078                 2.4448
 IR Inten    --     17.9082               139.3741                41.1090

                     79                     80                     81
                      A                      A                      A
 Frequencies --   1107.2740              1155.9724              1168.0989
 Red. masses --      5.9926                 7.3181                 1.1074
 Frc consts  --      4.3289                 5.7616                 0.8902
 IR Inten    --     10.8141               107.9484                 0.0067

                     82                     83                     84
                      A                      A                      A
 Frequencies --   1168.2821              1187.6486              1187.8103
 Red. masses --      1.1224                 1.1727                 1.1732
 Frc consts  --      0.9026                 0.9745                 0.9753
 IR Inten    --      3.0315                10.3883                 6.0079

                     85                     86                     87
                      A                      A                      A
 Frequencies --   1195.1501              1197.0720              1231.2159
 Red. masses --     12.5228                13.6993                 3.8891
 Frc consts  --     10.5389                11.5662                 3.4735
 IR Inten    --    139.0362               159.8027               179.2864

                     88                     89                     90
                      A                      A                      A
 Frequencies --   1328.3737              1328.5975              1339.1311
 Red. masses --      1.4803                 1.4866                 4.8670
 Frc consts  --      1.5390                 1.5461                 5.1423
 IR Inten    --      2.4285                 1.5329                 1.7338

                     91                     92                     93
                      A                      A                      A
 Frequencies --   1340.2656              1364.3858              1377.6394
 Red. masses --      4.7064                 2.7948                 1.4241
 Frc consts  --      4.9811                 3.0653                 1.5925
 IR Inten    --     13.9322                 3.7709               158.2079

                     94                     95                     96
                      A                      A                      A
 Frequencies --   1401.1739              1405.3747              1436.8907
 Red. masses --      1.6585                 8.5540                 4.2684
 Frc consts  --      1.9184                 9.9541                 5.1923
 IR Inten    --      0.0279                74.1028                 4.3268

                     97                     98                     99
                      A                      A                      A
 Frequencies --   1457.9659              1463.0518              1463.1031
 Red. masses --      2.4036                 2.1019                 2.1379
 Frc consts  --      3.0102                 2.6508                 2.6964
 IR Inten    --    536.3728                22.9869                14.7119

                    100                    101                    102
                      A                      A                      A
 Frequencies --   1473.5871              1477.7176              1494.1359
 Red. masses --      1.4011                 1.2602                 1.1034
 Frc consts  --      1.7925                 1.6213                 1.4513
 IR Inten    --    143.8703                 8.9924                 7.0281

                    103                    104                    105
                      A                      A                      A
 Frequencies --   1497.0838              1499.6829              1499.7006
 Red. masses --      1.0716                 2.0056                 2.0479
 Frc consts  --      1.4150                 2.6576                 2.7138
 IR Inten    --     11.6286                 6.1368                 7.8933

                    106                    107                    108
                      A                      A                      A
 Frequencies --   1555.6340              1605.9206              1607.1086
 Red. masses --      7.2731                 5.2687                 5.3442
 Frc consts  --     10.3701                 8.0058                 8.1324
 IR Inten    --     20.4495                38.9843                 0.0602

                    109                    110                    111
                      A                      A                      A
 Frequencies --   1611.8091              1612.7047              3007.7803
 Red. masses --      5.8444                 5.8626                 1.0428
 Frc consts  --      8.9458                 8.9836                 5.5584
 IR Inten    --     47.0861                18.2213               208.7693

                    112                    113                    114
                      A                      A                      A
 Frequencies --   3009.0392              3056.3993              3056.7547
 Red. masses --      1.0430                 1.0896                 1.0893
 Frc consts  --      5.5643                 5.9969                 5.9968
 IR Inten    --      2.4251                30.0326                80.4215

                    115                    116                    117
                      A                      A                      A
 Frequencies --   3100.0787              3100.3221              3127.4350
 Red. masses --      1.1019                 1.1019                 1.0837
 Frc consts  --      6.2395                 6.2405                 6.2449
 IR Inten    --     17.3450                 1.0329                 3.2136

                    118                    119                    120
                      A                      A                      A
 Frequencies --   3127.4581              3145.6565              3145.7170
 Red. masses --      1.0837                 1.0894                 1.0893
 Frc consts  --      6.2450                 6.3510                 6.3512
 IR Inten    --      3.5823                53.3908                43.8524

                    121                    122                    123
                      A                      A                      A
 Frequencies --   3157.8758              3158.0652              3194.6816
 Red. masses --      1.0953                 1.0952                 1.0918
 Frc consts  --      6.4355                 6.4358                 6.5652
 IR Inten    --     88.5220                72.4649                 4.1728

                    124                    125                    126
                      A                      A                      A
 Frequencies --   3194.7554              3234.6309              3234.6894
 Red. masses --      1.0918                 1.0922                 1.0922
 Frc consts  --      6.5655                 6.7331                 6.7333
 IR Inten    --     11.9869                 3.8309                 3.7395

 - Thermochemistry -
 -------------------
 Temperature   298.150 Kelvin.  Pressure   1.00000 Atm.
 Atom     1 has atomic number  6 and mass  12.00000

 Molecular mass:   416.03883 amu.
 Principal axes and moments of inertia in atomic units:
                           1         2         3
     Eigenvalues --  6463.74653********************
           X            0.96665  -0.23401   0.10405
           Y            0.25346   0.81593  -0.51963
           Z            0.03670   0.52867   0.84803
 This molecule is an asymmetric top.
 Rotational symmetry number  1.
 Warning -- assumption of classical behavior for rotation
           may cause significant error
 Rotational temperatures (Kelvin)      0.01340     0.00448     0.00445
 Rotational constants (GHZ):           0.27921     0.09327     0.09263
 Zero-point vibrational energy     828800.5 (Joules/Mol)
                                  198.08808 (Kcal/Mol)
 Warning -- explicit consideration of  42 degrees of freedom as
           vibrations may cause significant error
 Vibrational temperatures:     24.35    24.91    48.05    52.21    86.52
          (Kelvin)             99.83   105.24   147.25   154.47   206.04
                              216.67   223.11   251.04   257.41   273.71
                              281.01   303.52   312.71   350.64   355.74
                              389.75   424.47   439.22   440.46   479.28
                              521.89   540.67   548.80   578.75   583.41
                              599.49   599.94   633.07   635.06   661.38
                              686.52   719.19   746.76   782.82   810.67
                              845.75   851.83   902.47   902.56   993.10
                              993.78  1004.37  1011.19  1029.32  1044.24
                             1052.91  1076.81  1078.33  1087.49  1185.28
                             1185.99  1232.86  1301.90  1303.75  1325.71
                             1379.34  1380.14  1387.25  1387.51  1449.72
                             1455.19  1458.08  1486.52  1489.77  1505.16
                             1505.80  1510.09  1512.83  1518.15  1562.89
                             1563.14  1569.97  1572.80  1593.12  1663.19
                             1680.63  1680.90  1708.76  1708.99  1719.55
                             1722.32  1771.45  1911.23  1911.56  1926.71
                             1928.34  1963.05  1982.12  2015.98  2022.02
                             2067.37  2097.69  2105.01  2105.08  2120.16
                             2126.11  2149.73  2153.97  2157.71  2157.73
                             2238.21  2310.56  2312.27  2319.03  2320.32
                             4327.52  4329.34  4397.48  4397.99  4460.32
                             4460.67  4499.68  4499.71  4525.90  4525.99
                             4543.48  4543.75  4596.43  4596.54  4653.91
                             4654.00

 Zero-point correction=                           0.315673 (Hartree/Particle)
 Thermal correction to Energy=                    0.341321
 Thermal correction to Enthalpy=                  0.342265
 Thermal correction to Gibbs Free Energy=         0.258449
 Sum of electronic and zero-point Energies=          -2019.441476
 Sum of electronic and thermal Energies=             -2019.415829
 Sum of electronic and thermal Enthalpies=           -2019.414885
 Sum of electronic and thermal Free Energies=        -2019.498700

                     E (Thermal)             CV                S
                      KCal/Mol        Cal/Mol-Kelvin    Cal/Mol-Kelvin
 Total                  214.182             98.364            176.405
 Electronic               0.000              0.000              0.000
 Translational            0.889              2.981             43.967
 Rotational               0.889              2.981             36.142
 Vibrational            212.405             92.403             96.295
 Vibration     1          0.593              1.986              6.966
 Vibration     2          0.593              1.986              6.921
 Vibration     3          0.594              1.983              5.617
 Vibration     4          0.594              1.982              5.452
 Vibration     5          0.597              1.973              4.453
 Vibration     6          0.598              1.969              4.171
 Vibration     7          0.599              1.967              4.067
 Vibration     8          0.604              1.947              3.409
 Vibration     9          0.606              1.943              3.316
 Vibration    10          0.616              1.910              2.761
 Vibration    11          0.618              1.902              2.665
 Vibration    12          0.620              1.897              2.609
 Vibration    13          0.627              1.874              2.387
 Vibration    14          0.629              1.868              2.340
 Vibration    15          0.634              1.853              2.225
 Vibration    16          0.636              1.846              2.177
 Vibration    17          0.643              1.824              2.035
 Vibration    18          0.646              1.815              1.981
 Vibration    19          0.659              1.773              1.776
 Vibration    20          0.661              1.767              1.750
 Vibration    21          0.675              1.727              1.591
 Vibration    22          0.689              1.683              1.445
 Vibration    23          0.696              1.664              1.388
 Vibration    24          0.697              1.662              1.383
 Vibration    25          0.715              1.609              1.245
 Vibration    26          0.737              1.549              1.110
 Vibration    27          0.747              1.522              1.056
 Vibration    28          0.751              1.510              1.033
 Vibration    29          0.768              1.465              0.954
 Vibration    30          0.770              1.458              0.943
 Vibration    31          0.780              1.434              0.903
 Vibration    32          0.780              1.433              0.902
 Vibration    33          0.800              1.383              0.827
 Vibration    34          0.801              1.380              0.822
 Vibration    35          0.818              1.339              0.767
 Vibration    36          0.834              1.301              0.718
 Vibration    37          0.855              1.250              0.658
 Vibration    38          0.874              1.208              0.612
 Vibration    39          0.899              1.153              0.557
 Vibration    40          0.919              1.110              0.517
 Vibration    41          0.945              1.058              0.471
 Vibration    42          0.950              1.049              0.464

                           ! Non-Optimized Parameters !
 Normal termination of Gaussian 16 at Wed Dec 20 17:08:47 2023.
