 Gaussian 16, Revision A.03,
 Gaussian 16:  ES64L-G16RevA.03 25-Dec-2016

 ----------------------------------------------------------------------
 #P UB3LYP/6-311++G(d,p) nosym opt freq SCRF=(PCM,Solvent=n,n-DiMethylF
 ormamide)
 ----------------------------------------------------------------------

 -------
 Radical
 -------
 Symbolic Z-matrix:
 Charge = -1 Multiplicity = 2

 SCF Done:  E(UB3LYP) =  -706.338197975     A.U. after   19 cycles
 SCF Done:  E(UB3LYP) =  -706.338428727     A.U. after   14 cycles
 SCF Done:  E(UB3LYP) =  -706.338463940     A.U. after   14 cycles
 SCF Done:  E(UB3LYP) =  -706.338467603     A.U. after   12 cycles
 SCF Done:  E(UB3LYP) =  -706.338468539     A.U. after   10 cycles
 SCF Done:  E(UB3LYP) =  -706.338468707     A.U. after   10 cycles
 Optimization completed.
    -- Stationary point found.
 Normal termination of Gaussian 16 at Sun Feb 11 00:52:51 2024.

 ----------------------------------------------------------------------
 #P Geom=AllCheck Guess=TCheck SCRF=Check GenChk UB3LYP/6-311++G(d,p) F
 req
 ----------------------------------------------------------------------

 Structure from the checkpoint file:  "228-rad.chk"
 -------
 Radical
 -------
 Charge = -1 Multiplicity = 2

                          Input orientation:
 ---------------------------------------------------------------------
 Center     Atomic      Atomic             Coordinates (Angstroms)
 Number     Number       Type             X           Y           Z
 ---------------------------------------------------------------------
      1          6           0        5.806222   -5.110092    1.255633
      2          6           0        6.798834   -5.046868    0.302598
      3          6           0        6.676632   -4.123763   -0.768154
      4          6           0        4.668867   -4.275897    1.191195
      5          6           0        4.550308   -3.352043    0.118212
      6          6           0        5.562618   -3.291678   -0.849709
      7          6           0        3.630836   -4.367542    2.218408
      8          6           0        2.491333   -3.480295    2.085951
      9          6           0        2.373852   -2.576638    1.038163
     10          6           0        3.386359   -2.461475    0.008455
     11          8           0        3.740367   -5.192186    3.174737
     12          8           0        3.293572   -1.639860   -0.947712
     13          6           0        7.696768   -4.046680   -1.762422
     14          7           0        8.529540   -3.989137   -2.565606
     15          1           0        5.881815   -5.808025    2.079962
     16          1           0        7.667343   -5.691367    0.361700
     17          1           0        5.459989   -2.584389   -1.662802
     18          6           0        1.416441   -3.568604    3.139488
     19          6           0        1.171341   -1.672255    0.937740
     20          1           0        1.674346   -4.327030    3.876634
     21          1           0        0.445986   -3.824995    2.700561
     22          1           0        1.283217   -2.611745    3.656156
     23          1           0        0.241515   -2.247581    0.869458
     24          1           0        1.250558   -1.038726    0.055865
     25          1           0        1.077843   -1.029251    1.819851
 ---------------------------------------------------------------------

 SCF Done:  E(UB3LYP) =  -706.338468707     A.U. after    1 cycles

 Alpha  occ. eigenvalues --  -19.07923 -19.07730 -14.32028 -10.22633 -10.22300
 Alpha  occ. eigenvalues --  -10.22207 -10.21515 -10.19215 -10.19036 -10.18301
 Alpha  occ. eigenvalues --  -10.18208 -10.18026 -10.17466 -10.17314 -10.15492
 Alpha  occ. eigenvalues --  -10.15490  -1.00298  -0.99881  -0.92243  -0.87402
 Alpha  occ. eigenvalues --   -0.82553  -0.78184  -0.76629  -0.72668  -0.69135
 Alpha  occ. eigenvalues --   -0.66989  -0.62506  -0.60621  -0.56784  -0.54087
 Alpha  occ. eigenvalues --   -0.51292  -0.48252  -0.47132  -0.44019  -0.43875
 Alpha  occ. eigenvalues --   -0.43059  -0.42313  -0.41147  -0.40420  -0.39814
 Alpha  occ. eigenvalues --   -0.39074  -0.38671  -0.38567  -0.38201  -0.37059
 Alpha  occ. eigenvalues --   -0.37054  -0.35167  -0.34797  -0.34109  -0.34031
 Alpha  occ. eigenvalues --   -0.27409  -0.26829  -0.24962  -0.24743  -0.23905
 Alpha  occ. eigenvalues --   -0.15658
 Alpha virt. eigenvalues --   -0.05844  -0.03282  -0.00593   0.00334   0.01340
 Alpha virt. eigenvalues --    0.01926   0.02579   0.02782   0.03103   0.04066
 Alpha virt. eigenvalues --    0.04070   0.04774   0.05123   0.05368   0.05390

  Beta  occ. eigenvalues --  -19.07322 -19.07073 -14.31992 -10.22492 -10.22216
  Beta  occ. eigenvalues --  -10.22139 -10.21464 -10.19245 -10.18967 -10.18198
  Beta  occ. eigenvalues --  -10.18135 -10.18032 -10.17381 -10.17192 -10.15500
  Beta  occ. eigenvalues --  -10.15499  -0.99247  -0.98728  -0.92187  -0.87209
  Beta  occ. eigenvalues --   -0.82122  -0.77985  -0.76455  -0.72352  -0.68911
  Beta  occ. eigenvalues --   -0.66464  -0.62315  -0.60318  -0.56595  -0.53797
  Beta  occ. eigenvalues --   -0.51087  -0.48033  -0.46969  -0.43848  -0.43315
  Beta  occ. eigenvalues --   -0.42721  -0.41968  -0.40817  -0.40003  -0.39280
  Beta  occ. eigenvalues --   -0.38927  -0.38498  -0.38128  -0.37778  -0.37015
  Beta  occ. eigenvalues --   -0.35055  -0.34899  -0.34605  -0.33898  -0.33161
  Beta  occ. eigenvalues --   -0.26242  -0.25278  -0.24382  -0.23534  -0.23329
  Beta virt. eigenvalues --   -0.09260  -0.05100  -0.02302  -0.00570   0.00340
  Beta virt. eigenvalues --    0.01355   0.01946   0.02581   0.02801   0.03214
  Beta virt. eigenvalues --    0.04093   0.04784   0.05082   0.05139   0.05397

 Mulliken charges and spin densities:
               1          2
     1  C    0.018580   0.015233
     2  C   -0.674071   0.057714
     3  C    1.449089   0.033102
     4  C    0.177061   0.041816
     5  C   -0.105114   0.032463
     6  C    0.196100  -0.009309
     7  C   -0.594387   0.105940
     8  C    0.390946   0.058158
     9  C    0.756660   0.104796
    10  C   -0.661679   0.080820
    11  O   -0.473880   0.240554
    12  O   -0.461754   0.219440
    13  C   -1.434744  -0.014025
    14  N   -0.293321   0.018497
    15  H    0.168570  -0.001734
    16  H    0.205550  -0.003780
    17  H    0.190669  -0.000222
    18  C   -0.438393   0.006828
    19  C   -0.402468   0.002433
    20  H    0.187000  -0.001540
    21  H    0.153985   0.002914
    22  H    0.154296   0.002937
    23  H    0.154192   0.004119
    24  H    0.182492  -0.001318
    25  H    0.154620   0.004167
 Sum of Mulliken charges =  -1.00000   1.00000

 Dipole moment (field-independent basis, Debye):
    X=            -23.5958    Y=             16.9536    Z=             -0.1644  Tot=             29.0553
 Quadrupole moment (field-independent basis, Debye-Ang):
   XX=           -235.0412   YY=           -169.4613   ZZ=           -132.2365
   XY=             84.2707   XZ=             17.4011   YZ=             15.6801

  Exact polarizability: 344.827 -73.821 224.660 -98.729 -61.707 290.459
 Approx polarizability: 357.687 -73.148 260.473 -93.798 -83.103 332.769

                      1                      2                      3
                      A                      A                      A
 Frequencies --     25.5655                53.8691                82.4217
 Red. masses --      1.2937                 3.2090                 6.3554
 Frc consts  --      0.0005                 0.0055                 0.0254
 IR Inten    --      0.9809                 1.8255                20.3367

                      4                      5                      6
                      A                      A                      A
 Frequencies --    118.0619               120.1754               125.5648
 Red. masses --      1.7034                 7.8377                 1.5412
 Frc consts  --      0.0140                 0.0667                 0.0143
 IR Inten    --      0.9458                 4.3173                 1.8980

                      7                      8                      9
                      A                      A                      A
 Frequencies --    151.5794               206.5536               259.3619
 Red. masses --      4.7978                 5.5737                 5.4287
 Frc consts  --      0.0649                 0.1401                 0.2152
 IR Inten    --      5.2997                 0.0570                17.5913

                     10                     11                     12
                      A                      A                      A
 Frequencies --    296.1884               316.1318               342.3439
 Red. masses --      4.1879                 3.4602                 4.7263
 Frc consts  --      0.2165                 0.2037                 0.3264
 IR Inten    --      0.0563                 0.7059                 5.4324

                     13                     14                     15
                      A                      A                      A
 Frequencies --    347.3516               411.5068               416.0463
 Red. masses --      4.4831                 7.8632                 6.3667
 Frc consts  --      0.3187                 0.7845                 0.6493
 IR Inten    --      2.6381                10.2104                 0.0374

                     16                     17                     18
                      A                      A                      A
 Frequencies --    428.2335               438.2302               498.4776
 Red. masses --      6.3810                 3.3580                 5.1327
 Frc consts  --      0.6894                 0.3800                 0.7514
 IR Inten    --     14.2670                 1.3382                 1.9126

                     19                     20                     21
                      A                      A                      A
 Frequencies --    500.6280               557.4969               579.6527
 Red. masses --     10.1521                 6.6856                 7.3037
 Frc consts  --      1.4991                 1.2243                 1.4459
 IR Inten    --      0.8684                13.7123                 5.7943

                     22                     23                     24
                      A                      A                      A
 Frequencies --    596.7017               659.9173               680.8920
 Red. masses --      5.1916                 4.8242                 3.8195
 Frc consts  --      1.0891                 1.2378                 1.0433
 IR Inten    --     21.2176                10.3147                22.1727

                     25                     26                     27
                      A                      A                      A
 Frequencies --    687.4526               721.8077               735.9051
 Red. masses --      6.8989                 6.5301                 4.6388
 Frc consts  --      1.9209                 2.0045                 1.4801
 IR Inten    --      7.6085                16.5576                18.3158

                     28                     29                     30
                      A                      A                      A
 Frequencies --    782.5592               839.9606               872.4188
 Red. masses --      4.3386                 1.5955                 4.0032
 Frc consts  --      1.5654                 0.6632                 1.7952
 IR Inten    --      0.5165                34.4082                10.1268

                     31                     32                     33
                      A                      A                      A
 Frequencies --    919.3597               941.7331               990.1116
 Red. masses --      2.8922                 1.4404                 1.3236
 Frc consts  --      1.4403                 0.7526                 0.7645
 IR Inten    --      0.0617                15.9937                 0.7671

                     34                     35                     36
                      A                      A                      A
 Frequencies --    998.7153              1020.8157              1023.9789
 Red. masses --      2.6464                 1.8897                 1.4339
 Frc consts  --      1.5552                 1.1602                 0.8858
 IR Inten    --     21.1283                 1.8379                 0.7148

                     37                     38                     39
                      A                      A                      A
 Frequencies --   1054.2249              1104.9311              1126.1273
 Red. masses --      1.5457                 2.7260                 2.0261
 Frc consts  --      1.0121                 1.9609                 1.5139
 IR Inten    --      0.0075                51.5323                78.3445

                     40                     41                     42
                      A                      A                      A
 Frequencies --   1142.6371              1199.8579              1212.9028
 Red. masses --      1.7037                 3.8105                 2.9193
 Frc consts  --      1.3105                 3.2321                 2.5303
 IR Inten    --     10.2974                21.6472                91.2737

                     43                     44                     45
                      A                      A                      A
 Frequencies --   1231.7100              1275.1594              1350.9722
 Red. masses --      4.9651                 1.9494                 6.5435
 Frc consts  --      4.4380                 1.8675                 7.0365
 IR Inten    --    190.2114                63.7054               100.5176

                     46                     47                     48
                      A                      A                      A
 Frequencies --   1373.2043              1388.6035              1392.4871
 Red. masses --      1.7610                 2.3912                 1.2484
 Frc consts  --      1.9566                 2.7166                 1.4262
 IR Inten    --     10.8649               271.4694                 5.4546

                     49                     50                     51
                      A                      A                      A
 Frequencies --   1436.1341              1466.7306              1473.8395
 Red. masses --      2.7581                 1.3451                 2.3510
 Frc consts  --      3.3516                 1.7049                 3.0088
 IR Inten    --    135.2648                67.2291               305.2226

                     52                     53                     54
                      A                      A                      A
 Frequencies --   1478.7697              1482.9142              1488.9486
 Red. masses --      1.0516                 1.7586                 4.1234
 Frc consts  --      1.3549                 2.2785                 5.3859
 IR Inten    --      1.9021               221.4510               577.0480

                     55                     56                     57
                      A                      A                      A
 Frequencies --   1493.5255              1509.2926              1529.4707
 Red. masses --      1.0469                 5.0900                 4.6064
 Frc consts  --      1.3759                 6.8315                 6.3489
 IR Inten    --     27.4587               265.7400               129.6601

                     58                     59                     60
                      A                      A                      A
 Frequencies --   1591.3234              1623.6453              2296.5058
 Red. masses --      8.1475                 6.6623                12.6808
 Frc consts  --     12.1560                10.3481                39.4033
 IR Inten    --     49.7043               118.7548               639.4443

                     61                     62                     63
                      A                      A                      A
 Frequencies --   3012.1510              3013.0433              3049.1499
 Red. masses --      1.0406                 1.0415                 1.0992
 Frc consts  --      5.5626                 5.5707                 6.0214
 IR Inten    --    154.3894                10.4420                71.6362

                     64                     65                     66
                      A                      A                      A
 Frequencies --   3053.0781              3128.1066              3128.5727
 Red. masses --      1.0995                 1.0957                 1.0955
 Frc consts  --      6.0383                 6.3171                 6.3174
 IR Inten    --      0.6918                 8.6035                20.9296

                     67                     68                     69
                      A                      A                      A
 Frequencies --   3185.6433              3199.8752              3201.4533
 Red. masses --      1.0880                 1.0912                 1.0942
 Frc consts  --      6.5053                 6.5832                 6.6075
 IR Inten    --      1.4380                 1.9261                17.0335

 - Thermochemistry -
 -------------------
 Temperature   298.150 Kelvin.  Pressure   1.00000 Atm.
 Atom     1 has atomic number  6 and mass  12.00000

 Molecular mass:   211.06333 amu.
 Principal axes and moments of inertia in atomic units:
                           1         2         3
     Eigenvalues --  1732.758794935.507486646.04084
           X            0.83461  -0.27625   0.47656
           Y           -0.16164   0.70424   0.69132
           Z           -0.52659  -0.65401   0.54311
 This molecule is an asymmetric top.
 Rotational symmetry number  1.
 Warning -- assumption of classical behavior for rotation
           may cause significant error
 Rotational temperatures (Kelvin)      0.04999     0.01755     0.01303
 Rotational constants (GHZ):           1.04154     0.36566     0.27155
 Zero-point vibrational energy     481154.6 (Joules/Mol)
                                  114.99870 (Kcal/Mol)
 Warning -- explicit consideration of  22 degrees of freedom as
           vibrations may cause significant error
 Vibrational temperatures:     36.78    77.51   118.59   169.86   172.91
          (Kelvin)            180.66   218.09   297.18   373.16   426.15
                              454.84   492.56   499.76   592.07   598.60
                              616.13   630.52   717.20   720.29   802.11
                              833.99   858.52   949.47   979.65   989.09
                             1038.52  1058.80  1125.93  1208.52  1255.22
                             1322.75  1354.94  1424.55  1436.93  1468.73
                             1473.28  1516.79  1589.75  1620.25  1644.00
                             1726.33  1745.10  1772.16  1834.67  1943.75
                             1975.73  1997.89  2003.48  2066.28  2110.30
                             2120.53  2127.62  2133.58  2142.26  2148.85
                             2171.54  2200.57  2289.56  2336.06  3304.16
                             4333.81  4335.10  4387.05  4392.70  4500.65
                             4501.32  4583.43  4603.91  4606.18

 Zero-point correction=                           0.183262 (Hartree/Particle)
 Thermal correction to Energy=                    0.197268
 Thermal correction to Enthalpy=                  0.198212
 Thermal correction to Gibbs Free Energy=         0.140819
 Sum of electronic and zero-point Energies=           -706.155207
 Sum of electronic and thermal Energies=              -706.141201
 Sum of electronic and thermal Enthalpies=            -706.140257
 Sum of electronic and thermal Free Energies=         -706.197650

                     E (Thermal)             CV                S
                      KCal/Mol        Cal/Mol-Kelvin    Cal/Mol-Kelvin
 Total                  123.788             52.573            120.795
 Electronic               0.000              0.000              1.377
 Translational            0.889              2.981             41.945
 Rotational               0.889              2.981             32.408
 Vibrational            122.010             46.612             45.065
 Vibration     1          0.593              1.985              6.147
 Vibration     2          0.596              1.976              4.670
 Vibration     3          0.600              1.961              3.832
 Vibration     4          0.608              1.934              3.132
 Vibration     5          0.609              1.932              3.098
 Vibration     6          0.611              1.928              3.013
 Vibration     7          0.619              1.901              2.652
 Vibration     8          0.641              1.831              2.074
 Vibration     9          0.668              1.747              1.666
 Vibration    10          0.690              1.681              1.438
 Vibration    11          0.703              1.643              1.330
 Vibration    12          0.721              1.591              1.201
 Vibration    13          0.725              1.581              1.178
 Vibration    14          0.775              1.445              0.921
 Vibration    15          0.779              1.435              0.906
 Vibration    16          0.790              1.409              0.864
 Vibration    17          0.798              1.387              0.832
 Vibration    18          0.854              1.253              0.662
 Vibration    19          0.856              1.249              0.657
 Vibration    20          0.913              1.123              0.529
 Vibration    21          0.936              1.075              0.486
 Vibration    22          0.955              1.039              0.455

                           ! Non-Optimized Parameters !
 Normal termination of Gaussian 16 at Sun Feb 11 01:17:58 2024.
