 Q-Chem 5.4, Q-Chem, Inc., Pleasanton, CA (2021)
 Q-Chem 5.4.0 for Intel X86 EM64T Linux

User input:
--------------------------------------------------------------
$molecule
-2 1
C                 -1.7884430000     -3.7300970000      1.2876370000
C                 -0.4173630000     -3.9348370000      1.0667330000
C                  0.4350520000     -2.9030240000      0.6037950000
C                 -0.0162180000     -1.5825980000      0.3212910000
C                 -1.4320960000     -1.3640330000      0.5531320000
C                 -2.2390070000     -2.4024410000      1.0062600000
O                 -2.7007240000     -4.5996060000      1.7208340000
O                  0.7558690000     -0.6218130000     -0.1123750000
O                 -3.6053460000     -2.2519370000      1.2422470000
C                 -1.9964480000      0.0094220000      0.2991750000
H                 -0.0077510000     -4.9283140000      1.2621780000
H                  1.4945910000     -3.1079190000      0.4432790000
H                 -1.2845340000      0.7717730000      0.6396860000
H                 -2.9613430000      0.1412660000      0.8011170000
H                 -2.1488680000      0.2076140000     -0.7768290000
H                 -3.7870290000     -3.1845730000      1.5479710000
$end
$rem
MAX_SCF_CYCLES=200
BASIS  =  6-311++G(d,p)
GUI  =  2
JOB_TYPE  =  SP
METHOD  =  B3LYP
SOLVENT_METHOD = PCM
$end
$pcm
theory = CPCM
$end
$solvent
dielectric 37.219
opticaldielectric 1.43
$end

--------------------------------------------------------------

             Standard Nuclear Orientation (Angstroms)
    I     Atom           X                Y                Z
 ----------------------------------------------------------------
    1      C      -1.7884430000    -3.7300970000     1.2876370000
    2      C      -0.4173630000    -3.9348370000     1.0667330000
    3      C       0.4350520000    -2.9030240000     0.6037950000
    4      C      -0.0162180000    -1.5825980000     0.3212910000
    5      C      -1.4320960000    -1.3640330000     0.5531320000
    6      C      -2.2390070000    -2.4024410000     1.0062600000
    7      O      -2.7007240000    -4.5996060000     1.7208340000
    8      O       0.7558690000    -0.6218130000    -0.1123750000
    9      O      -3.6053460000    -2.2519370000     1.2422470000
   10      C      -1.9964480000     0.0094220000     0.2991750000
   11      H      -0.0077510000    -4.9283140000     1.2621780000
   12      H       1.4945910000    -3.1079190000     0.4432790000
   13      H      -1.2845340000     0.7717730000     0.6396860000
   14      H      -2.9613430000     0.1412660000     0.8011170000
   15      H      -2.1488680000     0.2076140000    -0.7768290000
   16      H      -3.7870290000    -3.1845730000     1.5479710000
 ----------------------------------------------------------------

    9    -496.4206982307      5.71e-06  Convergence criterion met
 Total energy in the final basis set =     -496.4206982307

                    Orbital Energies (a.u.)
 --------------------------------------------------------------

 Alpha MOs
 -- Occupied --
-19.1082 -19.0289 -19.0164 -10.1768 -10.1687 -10.1638 -10.1389 -10.1279
-10.1239 -10.1152  -1.0174  -0.9239  -0.9189  -0.7795  -0.7234  -0.6543
 -0.6329  -0.5448  -0.5392  -0.4667  -0.4446  -0.4143  -0.3988  -0.3900
 -0.3680  -0.3640  -0.3588  -0.3551  -0.3211  -0.3184  -0.3043  -0.2977
 -0.2254  -0.2170  -0.1966  -0.1879  -0.1221

          Ground-State Mulliken Net Atomic Charges

     Atom                 Charge (a.u.)
  ----------------------------------------
      1 C                    -0.180631
      2 C                    -0.085443
      3 C                     0.033844
      4 C                    -0.923820
      5 C                     1.699974
      6 C                    -1.290169
      7 O                    -0.786607
      8 O                    -0.756017
      9 O                    -0.374573
     10 C                    -0.333357
     11 H                     0.143898
     12 H                     0.127746
     13 H                     0.141118
     14 H                     0.152745
     15 H                     0.149534
     16 H                     0.281760
  ----------------------------------------
  Sum of atomic charges =    -2.000000

                    Cartesian Multipole Moments
 -----------------------------------------------------------------
    Charge (ESU x 10^10)
                -9.6064
    Dipole Moment (Debye)
         X      10.0888      Y      23.6634      Z      -7.4820
       Tot      26.7903
    Quadrupole Moments (Debye-Ang)
        XX    -107.6488     XY     -47.2698     YY    -157.3213
        XZ      20.1158     YZ      31.8182     ZZ     -80.0405

 Total job time:  70.18s(wall), 84.03s(cpu)
        *  Thank you very much for using Q-Chem.  Have a nice day.  *
