 Q-Chem 5.4, Q-Chem, Inc., Pleasanton, CA (2021)
 Q-Chem 5.4.0 for Intel X86 EM64T Linux

User input:
--------------------------------------------------------------
$molecule
-2 1
Cl                -2.5586870000      1.7714730000      0.7039090000
C                 -1.1104380000      0.7749960000      0.4004050000
C                 -1.1699070000     -0.6171740000      0.5381180000
Cl                -2.6954240000     -1.4088030000      1.0185330000
C                 -0.0648810000     -1.5108100000      0.3182940000
O                 -0.1196250000     -2.7799100000      0.4439950000
C                  1.1102220000     -0.7749440000     -0.0628240000
C                  1.1700060000      0.6173700000     -0.2006340000
Cl                 2.6955870000      1.4084640000     -0.6809710000
C                  0.0650020000      1.5108480000      0.0191650000
O                  0.1193900000      2.7799310000     -0.1063840000
Cl                 2.5587550000     -1.7714410000     -0.3663620000
$end
$rem
MAX_SCF_CYCLES=200
BASIS  =  6-311++G(d,p)
GUI  =  2
JOB_TYPE  =  SP
METHOD  =  B3LYP
SOLVENT_METHOD = COSMO
$end
$solvent
dielectric 37.219
opticaldielectric 1.43
$end

--------------------------------------------------------------

             Standard Nuclear Orientation (Angstroms)
    I     Atom           X                Y                Z
 ----------------------------------------------------------------
    1      Cl      2.7227799746     1.5993814950    -0.0000576442
    2      C       1.1819202636     0.7003500182     0.0000428608
    3      C       1.1815997168    -0.6998780477    -0.0000030800
    4      Cl      2.7229106260    -1.5993433570     0.0000362800
    5      C       0.0000207077    -1.5195495654    -0.0000268960
    6      O       0.0002831420    -2.7960339502    -0.0000866430
    7      C      -1.1816630221    -0.7002569907    -0.0000185913
    8      C      -1.1816614733     0.7001372378     0.0000268610
    9      Cl     -2.7230499268     1.5990656921    -0.0000591735
   10      C      -0.0001205711     1.5196550656     0.0000823042
   11      O      -0.0000020043     2.7960923938     0.0000895836
   12      Cl     -2.7228067227    -1.5992928805     0.0000426391
 ----------------------------------------------------------------

    9   -2220.0728047133      7.37e-06  Convergence criterion met
 Total energy in the final basis set =    -2220.0728047133
    5   -2220.3477800481      6.12e-06  Convergence criterion met
 Total energy in the final basis set =    -2220.3477800481

                    Orbital Energies (a.u.)
 --------------------------------------------------------------

 Alpha MOs
 -- Occupied --
********-101.5401-101.5401-101.5401 -19.0422 -19.0422 -10.2120 -10.2118
-10.2118 -10.2114 -10.2113 -10.2111  -9.4545  -9.4545  -9.4545  -9.4544
 -7.2188  -7.2188  -7.2188  -7.2187  -7.2098  -7.2098  -7.2098  -7.2098
 -7.2089  -7.2089  -7.2089  -7.2089  -0.9707  -0.9658  -0.8730  -0.8650
 -0.8284  -0.8259  -0.7760  -0.6849  -0.6733  -0.5657  -0.5596  -0.4935
 -0.4581  -0.4342  -0.4156  -0.4118  -0.3918  -0.3810  -0.3782  -0.3623
 -0.3616  -0.3254  -0.3195  -0.3154  -0.3108  -0.3069  -0.2969  -0.2892
 -0.2488  -0.2282  -0.2245  -0.2218  -0.1473

          Ground-State Mulliken Net Atomic Charges

     Atom                 Charge (a.u.)
  ----------------------------------------
      1 Cl                    0.226927
      2 C                     0.559005
      3 C                     0.560433
      4 Cl                    0.226600
      5 C                    -1.989090
      6 O                    -0.584651
      7 C                     0.560288
      8 C                     0.559042
      9 Cl                    0.226657
     10 C                    -1.988007
     11 O                    -0.584311
     12 Cl                    0.227106
  ----------------------------------------
  Sum of atomic charges =    -2.000000

                    Cartesian Multipole Moments
 -----------------------------------------------------------------
    Charge (ESU x 10^10)
                -9.6064
    Dipole Moment (Debye)
         X       0.0011      Y       0.0050      Z       0.0003
       Tot       0.0052
    Quadrupole Moments (Debye-Ang)
        XX    -127.1612     XY       0.0126     YY    -166.5328
        XZ       0.0007     YZ       0.0029     ZZ    -102.4763

 Total job time:  37.73s(wall), 129.45s(cpu)
        *  Thank you very much for using Q-Chem.  Have a nice day.  *
