 Q-Chem 5.4, Q-Chem, Inc., Pleasanton, CA (2021)
 Q-Chem 5.4.0 for Intel X86 EM64T Linux

User input:
--------------------------------------------------------------
$molecule
-1 2
O                 -1.2702140000      2.5196350000      0.3353790000
C                 -1.2449400000      1.2687290000      0.2174870000
C                 -2.4376550000      0.4671370000      0.1936810000
C                 -2.3862980000     -0.8993370000      0.0637190000
O                 -3.5094920000     -1.6694900000      0.0399670000
C                 -1.1571540000     -1.6500920000     -0.0592350000
O                 -1.2329660000     -2.9176710000     -0.1743820000
C                  0.0732000000     -0.8840250000     -0.0403750000
C                  1.3231510000     -1.5314390000     -0.1545000000
C                  2.5012630000     -0.8081330000     -0.1373820000
C                  2.4672920000      0.5945130000     -0.0048090000
C                  1.2494750000      1.2462480000      0.1083520000
C                  0.0381460000      0.5350280000      0.0938260000
H                 -3.3918670000      0.9749820000      0.2820790000
H                  1.3250400000     -2.6109750000     -0.2554770000
H                  3.4547740000     -1.3210590000     -0.2262010000
H                  3.3933830000      1.1615760000      0.0084900000
H                  1.1913470000      2.3241020000      0.2115760000
H                 -3.1370090000     -2.5726020000     -0.0603660000
$end
$rem
MAX_SCF_CYCLES=200
BASIS  =  6-311++G(d,p)
GUI  =  2
JOB_TYPE  =  SP
METHOD  =  B3LYP
SOLVENT_METHOD = COSMO
$end
$solvent
dielectric 37.219
opticaldielectric 1.43
$end

--------------------------------------------------------------

             Standard Nuclear Orientation (Angstroms)
    I     Atom           X                Y                Z
 ----------------------------------------------------------------
    1      O       0.1429674399    -2.9580643862     0.0000579902
    2      C      -0.2289421678    -1.7576534774    -0.0000573653
    3      C      -1.6141142204    -1.3742686653    -0.0000143454
    4      C      -1.9978529746    -0.0553587278     0.0000183628
    5      O      -3.3071242560     0.3202384915    -0.0000356568
    6      C      -1.0694054340     1.0525812030     0.0000722789
    7      O      -1.5424879853     2.2366233074    -0.0000104777
    8      C       0.3402306065     0.7150733573     0.0000400596
    9      C       1.3211215234     1.7311441788     0.0000321749
   10      C       2.6676643638     1.4177197748    -0.0000139076
   11      C       3.0793445191     0.0698826630    -0.0000224949
   12      C       2.1303053616    -0.9400514167    -0.0000250958
   13      C       0.7560752941    -0.6487533549    -0.0000162358
   14      H      -2.3586188115    -2.1629093980    -0.0000112462
   15      H       0.9812634975     2.7607530465     0.0000225677
   16      H       3.4098956516     2.2109775122    -0.0000407390
   17      H       4.1373568166    -0.1750496286    -0.0000431724
   18      H       2.4162792416    -1.9860065991    -0.0000073042
   19      H      -3.2395792145     1.2999625570    -0.0000955392
 ----------------------------------------------------------------

   10    -610.5947050327      6.65e-06  Convergence criterion met
 Total energy in the final basis set =     -610.5947050327
    5    -610.6786670210      5.19e-06  Convergence criterion met
 Total energy in the final basis set =     -610.6786670210

                    Orbital Energies (a.u.)
 --------------------------------------------------------------

 Alpha MOs
 -- Occupied --
-19.1498 -19.0923 -19.0814 -10.2318 -10.2303 -10.2268 -10.1790 -10.1765
-10.1740 -10.1730 -10.1726 -10.1715 -10.1590  -1.0697  -1.0072  -1.0024
 -0.8613  -0.8044  -0.7537  -0.7403  -0.6793  -0.6265  -0.6112  -0.5726
 -0.5399  -0.5122  -0.4901  -0.4599  -0.4582  -0.4386  -0.4300  -0.4228
 -0.4129  -0.4012  -0.3936  -0.3815  -0.3741  -0.3520  -0.3478  -0.3399
 -0.2728  -0.2658  -0.2606  -0.2478  -0.2397  -0.1579

 Beta MOs
 -- Occupied --
-19.1492 -19.0859 -19.0763 -10.2306 -10.2290 -10.2238 -10.1790 -10.1755
-10.1740 -10.1722 -10.1720 -10.1716 -10.1583  -1.0673  -0.9983  -0.9915
 -0.8590  -0.7999  -0.7514  -0.7385  -0.6695  -0.6247  -0.6080  -0.5704
 -0.5381  -0.5098  -0.4863  -0.4588  -0.4570  -0.4281  -0.4241  -0.4191
 -0.4099  -0.3990  -0.3819  -0.3794  -0.3572  -0.3504  -0.3386  -0.3319
 -0.2601  -0.2539  -0.2523  -0.2429  -0.2314

          Ground-State Mulliken Net Atomic Charges

     Atom                 Charge (a.u.)    Spin (a.u.)
  --------------------------------------------------------
      1 O                    -0.524536       0.180374
      2 C                    -0.365435       0.067499
      3 C                     0.331648       0.057207
      4 C                    -0.212491       0.092764
      5 O                    -0.312023       0.019331
      6 C                    -0.609461       0.177423
      7 O                    -0.542953       0.234062
      8 C                     0.245336      -0.021253
      9 C                     0.159734       0.083271
     10 C                    -0.404244      -0.009043
     11 C                    -0.415456       0.074154
     12 C                     0.203576      -0.005006
     13 C                     0.158459       0.068423
     14 H                     0.211676      -0.006408
     15 H                     0.180583      -0.004439
     16 H                     0.208281      -0.000260
     17 H                     0.205772      -0.005021
     18 H                     0.174591      -0.000021
     19 H                     0.306943      -0.003054
  --------------------------------------------------------
  Sum of atomic charges =    -1.000000

                    Cartesian Multipole Moments
 -----------------------------------------------------------------
    Charge (ESU x 10^10)
                -4.8032
    Dipole Moment (Debye)
         X       4.6418      Y       3.3916      Z       0.0009
       Tot       5.7488
    Quadrupole Moments (Debye-Ang)
        XX     -84.5203     XY       6.9032     YY    -109.1408
        XZ      -0.0002     YZ       0.0008     ZZ     -80.4739

 Total job time:  36.53s(wall), 259.46s(cpu)
        *  Thank you very much for using Q-Chem.  Have a nice day.  *
