 Gaussian 16, Revision A.03,
 Gaussian 16:  ES64L-G16RevA.03 25-Dec-2016

 --------------------------------------
 #P UB3LYP/6-311++G(d,p) nosym opt freq
 --------------------------------------

 -------
 Radical
 -------
 Symbolic Z-matrix:
 Charge = -1 Multiplicity = 2

 SCF Done:  E(UB3LYP) =  -610.594569446     A.U. after   23 cycles
 SCF Done:  E(UB3LYP) =  -610.594568473     A.U. after   12 cycles
 SCF Done:  E(UB3LYP) =  -610.594570186     A.U. after   10 cycles
 Optimization completed.
    -- Stationary point found.
 Normal termination of Gaussian 16 at Mon Jan  8 01:31:09 2024.

 ----------------------------------------------------------------------
 #P Geom=AllCheck Guess=TCheck SCRF=Check GenChk UB3LYP/6-311++G(d,p) F
 req
 ----------------------------------------------------------------------

 Structure from the checkpoint file:  "279-rad.chk"
 -------
 Radical
 -------
 Charge = -1 Multiplicity = 2

                          Input orientation:
 ---------------------------------------------------------------------
 Center     Atomic      Atomic             Coordinates (Angstroms)
 Number     Number       Type             X           Y           Z
 ---------------------------------------------------------------------
      1          8           0       -1.270214    2.519635    0.335379
      2          6           0       -1.244940    1.268729    0.217487
      3          6           0       -2.437655    0.467137    0.193681
      4          6           0       -2.386298   -0.899337    0.063719
      5          8           0       -3.509492   -1.669490    0.039967
      6          6           0       -1.157154   -1.650092   -0.059235
      7          8           0       -1.232966   -2.917671   -0.174382
      8          6           0        0.073200   -0.884025   -0.040375
      9          6           0        1.323151   -1.531439   -0.154500
     10          6           0        2.501263   -0.808133   -0.137382
     11          6           0        2.467292    0.594513   -0.004809
     12          6           0        1.249475    1.246248    0.108352
     13          6           0        0.038146    0.535028    0.093826
     14          1           0       -3.391867    0.974982    0.282079
     15          1           0        1.325040   -2.610975   -0.255477
     16          1           0        3.454774   -1.321059   -0.226201
     17          1           0        3.393383    1.161576    0.008490
     18          1           0        1.191347    2.324102    0.211576
     19          1           0       -3.137009   -2.572602   -0.060366
 ---------------------------------------------------------------------

 SCF Done:  E(UB3LYP) =  -610.594570186     A.U. after    2 cycles

 Alpha  occ. eigenvalues --  -19.01609 -18.95352 -18.93852 -10.09525 -10.09226
 Alpha  occ. eigenvalues --  -10.08924 -10.05630 -10.05433 -10.04992 -10.04927
 Alpha  occ. eigenvalues --  -10.04806 -10.04636 -10.02558  -0.93525  -0.86394
 Alpha  occ. eigenvalues --   -0.86261  -0.73464  -0.67353  -0.62812  -0.61267
 Alpha  occ. eigenvalues --   -0.54601  -0.49949  -0.48310  -0.44402  -0.41101
 Alpha  occ. eigenvalues --   -0.38521  -0.35569  -0.33477  -0.33171  -0.30449
 Alpha  occ. eigenvalues --   -0.30195  -0.29056  -0.27442  -0.26668  -0.25702
 Alpha  occ. eigenvalues --   -0.25277  -0.23744  -0.22503  -0.21474  -0.21265
 Alpha  occ. eigenvalues --   -0.14015  -0.13343  -0.12632  -0.10690  -0.10346
 Alpha  occ. eigenvalues --   -0.02045
 Alpha virt. eigenvalues --    0.08401   0.09119   0.10341   0.10972   0.11276
 Alpha virt. eigenvalues --    0.12308   0.12510   0.14245   0.15769   0.16561
 Alpha virt. eigenvalues --    0.17630   0.17926   0.18285   0.18740   0.19184

  Beta  occ. eigenvalues --  -19.01567 -18.94665 -18.93286 -10.09421 -10.09154
  Beta  occ. eigenvalues --  -10.08653 -10.05634 -10.05328 -10.04950 -10.04898
  Beta  occ. eigenvalues --  -10.04854 -10.04500 -10.02474  -0.93329  -0.85380
  Beta  occ. eigenvalues --   -0.85146  -0.73243  -0.66885  -0.62615  -0.61071
  Beta  occ. eigenvalues --   -0.53656  -0.49792  -0.47995  -0.44189  -0.40945
  Beta  occ. eigenvalues --   -0.38290  -0.35199  -0.33373  -0.33062  -0.30389
  Beta  occ. eigenvalues --   -0.28877  -0.28768  -0.27030  -0.26306  -0.25059
  Beta  occ. eigenvalues --   -0.24988  -0.22352  -0.21787  -0.21061  -0.19808
  Beta  occ. eigenvalues --   -0.12715  -0.12012  -0.11904  -0.09803  -0.09532
  Beta virt. eigenvalues --    0.04595   0.08394   0.09741   0.10336   0.10987
  Beta virt. eigenvalues --    0.12317   0.12408   0.12511   0.14236   0.15834
  Beta virt. eigenvalues --    0.16594   0.17653   0.18277   0.18815   0.19217

 Mulliken charges and spin densities:
               1          2
     1  O   -0.399647   0.205272
     2  C   -0.562129   0.024538
     3  C    0.480773   0.077308
     4  C   -0.227312   0.073750
     5  O   -0.272642   0.014574
     6  C   -0.851058   0.146669
     7  O   -0.451733   0.252855
     8  C    0.326656  -0.000760
     9  C    0.146521   0.074355
    10  C   -0.310899  -0.006076
    11  C   -0.312015   0.083896
    12  C    0.190425  -0.020798
    13  C    0.267636   0.095893
    14  H    0.161721  -0.007279
    15  H    0.153118  -0.004191
    16  H    0.124731  -0.000394
    17  H    0.123536  -0.006109
    18  H    0.151641   0.000275
    19  H    0.260676  -0.003777
 Sum of Mulliken charges =  -1.00000   1.00000

 Dipole moment (field-independent basis, Debye):
    X=              5.6389    Y=              0.3590    Z=             -0.4264  Tot=              5.6664
 Quadrupole moment (field-independent basis, Debye-Ang):
   XX=            -95.6545   YY=           -107.6392   ZZ=            -80.9850
   XY=             -0.6050   XZ=              0.8410   YZ=             -2.4756

  Exact polarizability: 196.227   7.156 179.729  -4.625   9.680  73.934
 Approx polarizability: 300.504  12.841 332.962  -6.897  20.129 113.900

                      1                      2                      3
                      A                      A                      A
 Frequencies --     91.9109               138.0640               171.9142
 Red. masses --      8.5608                 4.4779                 8.0386
 Frc consts  --      0.0426                 0.0503                 0.1400
 IR Inten    --      4.3737                 0.2500                 1.6777

                      4                      5                      6
                      A                      A                      A
 Frequencies --    240.4063               258.0644               328.0225
 Red. masses --      5.5856                 5.9195                 5.8993
 Frc consts  --      0.1902                 0.2323                 0.3740
 IR Inten    --      0.0550                 1.8621                10.8399

                      7                      8                      9
                      A                      A                      A
 Frequencies --    367.7060               385.5941               418.4648
 Red. masses --     11.0110                 4.9818                 9.6646
 Frc consts  --      0.8772                 0.4364                 0.9971
 IR Inten    --     10.9813                 0.2027                 2.2516

                     10                     11                     12
                      A                      A                      A
 Frequencies --    442.1366               471.9431               499.3131
 Red. masses --      4.0394                 9.1672                 3.7088
 Frc consts  --      0.4652                 1.2030                 0.5448
 IR Inten    --      1.7995                 5.0208                 0.3897

                     13                     14                     15
                      A                      A                      A
 Frequencies --    533.1744               652.2726               658.0419
 Red. masses --      8.8853                 6.4015                 3.7392
 Frc consts  --      1.4882                 1.6047                 0.9540
 IR Inten    --      0.3883                11.0246                 0.1213

                     16                     17                     18
                      A                      A                      A
 Frequencies --    682.4258               690.0551               719.8228
 Red. masses --      5.4856                 3.3807                 1.1845
 Frc consts  --      1.5052                 0.9485                 0.3616
 IR Inten    --      2.2783                 0.0010               136.5501

                     19                     20                     21
                      A                      A                      A
 Frequencies --    727.4085               744.7441               768.8554
 Red. masses --      6.5861                 3.4206                 1.6633
 Frc consts  --      2.0532                 1.1178                 0.5793
 IR Inten    --     15.8520                 0.0045                34.8101

                     22                     23                     24
                      A                      A                      A
 Frequencies --    829.2798               831.2738               859.9091
 Red. masses --      4.4243                 1.5296                 1.3632
 Frc consts  --      1.7927                 0.6228                 0.5939
 IR Inten    --     16.5370                26.3506                 0.1898

                     25                     26                     27
                      A                      A                      A
 Frequencies --    967.0601               975.8369              1004.1510
 Red. masses --      1.3086                 1.2890                 6.5991
 Frc consts  --      0.7211                 0.7232                 3.9204
 IR Inten    --      1.2859                 1.3998                57.0840

                     28                     29                     30
                      A                      A                      A
 Frequencies --   1040.7305              1092.5592              1132.6356
 Red. masses --      2.0464                 2.9459                 1.7452
 Frc consts  --      1.3059                 2.0718                 1.3191
 IR Inten    --      4.0864                 2.3482                18.4175

                     31                     32                     33
                      A                      A                      A
 Frequencies --   1156.0578              1204.9887              1221.0524
 Red. masses --      1.2736                 3.3047                 1.5311
 Frc consts  --      1.0029                 2.8271                 1.3450
 IR Inten    --      0.2020                82.8785               114.9647

                     34                     35                     36
                      A                      A                      A
 Frequencies --   1245.2560              1262.8134              1331.4048
 Red. masses --      4.3835                 1.8625                 2.1563
 Frc consts  --      4.0049                 1.7500                 2.2521
 IR Inten    --     37.2630                 1.4269                36.4883

                     37                     38                     39
                      A                      A                      A
 Frequencies --   1349.3371              1450.2804              1466.0359
 Red. masses --      8.7158                 2.3187                 2.5756
 Frc consts  --      9.3497                 2.8734                 3.2615
 IR Inten    --     25.3317               318.8384                 3.5473

                     40                     41                     42
                      A                      A                      A
 Frequencies --   1478.1456              1525.2928              1551.6938
 Red. masses --      4.0078                 5.6347                 5.8765
 Frc consts  --      5.1593                 7.7238                 8.3364
 IR Inten    --    199.2810               336.6072               259.1123

                     43                     44                     45
                      A                      A                      A
 Frequencies --   1573.0448              1621.2319              1642.1197
 Red. masses --      4.8088                 5.7767                 6.3961
 Frc consts  --      7.0109                 8.9458                10.1619
 IR Inten    --     17.9805                15.3768                46.3849

                     46                     47                     48
                      A                      A                      A
 Frequencies --   3132.1547              3151.6066              3171.6532
 Red. masses --      1.0845                 1.0908                 1.0899
 Frc consts  --      6.2687                 6.3836                 6.4595
 IR Inten    --     16.2556                46.0781                19.6405

                     49                     50                     51
                      A                      A                      A
 Frequencies --   3178.1572              3180.8584              3498.6527
 Red. masses --      1.0913                 1.0931                 1.0635
 Frc consts  --      6.4947                 6.5162                 7.6697
 IR Inten    --     14.2856                22.8700                81.8063

 - Thermochemistry -
 -------------------
 Temperature   298.150 Kelvin.  Pressure   1.00000 Atm.
 Atom     1 has atomic number  8 and mass  15.99491

 Molecular mass:   174.03169 amu.
 Principal axes and moments of inertia in atomic units:
                           1         2         3
     Eigenvalues --  1426.610102291.371343717.98143
           X            0.94065  -0.33669   0.04267
           Y            0.33927   0.93608  -0.09298
           Z           -0.00864   0.10194   0.99475
 This molecule is an asymmetric top.
 Rotational symmetry number  1.
 Warning -- assumption of classical behavior for rotation
           may cause significant error
 Rotational temperatures (Kelvin)      0.06071     0.03780     0.02330
 Rotational constants (GHZ):           1.26506     0.78762     0.48541
 Zero-point vibrational energy     353589.9 (Joules/Mol)
                                   84.51001 (Kcal/Mol)
 Warning -- explicit consideration of  13 degrees of freedom as
           vibrations may cause significant error
 Vibrational temperatures:    132.24   198.64   247.35   345.89   371.30
          (Kelvin)            471.95   529.05   554.78   602.08   636.14
                              679.02   718.40   767.12   938.47   946.78
                              981.86   992.84  1035.66  1046.58  1071.52
                             1106.21  1193.15  1196.02  1237.22  1391.38
                             1404.01  1444.75  1497.38  1571.95  1629.61
                             1663.31  1733.71  1756.82  1791.65  1816.91
                             1915.59  1941.40  2086.63  2109.30  2126.72
                             2194.56  2232.54  2263.26  2332.59  2362.64
                             4506.47  4534.46  4563.30  4572.66  4576.55
                             5033.78

 Zero-point correction=                           0.134675 (Hartree/Particle)
 Thermal correction to Energy=                    0.144214
 Thermal correction to Enthalpy=                  0.145158
 Thermal correction to Gibbs Free Energy=         0.099163
 Sum of electronic and zero-point Energies=           -610.459895
 Sum of electronic and thermal Energies=              -610.450356
 Sum of electronic and thermal Enthalpies=            -610.449412
 Sum of electronic and thermal Free Energies=         -610.495407

                     E (Thermal)             CV                S
                      KCal/Mol        Cal/Mol-Kelvin    Cal/Mol-Kelvin
 Total                   90.496             38.607             96.805
 Electronic               0.000              0.000              1.377
 Translational            0.889              2.981             41.370
 Rotational               0.889              2.981             30.875
 Vibrational             88.718             32.645             23.183
 Vibration     1          0.602              1.955              3.619
 Vibration     2          0.614              1.915              2.831
 Vibration     3          0.626              1.877              2.414
 Vibration     4          0.657              1.779              1.800
 Vibration     5          0.667              1.749              1.675
 Vibration     6          0.711              1.619              1.270
 Vibration     7          0.740              1.539              1.089
 Vibration     8          0.754              1.501              1.017
 Vibration     9          0.781              1.430              0.897
 Vibration    10          0.802              1.378              0.820
 Vibration    11          0.829              1.312              0.732
 Vibration    12          0.855              1.252              0.660
 Vibration    13          0.888              1.177              0.580

 Optimization completed.
    -- Stationary point found.
 Normal termination of Gaussian 16 at Mon Jan  8 01:53:49 2024.
