 Gaussian 16, Revision A.03,
 Gaussian 16:  ES64L-G16RevA.03 25-Dec-2016

 --------------------------------------
 #P UB3LYP/6-311++G(d,p) nosym opt freq
 --------------------------------------

 --------
 Oxidized
 --------
 Symbolic Z-matrix:
 Charge =  0 Multiplicity = 1

 SCF Done:  E(UB3LYP) =  -689.153637858     A.U. after   16 cycles
 SCF Done:  E(UB3LYP) =  -689.166051788     A.U. after   14 cycles
 SCF Done:  E(UB3LYP) =  -689.167319048     A.U. after   14 cycles
 SCF Done:  E(UB3LYP) =  -689.167904704     A.U. after   12 cycles
 SCF Done:  E(UB3LYP) =  -689.167926086     A.U. after   11 cycles
 SCF Done:  E(UB3LYP) =  -689.167928209     A.U. after   11 cycles
 SCF Done:  E(UB3LYP) =  -689.167928007     A.U. after    9 cycles
 SCF Done:  E(UB3LYP) =  -689.167927784     A.U. after   10 cycles
 SCF Done:  E(UB3LYP) =  -689.167928383     A.U. after    9 cycles
 SCF Done:  E(UB3LYP) =  -689.167928453     A.U. after    9 cycles
 SCF Done:  E(UB3LYP) =  -689.173158537     A.U. after   14 cycles
 SCF Done:  E(UB3LYP) =  -689.173233486     A.U. after   13 cycles
 SCF Done:  E(UB3LYP) =  -689.173264068     A.U. after   12 cycles
 SCF Done:  E(UB3LYP) =  -689.173292548     A.U. after   11 cycles
 SCF Done:  E(UB3LYP) =  -689.173318878     A.U. after   12 cycles
 SCF Done:  E(UB3LYP) =  -689.173327374     A.U. after   12 cycles
 SCF Done:  E(UB3LYP) =  -689.173328953     A.U. after   11 cycles
 SCF Done:  E(UB3LYP) =  -689.173329120     A.U. after    9 cycles
 SCF Done:  E(UB3LYP) =  -689.173329129     A.U. after    8 cycles
 Optimization completed.
    -- Stationary point found.
 Normal termination of Gaussian 16 at Tue Dec 26 21:49:09 2023.

 ----------------------------------------------------------------------
 #P Geom=AllCheck Guess=TCheck SCRF=Check GenChk UB3LYP/6-311++G(d,p) F
 req
 ----------------------------------------------------------------------

 Structure from the checkpoint file:  "282.chk"
 --------
 Oxidized
 --------
 Charge =  0 Multiplicity = 1

                          Input orientation:
 ---------------------------------------------------------------------
 Center     Atomic      Atomic             Coordinates (Angstroms)
 Number     Number       Type             X           Y           Z
 ---------------------------------------------------------------------
      1          6           0       -1.843288    3.150044    0.257401
      2          6           0       -2.976655    2.434454   -0.116030
      3          6           0       -2.863390    1.094769   -0.492229
      4          6           0       -0.595393    2.522115    0.252929
      5          6           0       -0.478291    1.174323   -0.124621
      6          6           0       -1.619581    0.466024   -0.496380
      7          6           0        0.614884    3.266398    0.645328
      8          6           0        1.923165    2.550113    0.618398
      9          6           0        2.059542    1.247542    0.268389
     10          6           0        0.857754    0.485776   -0.131009
     11          8           0        0.615573    4.441875    0.993121
     12          8           0        0.939667   -0.689467   -0.459822
     13          1           0       -1.905859    4.190033    0.553517
     14          1           0       -3.946689    2.917903   -0.114455
     15          1           0       -3.747625    0.538978   -0.782982
     16          1           0       -1.514113   -0.572440   -0.784763
     17          6           0        3.393931    0.553953    0.240485
     18          8           0        2.967807    3.311509    0.981714
     19          6           0        4.059539    0.604337   -1.148570
     20          1           0        3.245137   -0.489328    0.527072
     21          1           0        4.051666    1.019294    0.977805
     22          1           0        2.600281    4.190021    1.196302
     23          1           0        3.432469    0.117983   -1.898901
     24          1           0        5.021782    0.086108   -1.125575
     25          1           0        4.238525    1.635932   -1.461684
 ---------------------------------------------------------------------

 SCF Done:  E(UB3LYP) =  -689.173329129     A.U. after    1 cycles

 Alpha  occ. eigenvalues --  -19.17957 -19.15073 -19.12647 -10.29463 -10.27859
 Alpha  occ. eigenvalues --  -10.26831 -10.21622 -10.21439 -10.20839 -10.20826
 Alpha  occ. eigenvalues --  -10.20694 -10.20531 -10.20351 -10.17916 -10.16398
 Alpha  occ. eigenvalues --   -1.11021  -1.06838  -1.05936  -0.89838  -0.84608
 Alpha  occ. eigenvalues --   -0.79778  -0.78614  -0.75215  -0.69966  -0.66591
 Alpha  occ. eigenvalues --   -0.65099  -0.61339  -0.60562  -0.57803  -0.54461
 Alpha  occ. eigenvalues --   -0.52237  -0.50138  -0.48585  -0.47505  -0.46783
 Alpha  occ. eigenvalues --   -0.45958  -0.45363  -0.44293  -0.42759  -0.42390
 Alpha  occ. eigenvalues --   -0.41413  -0.40981  -0.39219  -0.38229  -0.38022
 Alpha  occ. eigenvalues --   -0.37655  -0.36137  -0.34941  -0.30384  -0.29464
 Alpha  occ. eigenvalues --   -0.28568  -0.27629  -0.26016
 Alpha virt. eigenvalues --   -0.12706  -0.06112  -0.03166  -0.01336  -0.00493
 Alpha virt. eigenvalues --    0.00746   0.01368   0.01984   0.02083   0.02289
 Alpha virt. eigenvalues --    0.03650   0.04284   0.04686   0.04790   0.05380

  Beta  occ. eigenvalues --  -19.17957 -19.15073 -19.12647 -10.29463 -10.27859
  Beta  occ. eigenvalues --  -10.26831 -10.21622 -10.21439 -10.20839 -10.20826
  Beta  occ. eigenvalues --  -10.20694 -10.20531 -10.20351 -10.17916 -10.16398
  Beta  occ. eigenvalues --   -1.11021  -1.06838  -1.05936  -0.89838  -0.84608
  Beta  occ. eigenvalues --   -0.79778  -0.78614  -0.75215  -0.69966  -0.66591
  Beta  occ. eigenvalues --   -0.65099  -0.61339  -0.60562  -0.57803  -0.54461
  Beta  occ. eigenvalues --   -0.52237  -0.50138  -0.48585  -0.47505  -0.46783
  Beta  occ. eigenvalues --   -0.45958  -0.45363  -0.44293  -0.42759  -0.42390
  Beta  occ. eigenvalues --   -0.41413  -0.40981  -0.39219  -0.38229  -0.38022
  Beta  occ. eigenvalues --   -0.37655  -0.36137  -0.34941  -0.30384  -0.29464
  Beta  occ. eigenvalues --   -0.28568  -0.27629  -0.26016
  Beta virt. eigenvalues --   -0.12706  -0.06112  -0.03166  -0.01336  -0.00493
  Beta virt. eigenvalues --    0.00746   0.01368   0.01984   0.02083   0.02289
  Beta virt. eigenvalues --    0.03650   0.04284   0.04686   0.04790   0.05380

 Mulliken charges and spin densities:
               1          2
     1  C   -0.023914  -0.000000
     2  C   -0.241144   0.000000
     3  C   -0.371992  -0.000000
     4  C    1.031387   0.000000
     5  C   -0.031498  -0.000000
     6  C    0.155151  -0.000000
     7  C   -1.045949  -0.000000
     8  C   -0.583076  -0.000000
     9  C    1.557913   0.000000
    10  C   -0.983799  -0.000000
    11  O   -0.272953   0.000000
    12  O   -0.215081  -0.000000
    13  H    0.179308  -0.000000
    14  H    0.183133   0.000000
    15  H    0.176906   0.000000
    16  H    0.191900   0.000000
    17  C   -0.043674   0.000000
    18  O   -0.196800   0.000000
    19  C   -0.612895   0.000000
    20  H    0.195031   0.000000
    21  H    0.197149   0.000000
    22  H    0.288836  -0.000000
    23  H    0.170410  -0.000000
    24  H    0.139271  -0.000000
    25  H    0.156380  -0.000000
 Sum of Mulliken charges =  -0.00000  -0.00000

 Dipole moment (field-independent basis, Debye):
    X=             -2.1178    Y=              0.7725    Z=             -0.1603  Tot=              2.2600
 Quadrupole moment (field-independent basis, Debye-Ang):
   XX=            -77.2693   YY=            -92.5437   ZZ=            -89.0122
   XY=             -2.7634   XZ=              1.5379   YZ=             -1.8337

  Exact polarizability: 195.827  -7.268 171.425   8.417  27.869  93.596
 Approx polarizability: 273.488  -3.363 345.683  18.231  64.361 150.583

                      1                      2                      3
                      A                      A                      A
 Frequencies --     46.2165                58.5552                90.5312
 Red. masses --      2.8433                 4.9946                 6.1687
 Frc consts  --      0.0036                 0.0101                 0.0298
 IR Inten    --      0.6940                 3.4396                 0.5109

                      4                      5                      6
                      A                      A                      A
 Frequencies --    124.1660               153.2754               200.9765
 Red. masses --      5.2707                 5.8814                 2.3045
 Frc consts  --      0.0479                 0.0814                 0.0548
 IR Inten    --      0.0109                 0.7414                 0.1570

                      7                      8                      9
                      A                      A                      A
 Frequencies --    205.7104               257.1338               313.4861
 Red. masses --      1.6245                 3.7623                 2.2541
 Frc consts  --      0.0405                 0.1466                 0.1305
 IR Inten    --      0.1872                 0.3490                 2.7559

                     10                     11                     12
                      A                      A                      A
 Frequencies --    328.7848               364.7978               387.7154
 Red. masses --      5.3558                 5.2846                 9.1175
 Frc consts  --      0.3411                 0.4143                 0.8075
 IR Inten    --      2.4007                 5.7015                16.3638

                     13                     14                     15
                      A                      A                      A
 Frequencies --    416.7530               421.4895               442.4661
 Red. masses --      6.4337                 6.8233                 4.5700
 Frc consts  --      0.6584                 0.7142                 0.5271
 IR Inten    --     16.6504                 4.0695                 3.0789

                     16                     17                     18
                      A                      A                      A
 Frequencies --    460.6821               511.1020               585.9007
 Red. masses --      4.7612                 8.9229                 6.0129
 Frc consts  --      0.5953                 1.3733                 1.2161
 IR Inten    --      3.5447                 0.6704                 6.5683

                     19                     20                     21
                      A                      A                      A
 Frequencies --    633.1612               646.4586               673.2562
 Red. masses --      5.4331                 1.1427                 6.3852
 Frc consts  --      1.2833                 0.2814                 1.7052
 IR Inten    --      1.6663                72.0806                 4.4363

                     22                     23                     24
                      A                      A                      A
 Frequencies --    707.4397               710.9559               735.3849
 Red. masses --      3.8978                 4.2853                 2.5023
 Frc consts  --      1.1493                 1.2762                 0.7973
 IR Inten    --      4.3527                 4.3593                77.0660

                     25                     26                     27
                      A                      A                      A
 Frequencies --    757.0360               779.1625               805.9499
 Red. masses --      6.1756                 1.5447                 1.8728
 Frc consts  --      2.0853                 0.5525                 0.7168
 IR Inten    --      3.3147                 1.4365                12.8074

                     28                     29                     30
                      A                      A                      A
 Frequencies --    878.7696               898.3191               912.4348
 Red. masses --      3.0157                 3.2283                 1.3192
 Frc consts  --      1.3721                 1.5349                 0.6471
 IR Inten    --     25.2265                12.8868                 0.0240

                     31                     32                     33
                      A                      A                      A
 Frequencies --    990.9701               997.4998              1016.6173
 Red. masses --      3.9232                 1.3763                 1.3268
 Frc consts  --      2.2699                 0.8069                 0.8079
 IR Inten    --     35.5529                 1.4765                 0.1596

                     34                     35                     36
                      A                      A                      A
 Frequencies --   1027.6244              1053.1956              1076.9708
 Red. masses --      3.4984                 2.1150                 1.8086
 Frc consts  --      2.1767                 1.3822                 1.2360
 IR Inten    --     16.3040                 0.7403                13.3051

                     37                     38                     39
                      A                      A                      A
 Frequencies --   1109.9515              1122.0227              1181.9320
 Red. masses --      2.1075                 1.8857                 1.1992
 Frc consts  --      1.5297                 1.3987                 0.9870
 IR Inten    --     13.3203                38.9449                21.3384

                     40                     41                     42
                      A                      A                      A
 Frequencies --   1195.3677              1229.2665              1283.8761
 Red. masses --      2.2644                 2.5721                 1.5981
 Frc consts  --      1.9064                 2.2900                 1.5520
 IR Inten    --     28.3569                48.1537                84.9324

                     43                     44                     45
                      A                      A                      A
 Frequencies --   1295.2751              1308.3489              1335.7862
 Red. masses --      2.0501                 1.9463                 3.0494
 Frc consts  --      2.0265                 1.9630                 3.2059
 IR Inten    --    192.6657                62.5291                91.2541

                     46                     47                     48
                      A                      A                      A
 Frequencies --   1355.8144              1366.7680              1396.9576
 Red. masses --      1.4434                 6.5706                 1.5825
 Frc consts  --      1.5633                 7.2317                 1.8196
 IR Inten    --      0.2410                60.5884               220.6136

                     49                     50                     51
                      A                      A                      A
 Frequencies --   1410.6309              1481.4812              1486.4255
 Red. masses --      1.5020                 1.2579                 1.8854
 Frc consts  --      1.7610                 1.6266                 2.4543
 IR Inten    --    148.2732                 4.4558                12.2411

                     52                     53                     54
                      A                      A                      A
 Frequencies --   1499.5918              1505.5004              1507.0243
 Red. masses --      1.0453                 1.2302                 1.9940
 Frc consts  --      1.3849                 1.6428                 2.6682
 IR Inten    --      5.6544                 4.4651                 6.8874

                     55                     56                     57
                      A                      A                      A
 Frequencies --   1613.5577              1627.9322              1691.4160
 Red. masses --      6.6541                 5.9355                 7.9351
 Frc consts  --     10.2072                 9.2679                13.3752
 IR Inten    --      2.1093                79.7565                46.4967

                     58                     59                     60
                      A                      A                      A
 Frequencies --   1702.5228              1705.3361              3030.4094
 Red. masses --     11.2383                11.2874                 1.0341
 Frc consts  --     19.1928                19.3404                 5.5952
 IR Inten    --     62.3092               403.0741                36.8737

                     61                     62                     63
                      A                      A                      A
 Frequencies --   3053.6328              3088.3218              3096.5358
 Red. masses --      1.0593                 1.1032                 1.1010
 Frc consts  --      5.8198                 6.1996                 6.2202
 IR Inten    --     13.5469                 4.6636                34.3566

                     64                     65                     66
                      A                      A                      A
 Frequencies --   3111.4750              3171.8097              3185.8569
 Red. masses --      1.1047                 1.0871                 1.0915
 Frc consts  --      6.3012                 6.4435                 6.5271
 IR Inten    --     19.1807                 3.1567                 7.8692

                     67                     68                     69
                      A                      A                      A
 Frequencies --   3199.5767              3202.9662              3617.4573
 Red. masses --      1.0933                 1.0948                 1.0642
 Frc consts  --      6.5944                 6.6174                 8.2053
 IR Inten    --      1.4926                 8.0062               142.2519

 - Thermochemistry -
 -------------------
 Temperature   298.150 Kelvin.  Pressure   1.00000 Atm.
 Atom     1 has atomic number  6 and mass  12.00000

 Molecular mass:   202.06299 amu.
 Principal axes and moments of inertia in atomic units:
                           1         2         3
     Eigenvalues --  1807.326303518.883945144.87656
           X            0.99152   0.11463  -0.06122
           Y           -0.12864   0.93248  -0.33753
           Z            0.01840   0.34254   0.93932
 This molecule is an asymmetric top.
 Rotational symmetry number  1.
 Warning -- assumption of classical behavior for rotation
           may cause significant error
 Rotational temperatures (Kelvin)      0.04792     0.02461     0.01683
 Rotational constants (GHZ):           0.99857     0.51287     0.35078
 Zero-point vibrational energy     507466.5 (Joules/Mol)
                                  121.28741 (Kcal/Mol)
 Warning -- explicit consideration of  18 degrees of freedom as
           vibrations may cause significant error
 Vibrational temperatures:     66.50    84.25   130.25   178.65   220.53
          (Kelvin)            289.16   295.97   369.96   451.04   473.05
                              524.86   557.84   599.61   606.43   636.61
                              662.82   735.36   842.98   910.98   930.11
                              968.67  1017.85  1022.91  1058.05  1089.21
                             1121.04  1159.58  1264.35  1292.48  1312.79
                             1425.78  1435.18  1462.69  1478.52  1515.31
                             1549.52  1596.97  1614.34  1700.54  1719.87
                             1768.64  1847.21  1863.61  1882.42  1921.90
                             1950.71  1966.47  2009.91  2029.58  2131.52
                             2138.63  2157.58  2166.08  2168.27  2321.55
                             2342.23  2433.57  2449.55  2453.60  4360.08
                             4393.50  4443.41  4455.22  4476.72  4563.53
                             4583.74  4603.48  4608.35  5204.71

 Zero-point correction=                           0.193284 (Hartree/Particle)
 Thermal correction to Energy=                    0.205939
 Thermal correction to Enthalpy=                  0.206883
 Thermal correction to Gibbs Free Energy=         0.153839
 Sum of electronic and zero-point Energies=           -688.980045
 Sum of electronic and thermal Energies=              -688.967391
 Sum of electronic and thermal Enthalpies=            -688.966446
 Sum of electronic and thermal Free Energies=         -689.019490

                     E (Thermal)             CV                S
                      KCal/Mol        Cal/Mol-Kelvin    Cal/Mol-Kelvin
 Total                  129.228             48.880            111.640
 Electronic               0.000              0.000              0.000
 Translational            0.889              2.981             41.815
 Rotational               0.889              2.981             31.859
 Vibrational            127.451             42.918             37.966
 Vibration     1          0.595              1.979              4.973
 Vibration     2          0.596              1.974              4.505
 Vibration     3          0.602              1.956              3.649
 Vibration     4          0.610              1.929              3.034
 Vibration     5          0.619              1.899              2.631
 Vibration     6          0.638              1.839              2.124
 Vibration     7          0.640              1.832              2.081
 Vibration     8          0.667              1.751              1.681
 Vibration     9          0.701              1.648              1.344
 Vibration    10          0.712              1.618              1.266
 Vibration    11          0.738              1.545              1.102
 Vibration    12          0.756              1.496              1.009
 Vibration    13          0.780              1.434              0.903
 Vibration    14          0.784              1.424              0.887
 Vibration    15          0.802              1.378              0.819
 Vibration    16          0.819              1.337              0.764
 Vibration    17          0.866              1.225              0.631
 Vibration    18          0.943              1.062              0.475

 Optimization completed.
    -- Stationary point found.
 Normal termination of Gaussian 16 at Tue Dec 26 22:18:45 2023.
