 Q-Chem 5.4, Q-Chem, Inc., Pleasanton, CA (2021)
 Q-Chem 5.4.0 for Intel X86 EM64T Linux

User input:
--------------------------------------------------------------
$molecule
0 1
C                  2.1431220000      3.8561910000      5.4456060000
C                  3.0813790000      3.2315970000      4.4830000000
C                  2.6721720000      2.2998280000      3.6142060000
C                  1.2527630000      1.8661310000      3.5802720000
C                  0.3156580000      2.5054340000      4.5343540000
C                  0.7042010000      3.4390900000      5.4193600000
O                  2.5449180000      4.6933030000      6.2433580000
O                  0.8717500000      1.0165150000      2.7917400000
C                 -0.2113410000      4.1393430000      6.4147940000
C                 -1.6596670000      3.6795730000      6.3825760000
O                  0.2659640000      3.9361990000      7.7467590000
H                  4.1088730000      3.5735100000      4.5406190000
H                  3.3381970000      1.8210300000      2.9050770000
H                 -0.7103490000      2.1639110000      4.4636780000
H                 -0.1749360000      5.2124930000      6.1773880000
H                 -2.1157420000      3.8578090000      5.4060960000
H                 -2.2212490000      4.2399560000      7.1312970000
H                 -1.7378900000      2.6174780000      6.6269220000
H                  1.1239390000      4.3757990000      7.8119090000
$end
$rem
MAX_SCF_CYCLES=200
BASIS  =  6-311++G(d,p)
GUI  =  2
JOB_TYPE  =  SP
METHOD  =  B3LYP
SOLVENT_METHOD = PCM
$end
$pcm
theory = CPCM
$end
$solvent
dielectric 37.219
opticaldielectric 1.43
$end

--------------------------------------------------------------

             Standard Nuclear Orientation (Angstroms)
    I     Atom           X                Y                Z
 ----------------------------------------------------------------
    1      C       2.1431220000     3.8561910000     5.4456060000
    2      C       3.0813790000     3.2315970000     4.4830000000
    3      C       2.6721720000     2.2998280000     3.6142060000
    4      C       1.2527630000     1.8661310000     3.5802720000
    5      C       0.3156580000     2.5054340000     4.5343540000
    6      C       0.7042010000     3.4390900000     5.4193600000
    7      O       2.5449180000     4.6933030000     6.2433580000
    8      O       0.8717500000     1.0165150000     2.7917400000
    9      C      -0.2113410000     4.1393430000     6.4147940000
   10      C      -1.6596670000     3.6795730000     6.3825760000
   11      O       0.2659640000     3.9361990000     7.7467590000
   12      H       4.1088730000     3.5735100000     4.5406190000
   13      H       3.3381970000     1.8210300000     2.9050770000
   14      H      -0.7103490000     2.1639110000     4.4636780000
   15      H      -0.1749360000     5.2124930000     6.1773880000
   16      H      -2.1157420000     3.8578090000     5.4060960000
   17      H      -2.2212490000     4.2399560000     7.1312970000
   18      H      -1.7378900000     2.6174780000     6.6269220000
   19      H       1.1239390000     4.3757990000     7.8119090000
 ----------------------------------------------------------------

    9    -535.4744157923      5.41e-06  Convergence criterion met
 Total energy in the final basis set =     -535.4744157923

                    Orbital Energies (a.u.)
 --------------------------------------------------------------

 Alpha MOs
 -- Occupied --
-19.1516 -19.1474 -19.1321 -10.2949 -10.2908 -10.2421 -10.2208 -10.2142
-10.2134 -10.2108 -10.1644  -1.0829  -1.0769  -1.0355  -0.8696  -0.8108
 -0.7534  -0.7145  -0.6624  -0.6165  -0.5952  -0.5390  -0.5238  -0.5160
 -0.4916  -0.4768  -0.4558  -0.4520  -0.4407  -0.4278  -0.4210  -0.4024
 -0.3932  -0.3808  -0.3593  -0.3176  -0.3040  -0.3012  -0.2972  -0.2784

          Ground-State Mulliken Net Atomic Charges

     Atom                 Charge (a.u.)
  ----------------------------------------
      1 C                    -0.687928
      2 C                     0.192136
      3 C                     0.146892
      4 C                    -0.345673
      5 C                    -1.259978
      6 C                     1.738485
      7 O                    -0.276251
      8 O                    -0.293999
      9 C                    -0.217098
     10 C                    -0.563001
     11 O                    -0.275750
     12 H                     0.260676
     13 H                     0.263917
     14 H                     0.243538
     15 H                     0.236617
     16 H                     0.167150
     17 H                     0.183719
     18 H                     0.174994
     19 H                     0.311556
  ----------------------------------------
  Sum of atomic charges =     0.000000

                    Cartesian Multipole Moments
 -----------------------------------------------------------------
    Charge (ESU x 10^10)
                 0.0000
    Dipole Moment (Debye)
         X       0.7349      Y       1.3984      Z      -1.5204
       Tot       2.1926
    Quadrupole Moments (Debye-Ang)
        XX     -54.7654     XY      -1.4707     YY     -63.0902
        XZ      -1.1949     YZ      -5.3177     ZZ     -94.0413

 Total job time:  16.20s(wall), 119.57s(cpu)
        *  Thank you very much for using Q-Chem.  Have a nice day.  *
