 Gaussian 16, Revision A.03,
 Gaussian 16:  ES64L-G16RevA.03 25-Dec-2016

 ----------------------------------------------------------------------
 #P UB3LYP/6-311++G(d,p) nosym opt freq SCRF=(PCM,Solvent=n,n-DiMethylF
 ormamide)
 ----------------------------------------------------------------------

 -------
 Reduced
 -------
 Symbolic Z-matrix:
 Charge = -2 Multiplicity = 1

 SCF Done:  E(UB3LYP) =  -846.482920820     A.U. after   16 cycles
 SCF Done:  E(UB3LYP) =  -846.484749372     A.U. after   13 cycles
 SCF Done:  E(UB3LYP) =  -846.485009106     A.U. after   12 cycles
 SCF Done:  E(UB3LYP) =  -846.485018340     A.U. after   11 cycles
 SCF Done:  E(UB3LYP) =  -846.485024781     A.U. after   10 cycles
 SCF Done:  E(UB3LYP) =  -846.485025443     A.U. after    9 cycles
 SCF Done:  E(UB3LYP) =  -846.485025579     A.U. after    8 cycles
 Optimization completed.
    -- Stationary point found.
 Normal termination of Gaussian 16 at Sat Feb 10 18:02:39 2024.

 ----------------------------------------------------------------------
 #P Geom=AllCheck Guess=TCheck SCRF=Check GenChk UB3LYP/6-311++G(d,p) F
 req
 ----------------------------------------------------------------------

 Structure from the checkpoint file:  "126-an.chk"
 -------
 Reduced
 -------
 Charge = -2 Multiplicity = 1

                          Input orientation:
 ---------------------------------------------------------------------
 Center     Atomic      Atomic             Coordinates (Angstroms)
 Number     Number       Type             X           Y           Z
 ---------------------------------------------------------------------
      1          6           0       -3.930849    0.958798    0.931538
      2          6           0       -3.273603   -0.078986   -0.010217
      3          6           0       -3.478494   -1.474828    0.605606
      4          6           0       -4.001468   -0.047894   -1.375610
      5          6           0       -1.787560    0.266498   -0.205373
      6          6           0       -1.428464    1.537273   -0.763741
      7          6           0       -0.112763    1.886872   -0.945130
      8          6           0        0.965941    1.025271   -0.596299
      9          6           0        2.324430    1.447875   -0.801082
     10          8           0        2.626895    2.613725   -1.303577
     11          6           0        3.325756    0.494172   -0.409270
     12          6           0        4.706146    0.811358   -0.565876
     13          6           0        5.709499   -0.060726   -0.211553
     14          6           0        5.375790   -1.333608    0.333941
     15          6           0        4.054497   -1.677686    0.502283
     16          6           0        2.984401   -0.804435    0.148580
     17          6           0        1.624072   -1.222377    0.351072
     18          8           0        1.319307   -2.389288    0.852765
     19          6           0        0.624098   -0.265737   -0.037796
     20          6           0       -0.757949   -0.584661    0.132901
     21          1           0       -4.993218    0.731507    1.070107
     22          1           0       -3.450599    0.948881    1.914640
     23          1           0       -3.855969    1.973015    0.531809
     24          1           0       -3.063964   -2.262664   -0.029278
     25          1           0       -4.548271   -1.671178    0.725038
     26          1           0       -3.012850   -1.554616    1.591740
     27          1           0       -3.927989    0.933065   -1.851375
     28          1           0       -5.064396   -0.279169   -1.248437
     29          1           0       -3.573073   -0.786306   -2.059994
     30          1           0       -2.203760    2.240864   -1.049667
     31          1           0        0.139850    2.852996   -1.368580
     32          1           0        4.944446    1.783594   -0.983284
     33          1           0        6.750914    0.216141   -0.345981
     34          1           0        6.163379   -2.026361    0.615359
     35          1           0        3.786829   -2.642910    0.917946
     36          1           0       -0.961007   -1.558478    0.558284
 ---------------------------------------------------------------------

 SCF Done:  E(UB3LYP) =  -846.485025579     A.U. after    1 cycles

 Alpha  occ. eigenvalues --  -19.01601 -19.01484 -10.17802 -10.17026 -10.16900
 Alpha  occ. eigenvalues --  -10.15260 -10.14907 -10.14905 -10.14731 -10.14726
 Alpha  occ. eigenvalues --  -10.14683 -10.14489 -10.14469 -10.14454 -10.14377
 Alpha  occ. eigenvalues --  -10.13893 -10.13483 -10.13441 -10.13352 -10.13289
 Alpha  occ. eigenvalues --   -0.92730  -0.92287  -0.83408  -0.82148  -0.79657
 Alpha  occ. eigenvalues --   -0.74701  -0.72116  -0.71828  -0.70100  -0.67706
 Alpha  occ. eigenvalues --   -0.67655  -0.63569  -0.60939  -0.58885  -0.55876
 Alpha  occ. eigenvalues --   -0.54015  -0.52279  -0.50039  -0.48533  -0.45177
 Alpha  occ. eigenvalues --   -0.44122  -0.43335  -0.43056  -0.42376  -0.41363
 Alpha  occ. eigenvalues --   -0.40216  -0.39682  -0.38728  -0.38665  -0.37529
 Alpha  occ. eigenvalues --   -0.37020  -0.36397  -0.36192  -0.35837  -0.35368
 Alpha  occ. eigenvalues --   -0.33669  -0.33506  -0.32463  -0.32333  -0.31888
 Alpha  occ. eigenvalues --   -0.30712  -0.30220  -0.29260  -0.29024  -0.23231
 Alpha  occ. eigenvalues --   -0.22126  -0.21903  -0.20974  -0.19781  -0.19200
 Alpha  occ. eigenvalues --   -0.10595
 Alpha virt. eigenvalues --   -0.02466  -0.00339   0.00428   0.00477   0.01335
 Alpha virt. eigenvalues --    0.01913   0.02191   0.02255   0.02301   0.03436
 Alpha virt. eigenvalues --    0.03614   0.04125   0.04505   0.05283   0.05341

  Beta  occ. eigenvalues --  -19.01601 -19.01484 -10.17802 -10.17026 -10.16900
  Beta  occ. eigenvalues --  -10.15260 -10.14907 -10.14905 -10.14731 -10.14726
  Beta  occ. eigenvalues --  -10.14683 -10.14489 -10.14469 -10.14454 -10.14377
  Beta  occ. eigenvalues --  -10.13893 -10.13483 -10.13441 -10.13352 -10.13289
  Beta  occ. eigenvalues --   -0.92730  -0.92287  -0.83408  -0.82148  -0.79657
  Beta  occ. eigenvalues --   -0.74701  -0.72116  -0.71828  -0.70100  -0.67706
  Beta  occ. eigenvalues --   -0.67655  -0.63569  -0.60939  -0.58885  -0.55876
  Beta  occ. eigenvalues --   -0.54015  -0.52279  -0.50039  -0.48533  -0.45177
  Beta  occ. eigenvalues --   -0.44122  -0.43335  -0.43056  -0.42376  -0.41363
  Beta  occ. eigenvalues --   -0.40216  -0.39682  -0.38728  -0.38665  -0.37529
  Beta  occ. eigenvalues --   -0.37020  -0.36397  -0.36192  -0.35837  -0.35368
  Beta  occ. eigenvalues --   -0.33669  -0.33506  -0.32463  -0.32333  -0.31888
  Beta  occ. eigenvalues --   -0.30712  -0.30220  -0.29260  -0.29024  -0.23231
  Beta  occ. eigenvalues --   -0.22126  -0.21903  -0.20974  -0.19781  -0.19200
  Beta  occ. eigenvalues --   -0.10595
  Beta virt. eigenvalues --   -0.02466  -0.00339   0.00428   0.00477   0.01335
  Beta virt. eigenvalues --    0.01913   0.02191   0.02255   0.02301   0.03436
  Beta virt. eigenvalues --    0.03614   0.04125   0.04505   0.05283   0.05341

 Mulliken charges and spin densities:
               1          2
     1  C   -0.673222   0.000000
     2  C    0.581389  -0.000000
     3  C   -0.517327   0.000000
     4  C   -0.674224  -0.000000
     5  C    0.172828   0.000000
     6  C   -0.640099   0.000000
     7  C   -0.212503   0.000000
     8  C    0.267813  -0.000000
     9  C   -0.738236  -0.000000
    10  O   -0.677785   0.000000
    11  C    0.249624   0.000000
    12  C   -0.026991   0.000000
    13  C   -0.491621  -0.000000
    14  C   -0.532991  -0.000000
    15  C   -0.017919   0.000000
    16  C    0.397558  -0.000000
    17  C   -0.528450  -0.000000
    18  O   -0.684441   0.000000
    19  C    0.414102   0.000000
    20  C   -0.024835   0.000000
    21  H    0.155774  -0.000000
    22  H    0.143626   0.000000
    23  H    0.145916  -0.000000
    24  H    0.137221   0.000000
    25  H    0.163028   0.000000
    26  H    0.137272   0.000000
    27  H    0.146269  -0.000000
    28  H    0.156604  -0.000000
    29  H    0.143589   0.000000
    30  H    0.140633  -0.000000
    31  H    0.158710   0.000000
    32  H    0.145187  -0.000000
    33  H    0.156123   0.000000
    34  H    0.156074  -0.000000
    35  H    0.144473   0.000000
    36  H    0.126830  -0.000000
 Sum of Mulliken charges =  -2.00000   0.00000

 Dipole moment (field-independent basis, Debye):
    X=            -19.5534    Y=             -0.9641    Z=              2.1287  Tot=             19.6926
 Quadrupole moment (field-independent basis, Debye-Ang):
   XX=           -185.6494   YY=           -175.1109   ZZ=           -141.3696
   XY=            -10.5118   XZ=              8.1623   YZ=             18.1811

  Exact polarizability: 629.157 -35.171 398.130   6.899 -78.097 246.872
 Approx polarizability: 669.362 -36.627 460.504   7.328 -96.628 273.596

                      1                      2                      3
                      A                      A                      A
 Frequencies --     37.9177                48.5992                92.6435
 Red. masses --      3.2146                 4.5553                 5.2101
 Frc consts  --      0.0027                 0.0063                 0.0263
 IR Inten    --      2.3411                 7.6130                11.6068

                      4                      5                      6
                      A                      A                      A
 Frequencies --    125.8831               132.3615               171.2183
 Red. masses --      4.3532                 3.9013                 5.4708
 Frc consts  --      0.0406                 0.0403                 0.0945
 IR Inten    --      7.2055                 0.1601                 4.3492

                      7                      8                      9
                      A                      A                      A
 Frequencies --    184.7717               227.6545               237.9815
 Red. masses --      3.9883                 1.3913                 4.1640
 Frc consts  --      0.0802                 0.0425                 0.1389
 IR Inten    --      5.8903                 0.0949                 9.2354

                     10                     11                     12
                      A                      A                      A
 Frequencies --    246.2133               247.8346               272.2976
 Red. masses --      2.3489                 2.4637                 1.3348
 Frc consts  --      0.0839                 0.0892                 0.0583
 IR Inten    --      8.4786                 0.9458                 4.4676

                     13                     14                     15
                      A                      A                      A
 Frequencies --    299.8702               313.4308               347.5700
 Red. masses --      4.0697                 1.0465                 2.9455
 Frc consts  --      0.2156                 0.0606                 0.2097
 IR Inten    --      0.1576                 0.0379                 0.2589

                     16                     17                     18
                      A                      A                      A
 Frequencies --    354.4209               369.4931               394.5272
 Red. masses --      2.8014                10.8091                 3.6704
 Frc consts  --      0.2073                 0.8695                 0.3366
 IR Inten    --      1.7103                 1.6829                 0.2273

                     19                     20                     21
                      A                      A                      A
 Frequencies --    414.7729               420.8421               442.8554
 Red. masses --      4.9763                 3.6435                 4.0569
 Frc consts  --      0.5044                 0.3802                 0.4688
 IR Inten    --      2.0525                 4.3407                 1.5011

                     22                     23                     24
                      A                      A                      A
 Frequencies --    449.0000               473.9150               483.8725
 Red. masses --      3.8820                 3.7692                 2.8839
 Frc consts  --      0.4611                 0.4988                 0.3978
 IR Inten    --      5.5654                 6.2308                 0.2820

                     25                     26                     27
                      A                      A                      A
 Frequencies --    500.4817               558.8241               560.3170
 Red. masses --      8.2567                 4.1099                 3.6561
 Frc consts  --      1.2185                 0.7562                 0.6763
 IR Inten    --      0.1855                13.9789                20.5295

                     28                     29                     30
                      A                      A                      A
 Frequencies --    631.1568               651.0980               658.2975
 Red. masses --      6.8932                 5.8676                 3.0945
 Frc consts  --      1.6179                 1.4656                 0.7901
 IR Inten    --     27.0810                28.9328                54.6516

                     31                     32                     33
                      A                      A                      A
 Frequencies --    691.4416               699.5882               704.1857
 Red. masses --      6.4660                 2.6561                 6.2866
 Frc consts  --      1.8214                 0.7659                 1.8367
 IR Inten    --      5.9019                91.1694                 8.2583

                     34                     35                     36
                      A                      A                      A
 Frequencies --    741.6501               772.9437               799.8957
 Red. masses --      3.9405                 1.9396                 2.2455
 Frc consts  --      1.2770                 0.6828                 0.8465
 IR Inten    --      0.4760                32.6615                 7.2760

                     37                     38                     39
                      A                      A                      A
 Frequencies --    808.5047               825.4467               853.0425
 Red. masses --      3.7871                 1.8454                 2.0234
 Frc consts  --      1.4586                 0.7408                 0.8675
 IR Inten    --      2.7518                30.1453                 2.2043

                     40                     41                     42
                      A                      A                      A
 Frequencies --    854.2863               916.6237               923.4980
 Red. masses --      3.5737                 1.8318                 6.2434
 Frc consts  --      1.5366                 0.9068                 3.1372
 IR Inten    --     25.7089                 1.4626                28.4300

                     43                     44                     45
                      A                      A                      A
 Frequencies --    933.0779               934.3147               955.7661
 Red. masses --      1.4439                 1.7072                 1.1983
 Frc consts  --      0.7407                 0.8781                 0.6449
 IR Inten    --     16.4795                 2.6420                 0.3035

                     46                     47                     48
                      A                      A                      A
 Frequencies --    973.1577               973.4987               981.6969
 Red. masses --      1.3699                 3.8905                 1.2657
 Frc consts  --      0.7644                 2.1724                 0.7187
 IR Inten    --      2.8947                10.0810                 0.9585

                     49                     50                     51
                      A                      A                      A
 Frequencies --    984.4110              1015.7523              1037.2378
 Red. masses --      1.2995                 2.0620                 1.4699
 Frc consts  --      0.7420                 1.2535                 0.9318
 IR Inten    --      1.7751               114.3987                 0.5796

                     52                     53                     54
                      A                      A                      A
 Frequencies --   1041.6815              1073.7813              1100.9535
 Red. masses --      1.3902                 3.3623                 2.1942
 Frc consts  --      0.8888                 2.2841                 1.5670
 IR Inten    --      0.0033               577.2786               208.6659

                     55                     56                     57
                      A                      A                      A
 Frequencies --   1118.0091              1131.6856              1162.3477
 Red. masses --      1.7381                 1.6681                 2.6057
 Frc consts  --      1.2800                 1.2587                 2.0742
 IR Inten    --    279.7820               190.3708               210.9246

                     58                     59                     60
                      A                      A                      A
 Frequencies --   1179.4171              1201.3650              1212.9409
 Red. masses --      1.7758                 2.1299                 1.6355
 Frc consts  --      1.4554                 1.8111                 1.4177
 IR Inten    --    287.8122               153.6797                90.5353

                     61                     62                     63
                      A                      A                      A
 Frequencies --   1213.6779              1227.2321              1247.9787
 Red. masses --      2.6857                 2.8174                 2.5384
 Frc consts  --      2.3308                 2.5000                 2.3293
 IR Inten    --     11.3260               142.3197               477.7543

                     64                     65                     66
                      A                      A                      A
 Frequencies --   1280.7273              1309.1025              1337.5978
 Red. masses --      2.8799                 5.9565                 2.6618
 Frc consts  --      2.7832                 6.0143                 2.8059
 IR Inten    --    113.5877                18.4288              1579.7546

                     67                     68                     69
                      A                      A                      A
 Frequencies --   1353.8081              1356.4077              1387.1931
 Red. masses --      5.5411                 2.6119                 1.2107
 Frc consts  --      5.9836                 2.8313                 1.3727
 IR Inten    --    791.3277               919.0433                10.1054

                     70                     71                     72
                      A                      A                      A
 Frequencies --   1391.1101              1416.1322              1434.1415
 Red. masses --      1.2512                 1.2360                 3.2656
 Frc consts  --      1.4266                 1.4604                 3.9572
 IR Inten    --      6.5628                 2.2832               217.3409

                     73                     74                     75
                      A                      A                      A
 Frequencies --   1447.7850              1463.1993              1475.5202
 Red. masses --      6.4017                 2.8410                 1.0488
 Frc consts  --      7.9059                 3.5837                 1.3453
 IR Inten    --     10.3838                14.2451                 0.0035

                     76                     77                     78
                      A                      A                      A
 Frequencies --   1478.5709              1478.9207              1483.6823
 Red. masses --      1.6711                 1.1368                 1.1711
 Frc consts  --      2.1524                 1.4649                 1.5189
 IR Inten    --     15.1843                 3.3944                 0.9406

                     79                     80                     81
                      A                      A                      A
 Frequencies --   1494.5780              1494.6135              1502.3771
 Red. masses --      1.1777                 1.0727                 2.2551
 Frc consts  --      1.5500                 1.4119                 2.9989
 IR Inten    --     16.9373                11.5454                 0.9407

                     82                     83                     84
                      A                      A                      A
 Frequencies --   1510.6354              1523.5669              1575.6461
 Red. masses --      1.3874                 4.7978                 7.8082
 Frc consts  --      1.8654                 6.5616                11.4214
 IR Inten    --     16.4041                84.9335                 0.7925

                     85                     86                     87
                      A                      A                      A
 Frequencies --   1605.1596              1619.1395              3010.2117
 Red. masses --      5.2235                 5.8827                 1.0355
 Frc consts  --      7.9295                 9.0864                 5.5286
 IR Inten    --     11.7505                33.9032                65.1317

                     88                     89                     90
                      A                      A                      A
 Frequencies --   3013.0116              3021.9432              3070.2569
 Red. masses --      1.0353                 1.0359                 1.1014
 Frc consts  --      5.5376                 5.5737                 6.1169
 IR Inten    --     68.0109                81.7353                24.6272

                     91                     92                     93
                      A                      A                      A
 Frequencies --   3072.0065              3079.9319              3086.0203
 Red. masses --      1.1012                 1.1008                 1.1023
 Frc consts  --      6.1227                 6.1522                 6.1849
 IR Inten    --     46.1761               171.3114                32.2692

                     94                     95                     96
                      A                      A                      A
 Frequencies --   3088.1700              3089.8262              3136.2909
 Red. masses --      1.1008                 1.1002                 1.0843
 Frc consts  --      6.1853                 6.1888                 6.2842
 IR Inten    --     42.7661                92.6392                25.0245

                     97                     98                     99
                      A                      A                      A
 Frequencies --   3147.4982              3151.1124              3166.9448
 Red. masses --      1.0852                 1.0884                 1.0920
 Frc consts  --      6.3340                 6.3673                 6.4527
 IR Inten    --     21.3741                25.6651                47.8191

                    100                    101                    102
                      A                      A                      A
 Frequencies --   3169.5930              3172.3605              3194.9286
 Red. masses --      1.0926                 1.0942                 1.0875
 Frc consts  --      6.4670                 6.4879                 6.5401
 IR Inten    --     90.7138                79.3908                16.1163

 - Thermochemistry -
 -------------------
 Temperature   298.150 Kelvin.  Pressure   1.00000 Atm.
 Atom     1 has atomic number  6 and mass  12.00000

 Molecular mass:   264.11503 amu.
 Principal axes and moments of inertia in atomic units:
                           1         2         3
     Eigenvalues --  2226.109149259.39984**********
           X            0.99930   0.03134   0.02058
           Y           -0.03691   0.91857   0.39354
           Z           -0.00657  -0.39402   0.91908
 This molecule is an asymmetric top.
 Rotational symmetry number  1.
 Warning -- assumption of classical behavior for rotation
           may cause significant error
 Rotational temperatures (Kelvin)      0.03891     0.00935     0.00781
 Rotational constants (GHZ):           0.81072     0.19491     0.16278
 Zero-point vibrational energy     752038.0 (Joules/Mol)
                                  179.74139 (Kcal/Mol)
 Warning -- explicit consideration of  27 degrees of freedom as
           vibrations may cause significant error
 Vibrational temperatures:     54.56    69.92   133.29   181.12   190.44
          (Kelvin)            246.34   265.85   327.54   342.40   354.25
                              356.58   391.78   431.45   450.96   500.08
                              509.93   531.62   567.64   596.77   605.50
                              637.17   646.01   681.86   696.18   720.08
                              804.02   806.17   908.09   936.78   947.14
                              994.83  1006.55  1013.17  1067.07  1112.09
                             1150.87  1163.26  1187.63  1227.34  1229.13
                             1318.82  1328.71  1342.49  1344.27  1375.13
                             1400.16  1400.65  1412.44  1416.35  1461.44
                             1492.35  1498.75  1544.93  1584.03  1608.57
                             1628.24  1672.36  1696.92  1728.50  1745.15
                             1746.21  1765.71  1795.56  1842.68  1883.51
                             1924.50  1947.83  1951.57  1995.86  2001.50
                             2037.50  2063.41  2083.04  2105.22  2122.94
                             2127.33  2127.84  2134.69  2150.36  2150.42
                             2161.59  2173.47  2192.07  2267.00  2309.47
                             2329.58  4331.02  4335.05  4347.90  4417.41
                             4419.93  4431.34  4440.09  4443.19  4445.57
                             4512.42  4528.55  4533.75  4556.53  4560.34
                             4564.32  4596.79

 Zero-point correction=                           0.286436 (Hartree/Particle)
 Thermal correction to Energy=                    0.303261
 Thermal correction to Enthalpy=                  0.304205
 Thermal correction to Gibbs Free Energy=         0.242917
 Sum of electronic and zero-point Energies=           -846.198589
 Sum of electronic and thermal Energies=              -846.181765
 Sum of electronic and thermal Enthalpies=            -846.180821
 Sum of electronic and thermal Free Energies=         -846.242108

                     E (Thermal)             CV                S
                      KCal/Mol        Cal/Mol-Kelvin    Cal/Mol-Kelvin
 Total                  190.299             68.804            128.991
 Electronic               0.000              0.000              0.000
 Translational            0.889              2.981             42.613
 Rotational               0.889              2.981             33.791
 Vibrational            188.521             62.842             52.587
 Vibration     1          0.594              1.982              5.365
 Vibration     2          0.595              1.978              4.874
 Vibration     3          0.602              1.954              3.603
 Vibration     4          0.611              1.927              3.008
 Vibration     5          0.612              1.921              2.911
 Vibration     6          0.626              1.878              2.422
 Vibration     7          0.631              1.861              2.280
 Vibration     8          0.651              1.799              1.897
 Vibration     9          0.656              1.782              1.818
 Vibration    10          0.661              1.769              1.758
 Vibration    11          0.661              1.766              1.746
 Vibration    12          0.675              1.724              1.582
 Vibration    13          0.692              1.674              1.418
 Vibration    14          0.701              1.648              1.344
 Vibration    15          0.725              1.580              1.177
 Vibration    16          0.730              1.566              1.146
 Vibration    17          0.742              1.535              1.082
 Vibration    18          0.761              1.482              0.983
 Vibration    19          0.778              1.438              0.910
 Vibration    20          0.783              1.425              0.889
 Vibration    21          0.802              1.377              0.818
 Vibration    22          0.808              1.363              0.799
 Vibration    23          0.831              1.308              0.727
 Vibration    24          0.840              1.286              0.700
 Vibration    25          0.856              1.249              0.657
 Vibration    26          0.914              1.120              0.526
 Vibration    27          0.916              1.117              0.523

 Optimization completed.
    -- Stationary point found.
 Normal termination of Gaussian 16 at Sat Feb 10 19:28:52 2024.
