 Q-Chem 5.4, Q-Chem, Inc., Pleasanton, CA (2021)
 Q-Chem 5.4.0 for Intel X86 EM64T Linux

User input:
--------------------------------------------------------------
$molecule
-2 1
C                 -3.2595260000      3.4237230000      0.3982160000
C                 -4.4786650000      2.7891960000      0.4338090000
C                 -4.5546420000      1.3739130000      0.4974900000
C                 -2.0439360000      2.6930110000      0.4146720000
C                 -2.1091800000      1.2501010000      0.4625980000
C                 -3.3858880000      0.6405790000      0.5120610000
C                 -0.7874090000      3.4188500000      0.3762350000
C                  0.3987700000      2.5821180000      0.3814270000
C                  0.3341880000      1.1391750000      0.4292520000
C                 -0.9226270000      0.4128830000      0.4721770000
C                  1.6747170000      3.1996260000      0.3312090000
C                  2.8318180000      2.4571270000      0.3344790000
C                  2.7808490000      1.0406880000      0.3976190000
C                  1.5512470000      0.4163400000      0.4446860000
O                 -0.7302110000      4.6940690000      0.3285540000
O                 -0.9798430000     -0.8622830000      0.5197930000
H                 -3.4046710000     -0.4433120000      0.5648720000
H                  1.4730540000     -0.6648540000      0.4981850000
H                 -3.1930470000      4.5060260000      0.3652250000
H                  1.7058540000      4.2835390000      0.2988470000
O                  4.0863840000      3.0878950000      0.3216240000
C                  4.6067310000      3.3107410000     -0.9806040000
O                 -5.6708480000      3.5310160000      0.4537690000
H                  3.7079110000      0.4742110000      0.4197040000
H                  5.5907350000      3.7791230000     -0.8650420000
H                  3.9569240000      3.9784580000     -1.5616890000
H                  4.7255180000      2.3688100000     -1.5356600000
C                 -6.2023250000      3.8033290000     -0.8344850000
H                 -5.5283230000      0.8938390000      0.5454260000
H                 -7.1365970000      4.3585140000     -0.6933680000
H                 -6.4201010000      2.8773760000     -1.3864100000
H                 -5.5099730000      4.4109650000     -1.4321130000
$end

$rem
BASIS  =  6-311++G(d,p)
GUI  =  2
JOB_TYPE  =  SP
METHOD  =  B3LYP
SCF_CONVERGENCE  = 8
SOLVENT_METHOD = sm12
$end

$smx
solvent dimethylformamide
charges CM5
$end

--------------------------------------------------------------

             Standard Nuclear Orientation (Angstroms)
    I     Atom           X                Y                Z
 ----------------------------------------------------------------
    1      C      -3.2595260000     3.4237230000     0.3982160000
    2      C      -4.4786650000     2.7891960000     0.4338090000
    3      C      -4.5546420000     1.3739130000     0.4974900000
    4      C      -2.0439360000     2.6930110000     0.4146720000
    5      C      -2.1091800000     1.2501010000     0.4625980000
    6      C      -3.3858880000     0.6405790000     0.5120610000
    7      C      -0.7874090000     3.4188500000     0.3762350000
    8      C       0.3987700000     2.5821180000     0.3814270000
    9      C       0.3341880000     1.1391750000     0.4292520000
   10      C      -0.9226270000     0.4128830000     0.4721770000
   11      C       1.6747170000     3.1996260000     0.3312090000
   12      C       2.8318180000     2.4571270000     0.3344790000
   13      C       2.7808490000     1.0406880000     0.3976190000
   14      C       1.5512470000     0.4163400000     0.4446860000
   15      O      -0.7302110000     4.6940690000     0.3285540000
   16      O      -0.9798430000    -0.8622830000     0.5197930000
   17      H      -3.4046710000    -0.4433120000     0.5648720000
   18      H       1.4730540000    -0.6648540000     0.4981850000
   19      H      -3.1930470000     4.5060260000     0.3652250000
   20      H       1.7058540000     4.2835390000     0.2988470000
   21      O       4.0863840000     3.0878950000     0.3216240000
   22      C       4.6067310000     3.3107410000    -0.9806040000
   23      O      -5.6708480000     3.5310160000     0.4537690000
   24      H       3.7079110000     0.4742110000     0.4197040000
   25      H       5.5907350000     3.7791230000    -0.8650420000
   26      H       3.9569240000     3.9784580000    -1.5616890000
   27      H       4.7255180000     2.3688100000    -1.5356600000
   28      C      -6.2023250000     3.8033290000    -0.8344850000
   29      H      -5.5283230000     0.8938390000     0.5454260000
   30      H      -7.1365970000     4.3585140000    -0.6933680000
   31      H      -6.4201010000     2.8773760000    -1.3864100000
   32      H      -5.5099730000     4.4109650000    -1.4321130000
 ----------------------------------------------------------------

   17    -918.0198882543      8.45e-09  Convergence criterion met
 Total energy in the final basis set =     -918.2987423449

                    Orbital Energies (a.u.)
 --------------------------------------------------------------

 Alpha MOs
 -- Occupied --
-19.1359 -19.1359 -19.0291 -19.0212 -10.2173 -10.2173 -10.2145 -10.2145
-10.1867 -10.1797 -10.1680 -10.1680 -10.1671 -10.1671 -10.1589 -10.1589
-10.1496 -10.1495 -10.1486 -10.1485  -1.0458  -1.0457  -0.9495  -0.9425
 -0.8403  -0.8362  -0.7657  -0.7423  -0.7418  -0.7285  -0.6920  -0.6782
 -0.6446  -0.6172  -0.5980  -0.5805  -0.5441  -0.5292  -0.5216  -0.4840
 -0.4801  -0.4662  -0.4582  -0.4554  -0.4551  -0.4330  -0.4311  -0.4234
 -0.4184  -0.4124  -0.3939  -0.3909  -0.3835  -0.3686  -0.3649  -0.3505
 -0.3500  -0.3414  -0.3320  -0.3302  -0.3169  -0.3038  -0.2744  -0.2732
 -0.2497  -0.2368  -0.2287  -0.2261  -0.2065  -0.1980  -0.1107

          Ground-State Mulliken Net Atomic Charges

     Atom                 Charge (a.u.)
  ----------------------------------------
      1 C                    -0.482879
      2 C                     2.282575
      3 C                     2.478564
      4 C                    -1.557451
      5 C                    -2.019575
      6 C                    -0.053394
      7 C                    -2.339700
      8 C                    -1.555644
      9 C                    -2.020646
     10 C                    -3.220485
     11 C                    -0.484020
     12 C                     2.277808
     13 C                     2.481233
     14 C                    -0.056335
     15 O                    -0.352988
     16 O                    -0.310374
     17 H                     0.123346
     18 H                     0.123189
     19 H                     0.078329
     20 H                     0.078075
     21 O                     0.035137
     22 C                     0.240725
     23 O                     0.034830
     24 H                     0.386609
     25 H                     0.308745
     26 H                     0.144423
     27 H                     0.150098
     28 C                     0.240113
     29 H                     0.386399
     30 H                     0.308827
     31 H                     0.150156
     32 H                     0.144309
  ----------------------------------------
  Sum of atomic charges =    -2.000000

                    Cartesian Multipole Moments
 -----------------------------------------------------------------
    Charge (ESU x 10^10)
                -9.6064
    Dipole Moment (Debye)
         X       8.1462      Y     -19.1015      Z      -6.7024
       Tot      21.8208
    Quadrupole Moments (Debye-Ang)
        XX    -171.3930     XY      15.5391     YY    -215.9673
        XZ       6.0582     YZ     -16.3258     ZZ    -131.7004

 Total job time:  978.27s(wall), 7475.97s(cpu)
        *  Thank you very much for using Q-Chem.  Have a nice day.  *
