 Gaussian 16, Revision A.03,
 Gaussian 16:  ES64L-G16RevA.03 25-Dec-2016

 ----------------------------------------------------------------
 #P UB3LYP/6-311++G(d,p) SCRF=(PCM,Solvent=n,n-DiMethylFormamide)
 ----------------------------------------------------------------

 ------------------
 Quinone PCM in DMF
 ------------------
 Symbolic Z-matrix:
 Charge =  0 Multiplicity = 1

                         Standard orientation:
 ---------------------------------------------------------------------
 Center     Atomic      Atomic             Coordinates (Angstroms)
 Number     Number       Type             X           Y           Z
 ---------------------------------------------------------------------
      1          6           0       -0.265513   -1.069276   -0.673723
      2          6           0       -1.691737   -0.972553   -0.215510
      3          6           0       -2.223440    0.208546    0.150642
      4          6           0       -1.410181    1.474012    0.115770
      5          6           0        0.010824    1.343112   -0.331021
      6          6           0        0.568363    0.179512   -0.715190
      7          8           0        0.211180   -2.133426   -1.006275
      8          8           0       -1.890205    2.535868    0.433736
      9         35           0       -2.644174   -2.601595   -0.201163
     10         35           0       -4.003388    0.424124    0.735845
     11         35           0        0.981633    2.980447   -0.319835
     12          6           0        1.992245   -0.002117   -1.156672
     13          6           0        2.928573   -0.378978    0.013627
     14          6           0        4.377368   -0.574746   -0.445191
     15          6           0        5.326667   -0.949875    0.698220
     16          6           0        6.778501   -1.148074    0.247453
     17          6           0        7.720967   -1.523438    1.394621
     18          1           0        2.344931    0.919259   -1.623081
     19          1           0        2.023171   -0.798375   -1.903043
     20          1           0        2.564956   -1.299516    0.481627
     21          1           0        2.886242    0.406063    0.776433
     22          1           0        4.733284    0.345642   -0.925375
     23          1           0        4.409845   -1.355526   -1.215298
     24          1           0        4.969335   -1.869710    1.178745
     25          1           0        5.291785   -0.169892    1.469811
     26          1           0        7.135634   -0.228987   -0.232866
     27          1           0        6.813164   -1.927289   -0.523541
     28          1           0        7.734895   -0.746722    2.165764
     29          1           0        8.746785   -1.657714    1.040668
     30          1           0        7.409849   -2.457653    1.872655
 ---------------------------------------------------------------------

 SCF Done:  E(UB3LYP) =  -8338.13619578     A.U. after   16 cycles

 The electronic state is 1-A.
 Alpha  occ. eigenvalues -- -482.86059-482.86008-482.85365 -62.51322 -62.51271
 Alpha  occ. eigenvalues --  -62.50635 -56.33378 -56.33327 -56.32983 -56.32933
 Alpha  occ. eigenvalues --  -56.32929 -56.32879 -56.32682 -56.32295 -56.32251
 Alpha  occ. eigenvalues --  -19.16168 -19.16078 -10.31771 -10.31319 -10.28173
 Alpha  occ. eigenvalues --  -10.28033 -10.27101 -10.23980 -10.18965 -10.17667
 Alpha  occ. eigenvalues --  -10.16659 -10.16337 -10.16274 -10.15604  -8.72292
 Alpha  occ. eigenvalues --   -8.72241  -8.71605  -6.55493  -6.55439  -6.54776
 Alpha  occ. eigenvalues --   -6.54169  -6.54121  -6.54015  -6.53965  -6.53483
 Alpha  occ. eigenvalues --   -6.53360  -2.66580  -2.66527  -2.66226  -2.66175
 Alpha  occ. eigenvalues --   -2.66109  -2.66056  -2.65865  -2.65516  -2.65423
 Alpha  occ. eigenvalues --   -2.65054  -2.65052  -2.65006  -2.65004  -2.64395
 Alpha  occ. eigenvalues --   -2.64393  -1.10073  -1.09670  -0.91112  -0.87816
 Alpha  occ. eigenvalues --   -0.82955  -0.81851  -0.80456  -0.78648  -0.75504
 Alpha  occ. eigenvalues --   -0.72311  -0.70412  -0.65910  -0.61892  -0.61241
 Alpha  occ. eigenvalues --   -0.59077  -0.57882  -0.56771  -0.50897  -0.49213
 Alpha  occ. eigenvalues --   -0.48491  -0.48234  -0.46093  -0.45675  -0.44907
 Alpha  occ. eigenvalues --   -0.44716  -0.44425  -0.43233  -0.42429  -0.40474
 Alpha  occ. eigenvalues --   -0.40209  -0.39604  -0.38155  -0.36557  -0.35721
 Alpha  occ. eigenvalues --   -0.35318  -0.33662  -0.33210  -0.33174  -0.33143
 Alpha  occ. eigenvalues --   -0.32485  -0.32420  -0.31662  -0.31233  -0.30936
 Alpha  occ. eigenvalues --   -0.29494  -0.29241  -0.27372
 Alpha virt. eigenvalues --   -0.15202  -0.05776  -0.05034  -0.03127  -0.02143
 Alpha virt. eigenvalues --   -0.00666  -0.00119  -0.00018   0.00882   0.01074
 Alpha virt. eigenvalues --    0.01588   0.02250   0.02601   0.03363   0.03855

  Beta  occ. eigenvalues -- -482.86059-482.86008-482.85365 -62.51322 -62.51271
  Beta  occ. eigenvalues --  -62.50635 -56.33378 -56.33327 -56.32983 -56.32933
  Beta  occ. eigenvalues --  -56.32929 -56.32879 -56.32682 -56.32295 -56.32251
  Beta  occ. eigenvalues --  -19.16168 -19.16078 -10.31771 -10.31319 -10.28173
  Beta  occ. eigenvalues --  -10.28033 -10.27101 -10.23980 -10.18965 -10.17667
  Beta  occ. eigenvalues --  -10.16659 -10.16337 -10.16274 -10.15604  -8.72292
  Beta  occ. eigenvalues --   -8.72241  -8.71605  -6.55493  -6.55439  -6.54776
  Beta  occ. eigenvalues --   -6.54169  -6.54121  -6.54015  -6.53965  -6.53483
  Beta  occ. eigenvalues --   -6.53360  -2.66580  -2.66527  -2.66226  -2.66175
  Beta  occ. eigenvalues --   -2.66109  -2.66056  -2.65865  -2.65516  -2.65423
  Beta  occ. eigenvalues --   -2.65054  -2.65052  -2.65006  -2.65004  -2.64395
  Beta  occ. eigenvalues --   -2.64393  -1.10073  -1.09670  -0.91112  -0.87816
  Beta  occ. eigenvalues --   -0.82955  -0.81851  -0.80456  -0.78648  -0.75504
  Beta  occ. eigenvalues --   -0.72311  -0.70412  -0.65910  -0.61892  -0.61241
  Beta  occ. eigenvalues --   -0.59077  -0.57882  -0.56771  -0.50897  -0.49213
  Beta  occ. eigenvalues --   -0.48491  -0.48234  -0.46093  -0.45675  -0.44907
  Beta  occ. eigenvalues --   -0.44716  -0.44425  -0.43233  -0.42429  -0.40474
  Beta  occ. eigenvalues --   -0.40209  -0.39604  -0.38155  -0.36557  -0.35721
  Beta  occ. eigenvalues --   -0.35318  -0.33662  -0.33210  -0.33174  -0.33143
  Beta  occ. eigenvalues --   -0.32485  -0.32420  -0.31662  -0.31233  -0.30936
  Beta  occ. eigenvalues --   -0.29494  -0.29241  -0.27372
  Beta virt. eigenvalues --   -0.15202  -0.05776  -0.05034  -0.03127  -0.02143
  Beta virt. eigenvalues --   -0.00666  -0.00119  -0.00018   0.00882   0.01074
  Beta virt. eigenvalues --    0.01588   0.02250   0.02601   0.03363   0.03855

 Mulliken charges and spin densities:
               1          2
     1  C   -0.952720   0.000000
     2  C   -0.215794   0.000000
     3  C    0.553312  -0.000000
     4  C   -0.654348   0.000000
     5  C    0.205934  -0.000000
     6  C    2.071446   0.000000
     7  O   -0.183046  -0.000000
     8  O   -0.161431  -0.000000
     9  Br  -0.016175   0.000000
    10  Br  -0.007770  -0.000000
    11  Br   0.004026   0.000000
    12  C   -0.807836  -0.000000
    13  C   -0.481571   0.000000
    14  C   -0.155081  -0.000000
    15  C   -0.255045  -0.000000
    16  C   -0.195746  -0.000000
    17  C   -0.677229   0.000000
    18  H    0.185403   0.000000
    19  H    0.228603   0.000000
    20  H    0.192064   0.000000
    21  H    0.122633   0.000000
    22  H    0.129236  -0.000000
    23  H    0.125475  -0.000000
    24  H    0.123778  -0.000000
    25  H    0.128550  -0.000000
    26  H    0.133854  -0.000000
    27  H    0.133295  -0.000000
    28  H    0.141004  -0.000000
    29  H    0.143930   0.000000
    30  H    0.141251  -0.000000
 Sum of Mulliken charges =  -0.00000  -0.00000

 Dipole moment (field-independent basis, Debye):
    X=              2.1524    Y=             -0.8004    Z=             -0.4686  Tot=              2.3437
 Quadrupole moment (field-independent basis, Debye-Ang):
   XX=           -134.0557   YY=           -152.2604   ZZ=           -139.4611
   XY=              7.8165   XZ=             -0.4862   YZ=             -4.1710

 Normal termination of Gaussian 16 at Sun Jan 21 06:54:31 2024.
