 Q-Chem 5.4, Q-Chem, Inc., Pleasanton, CA (2021)
 Q-Chem 5.4.0 for Intel X86 EM64T Linux

User input:
--------------------------------------------------------------
$molecule
0 1
C                  4.4055450000     -0.1139980000     -0.0116060000
C                  2.9679950000      0.3243210000     -0.1138280000
C                  2.6333390000      1.6405610000     -0.4532080000
C                  1.3122110000      2.0518870000     -0.5448700000
C                  0.2741410000      1.1539660000     -0.2958110000
C                 -1.1341640000      1.6428000000     -0.4117950000
O                 -1.3696200000      2.8011140000     -0.7121240000
C                 -2.2265660000      0.6670410000     -0.1523410000
C                 -3.5563180000      1.0848070000     -0.2643950000
C                 -4.5906110000      0.1879610000     -0.0262570000
C                 -4.3053490000     -1.1340840000      0.3274580000
C                 -2.9868290000     -1.5573660000      0.4428190000
C                 -1.9396580000     -0.6618230000      0.2032490000
C                 -0.5379040000     -1.1495040000      0.3390590000
O                 -0.2958940000     -2.2932470000      0.6769760000
C                  0.5643040000     -0.1792670000      0.0504580000
C                  1.9087650000     -0.5549410000      0.1278890000
N                  2.3008210000     -1.9518800000      0.4704500000
O                  2.4198020000     -2.7317830000     -0.4585740000
O                  2.5682140000     -2.1758490000      1.6383920000
H                  5.0740070000      0.6974230000     -0.2990140000
H                  4.6052540000     -0.9703610000     -0.6610510000
H                  4.6499160000     -0.4162000000      1.0103310000
H                  3.4318940000      2.3473810000     -0.6489850000
H                  1.0589610000      3.0707100000     -0.8097120000
H                 -3.7538490000      2.1136350000     -0.5384770000
H                 -5.6203110000      0.5148770000     -0.1148020000
H                 -5.1139300000     -1.8317840000      0.5128060000
H                 -2.7441640000     -2.5763960000      0.7169630000
$end
$rem
MAX_SCF_CYCLES=200
BASIS  =  6-311++G(d,p)
GUI  =  2
JOB_TYPE  =  SP
METHOD  =  B3LYP
SOLVENT_METHOD = COSMO
$end
$solvent
dielectric 37.219
opticaldielectric 1.43
$end

--------------------------------------------------------------

             Standard Nuclear Orientation (Angstroms)
    I     Atom           X                Y                Z
 ----------------------------------------------------------------
    1      C       4.3492806746     0.6611733312    -0.0040440541
    2      C       2.8650342245     0.9183410561    -0.0043937301
    3      C       2.3546853606     2.2218754602    -0.0025895693
    4      C       0.9896004745     2.4657958276     0.0014478861
    5      C       0.0828451897     1.4057707805     0.0063044080
    6      C      -1.3792837646     1.7186804516     0.0056724021
    7      O      -1.7699081198     2.8739902547     0.0061530306
    8      C      -2.3295779279     0.5742689830     0.0004257363
    9      C      -3.7045538573     0.8283679843    -0.0137094062
   10      C      -4.6079769462    -0.2273791351    -0.0191137518
   11      C      -4.1454835953    -1.5465789474    -0.0089428410
   12      C      -2.7808463165    -1.8082751798     0.0068995546
   13      C      -1.8645246880    -0.7517249508     0.0106995282
   14      C      -0.4085431555    -1.0693839790     0.0307472004
   15      O      -0.0123655324    -2.2193308797     0.0703730201
   16      C       0.5514567915     0.0783634754     0.0064834156
   17      C       1.9347079196    -0.1247239832    -0.0021011880
   18      N       2.5124669684    -1.4988932468    -0.0207514445
   19      O       2.7079909387    -1.9970035922    -1.1158072519
   20      O       2.8356754719    -1.9727197350     1.0547830120
   21      H       4.8998659840     1.5993702645    -0.0710602803
   22      H       4.6417010260     0.0299305498    -0.8472776928
   23      H       4.6561293467     0.1460927765     0.9102504176
   24      H       3.0500414904     3.0537884841    -0.0063054147
   25      H       0.6002530282     3.4760855481     0.0008159165
   26      H      -4.0401913200     1.8578974586    -0.0202704670
   27      H      -5.6731823202    -0.0268930299    -0.0309125222
   28      H      -4.8522179083    -2.3684376787    -0.0130951125
   29      H      -2.4017324745    -2.8224970759     0.0163872350
 ----------------------------------------------------------------

   10    -932.8285731395      4.36e-06  Convergence criterion met
 Total energy in the final basis set =     -932.8285731395
    5    -932.8488118801      4.13e-06  Convergence criterion met
 Total energy in the final basis set =     -932.8488118801

                    Orbital Energies (a.u.)
 --------------------------------------------------------------

 Alpha MOs
 -- Occupied --
-19.1922 -19.1920 -19.1431 -19.1381 -14.5815 -10.2970 -10.2907 -10.2632
-10.2340 -10.2309 -10.2206 -10.2136 -10.2123 -10.2080 -10.2072 -10.1999
-10.1997 -10.1992 -10.1988 -10.1821  -1.2693  -1.0977  -1.0814  -1.0734
 -0.9188  -0.8917  -0.8395  -0.8224  -0.7898  -0.7819  -0.7419  -0.7230
 -0.6843  -0.6652  -0.6491  -0.6157  -0.5993  -0.5886  -0.5633  -0.5564
 -0.5514  -0.5415  -0.5124  -0.4972  -0.4878  -0.4799  -0.4686  -0.4674
 -0.4553  -0.4524  -0.4442  -0.4421  -0.4299  -0.4138  -0.4026  -0.3960
 -0.3935  -0.3826  -0.3750  -0.3718  -0.3498  -0.3447  -0.3393  -0.2986
 -0.2969  -0.2866  -0.2854  -0.2814  -0.2796

          Ground-State Mulliken Net Atomic Charges

     Atom                 Charge (a.u.)
  ----------------------------------------
      1 C                    -0.509727
      2 C                     0.934634
      3 C                    -1.051922
      4 C                    -0.130021
      5 C                     0.597341
      6 C                    -0.628287
      7 O                    -0.278134
      8 C                     0.059470
      9 C                     0.189979
     10 C                    -0.384015
     11 C                    -0.427169
     12 C                     0.187409
     13 C                     0.044839
     14 C                    -0.633236
     15 O                    -0.230735
     16 C                     0.179967
     17 C                     0.329914
     18 N                    -0.161714
     19 O                    -0.000637
     20 O                    -0.002310
     21 H                     0.204971
     22 H                     0.205672
     23 H                     0.214505
     24 H                     0.213975
     25 H                     0.207918
     26 H                     0.202261
     27 H                     0.230944
     28 H                     0.232106
     29 H                     0.202005
  ----------------------------------------
  Sum of atomic charges =     0.000000

                    Cartesian Multipole Moments
 -----------------------------------------------------------------
    Charge (ESU x 10^10)
                 0.0000
    Dipole Moment (Debye)
         X      -2.0105      Y       4.3612      Z      -0.0632
       Tot       4.8027
    Quadrupole Moments (Debye-Ang)
        XX     -83.6555     XY      28.7365     YY    -126.6550
        XZ       0.0090     YZ       0.0475     ZZ    -119.1737

 Total job time:  99.20s(wall), 623.99s(cpu)
        *  Thank you very much for using Q-Chem.  Have a nice day.  *
