 Q-Chem 5.4, Q-Chem, Inc., Pleasanton, CA (2021)
 Q-Chem 5.4.0 for Intel X86 EM64T Linux

User input:
--------------------------------------------------------------
$molecule
0 1
C                 17.0026840000      0.0903900000      3.4242300000
C                 16.4129970000      1.0207790000      2.4247220000
C                 16.1901760000      0.5862190000      1.1661020000
C                 16.5170340000     -0.8324560000      0.7557360000
C                 16.9954490000     -1.7632430000      1.7718310000
C                 17.2607300000     -1.3308270000      3.0367370000
O                 17.2807380000      0.4467780000      4.5608270000
O                 16.3787540000     -1.1694710000     -0.4173470000
C                 16.3632520000     -3.8747300000      0.8120450000
C                 16.1125560000      2.4177650000      2.8993680000
H                 16.7986910000     -4.8724330000      0.7705840000
H                 16.1535130000     -3.5109620000     -0.1926200000
H                 15.4423430000     -3.9020960000      1.4038190000
C                 15.6005950000      1.4577080000      0.0801700000
C                 14.0931830000      1.3341490000      0.0243830000
C                 13.1765410000      2.3115450000      0.0442320000
C                 11.7029940000      1.9643830000     -0.0345030000
C                 10.9269330000      2.1998500000      1.2856980000
C                  9.4576080000      1.9142060000      1.1410300000
C                  8.7191720000      0.9801280000      1.7570620000
C                  7.2372180000      0.8665850000      1.4623590000
C                  6.3222230000      1.2622450000      2.6487010000
C                  4.8641020000      1.0864930000      2.3259620000
C                  3.9044340000      2.0181420000      2.2335790000
C                  2.4868640000      1.6162620000      1.8785350000
C                 13.4914060000      3.7858050000      0.1103610000
C                  9.2597970000     -0.0099500000      2.7602550000
C                  4.1189300000      3.4925700000      2.4750100000
C                  2.0250130000      2.0845300000      0.4753860000
C                  0.5941850000      1.7157670000      0.1961050000
C                  0.1052260000      0.8831480000     -0.7340120000
C                 -1.3881880000      0.6423950000     -0.8280480000
C                 -1.8297180000     -0.7827300000     -0.4093140000
C                 -3.3114340000     -0.9868490000     -0.5641370000
C                 -4.2300320000     -1.2362830000      0.3800090000
C                 -5.6887550000     -1.3916540000     -0.0009760000
C                 -6.5985120000     -0.2350020000      0.4847860000
C                 -8.0436250000     -0.4628330000      0.1371300000
C                 -8.8348360000      0.2465150000     -0.6803540000
C                -10.2741380000     -0.1750250000     -0.8991550000
C                -10.5691860000     -0.7180680000     -2.3202150000
C                -12.0202540000     -1.0661690000     -2.5056030000
C                -12.5759180000     -2.2638900000     -2.7383490000
C                  0.9464620000      0.1431260000     -1.7453760000
C                 -3.9238420000     -1.3945060000      1.8495490000
C                 -8.4029000000      1.4877840000     -1.4226110000
C                -11.8009270000     -3.5499910000     -2.8918740000
C                -14.0798520000     -2.3890610000     -2.8784500000
C                -14.7661660000     -3.1466840000     -1.7139070000
C                -16.2484860000     -3.2880820000     -1.9234250000
C                -17.2537650000     -2.7827690000     -1.1945310000
C                -17.0708460000     -1.9539440000      0.0538390000
C                -18.6916590000     -3.0393730000     -1.5985290000
C                -19.4575710000     -1.7772730000     -2.0684780000
C                -20.8386330000     -2.1030370000     -2.5668640000
C                -22.0237220000     -1.7154440000     -2.0745180000
C                -22.1956830000     -0.8330230000     -0.8614920000
C                -23.3093780000     -2.1632110000     -2.7395420000
H                 16.0120250000      1.1202620000     -0.8757380000
H                 15.9099670000      2.4915110000      0.2313130000
H                 13.7365260000      0.3102930000     -0.0652720000
H                 11.5872000000      0.9159410000     -0.3228170000
H                 11.2316840000      2.5604990000     -0.8272330000
H                 11.0495700000      3.2459210000      1.5926370000
H                 11.3799320000      1.5942800000      2.0737490000
H                  8.9447580000      2.5568140000      0.4249230000
H                  7.0032950000     -0.1671450000      1.1735220000
H                  6.9844890000      1.4954950000      0.6038970000
H                  6.5503430000      2.2900960000      2.9396380000
H                  6.5667320000      0.6335420000      3.5135250000
H                  4.5694340000      0.0543400000      2.1342090000
H                  1.7953450000      2.0273250000      2.6265650000
H                  2.3902720000      0.5279600000      1.9297230000
H                 14.5583580000      3.9963860000      0.1794090000
H                 13.0018780000      4.2606070000      0.9670340000
H                 13.1111100000      4.2918310000     -0.7847400000
H                 10.3453580000      0.0228340000      2.8482960000
H                  8.9761920000     -1.0302520000      2.4776550000
H                  8.8425560000      0.1652020000      3.7578780000
H                  5.1405930000      3.7331340000      2.7671860000
H                  3.4497300000      3.8500690000      3.2665380000
H                  3.8845940000      4.0792120000      1.5803790000
H                  2.7030150000      1.6689810000     -0.2733820000
H                  2.1232780000      3.1750700000      0.4117460000
H                 -0.1280630000      2.1929370000      0.8591570000
H                 -1.7204320000      0.8196740000     -1.8600250000
H                 -1.9164620000      1.3669170000     -0.2016660000
H                 -1.5022180000     -0.9632360000      0.6169120000
H                 -1.3082780000     -1.5171330000     -1.0352730000
H                 -3.6691670000     -0.9062700000     -1.5910400000
H                 -6.0737650000     -2.3335700000      0.4128920000
H                 -5.7779460000     -1.4693930000     -1.0883440000
H                 -6.2255240000      0.7027000000      0.0670070000
H                 -6.5117380000     -0.1452380000      1.5744770000
H                 -8.4872440000     -1.3351000000      0.6181100000
H                -10.9356040000      0.6815560000     -0.7107130000
H                -10.5457540000     -0.9445770000     -0.1708780000
H                 -9.9204250000     -1.5762820000     -2.5088070000
H                -10.2962000000      0.0454750000     -3.0587850000
H                -12.6978520000     -0.2156290000     -2.4254480000
H                  2.0083260000      0.3744420000     -1.6682620000
H                  0.6218030000      0.3888590000     -2.7634120000
H                  0.8359100000     -0.9409840000     -1.6362770000
H                 -2.8609070000     -1.3153460000      2.0750860000
H                 -4.2716530000     -2.3707180000      2.2076540000
H                 -4.4454230000     -0.6394980000      2.4473310000
H                 -7.3750440000      1.7778580000     -1.2072930000
H                 -9.0521550000      2.3322050000     -1.1625460000
H                 -8.4875270000      1.3519240000     -2.5060250000
H                -10.7224890000     -3.4084070000     -2.8291940000
H                -12.0233240000     -4.0153160000     -3.8594440000
H                -12.0835860000     -4.2777820000     -2.1238430000
H                -14.3148970000     -2.9090980000     -3.8171210000
H                -14.5251650000     -1.3929360000     -2.9541970000
H                -14.5378120000     -2.6312470000     -0.7783950000
H                -14.3277930000     -4.1487440000     -1.6315130000
H                -16.5218840000     -3.8767320000     -2.7996360000
H                -16.0277440000     -1.8579530000      0.3533070000
H                -17.6213490000     -2.3994890000      0.8907370000
H                -17.4702460000     -0.9427460000     -0.0796800000
H                -19.2382450000     -3.4759000000     -0.7523560000
H                -18.7150190000     -3.7833870000     -2.4009590000
H                -18.8835160000     -1.3166390000     -2.8828880000
H                -19.4933300000     -1.0408690000     -1.2635040000
H                -20.8564400000     -2.7539050000     -3.4414010000
H                -21.2609120000     -0.6499170000     -0.3322130000
H                -22.8975230000     -1.2905550000     -0.1548430000
H                -22.6164540000      0.1411350000     -1.1341890000
H                -23.0807410000     -2.9193680000     -3.4971310000
C                -24.1140250000     -1.0188040000     -3.4055890000
H                -23.9563730000     -2.6493640000     -1.9977010000
C                -25.3171520000     -1.5288420000     -4.1496820000
C                -26.6139240000     -1.2907240000     -3.9115950000
C                -27.6854680000     -1.9089290000     -4.7769010000
C                -27.1414570000     -0.4131970000     -2.8041950000
H                -23.4487930000     -0.5030930000     -4.1101750000
H                -24.4004120000     -0.2799810000     -2.6546320000
H                -25.0813150000     -2.1889590000     -4.9845180000
H                -27.2606280000     -2.5341080000     -5.5647890000
H                -28.3025340000     -1.1356640000     -5.2501750000
H                -28.3650700000     -2.5276560000     -4.1786550000
H                -26.3574410000      0.0104210000     -2.1771700000
H                -27.8208090000     -0.9804500000     -2.1571230000
H                -27.7272580000      0.4164630000     -3.2175490000
O                 17.3480220000     -3.0493920000      1.4607570000
H                 15.1051340000      2.7217220000      2.6085080000
H                 16.8148340000      3.1391270000      2.4677930000
H                 16.2038200000      2.4764100000      3.9829660000
N                 17.7615170000     -2.1243090000      4.0152260000
H                 18.1238310000     -3.0305420000      3.7689620000
H                 18.0521910000     -1.6795290000      4.8725310000
$end

$rem
BASIS  =  6-311++G(d,p)
GUI  =  2
JOB_TYPE  =  SP
METHOD  =  B3LYP
SCF_CONVERGENCE  = 8
SOLVENT_METHOD = sm12
$end

$smx
solvent dimethylformamide
charges CM5
$end

--------------------------------------------------------------

             Standard Nuclear Orientation (Angstroms)
    I     Atom           X                Y                Z
 ----------------------------------------------------------------
    1      C      17.0026840000     0.0903900000     3.4242300000
    2      C      16.4129970000     1.0207790000     2.4247220000
    3      C      16.1901760000     0.5862190000     1.1661020000
    4      C      16.5170340000    -0.8324560000     0.7557360000
    5      C      16.9954490000    -1.7632430000     1.7718310000
    6      C      17.2607300000    -1.3308270000     3.0367370000
    7      O      17.2807380000     0.4467780000     4.5608270000
    8      O      16.3787540000    -1.1694710000    -0.4173470000
    9      C      16.3632520000    -3.8747300000     0.8120450000
   10      C      16.1125560000     2.4177650000     2.8993680000
   11      H      16.7986910000    -4.8724330000     0.7705840000
   12      H      16.1535130000    -3.5109620000    -0.1926200000
   13      H      15.4423430000    -3.9020960000     1.4038190000
   14      C      15.6005950000     1.4577080000     0.0801700000
   15      C      14.0931830000     1.3341490000     0.0243830000
   16      C      13.1765410000     2.3115450000     0.0442320000
   17      C      11.7029940000     1.9643830000    -0.0345030000
   18      C      10.9269330000     2.1998500000     1.2856980000
   19      C       9.4576080000     1.9142060000     1.1410300000
   20      C       8.7191720000     0.9801280000     1.7570620000
   21      C       7.2372180000     0.8665850000     1.4623590000
   22      C       6.3222230000     1.2622450000     2.6487010000
   23      C       4.8641020000     1.0864930000     2.3259620000
   24      C       3.9044340000     2.0181420000     2.2335790000
   25      C       2.4868640000     1.6162620000     1.8785350000
   26      C      13.4914060000     3.7858050000     0.1103610000
   27      C       9.2597970000    -0.0099500000     2.7602550000
   28      C       4.1189300000     3.4925700000     2.4750100000
   29      C       2.0250130000     2.0845300000     0.4753860000
   30      C       0.5941850000     1.7157670000     0.1961050000
   31      C       0.1052260000     0.8831480000    -0.7340120000
   32      C      -1.3881880000     0.6423950000    -0.8280480000
   33      C      -1.8297180000    -0.7827300000    -0.4093140000
   34      C      -3.3114340000    -0.9868490000    -0.5641370000
   35      C      -4.2300320000    -1.2362830000     0.3800090000
   36      C      -5.6887550000    -1.3916540000    -0.0009760000
   37      C      -6.5985120000    -0.2350020000     0.4847860000
   38      C      -8.0436250000    -0.4628330000     0.1371300000
   39      C      -8.8348360000     0.2465150000    -0.6803540000
   40      C     -10.2741380000    -0.1750250000    -0.8991550000
   41      C     -10.5691860000    -0.7180680000    -2.3202150000
   42      C     -12.0202540000    -1.0661690000    -2.5056030000
   43      C     -12.5759180000    -2.2638900000    -2.7383490000
   44      C       0.9464620000     0.1431260000    -1.7453760000
   45      C      -3.9238420000    -1.3945060000     1.8495490000
   46      C      -8.4029000000     1.4877840000    -1.4226110000
   47      C     -11.8009270000    -3.5499910000    -2.8918740000
   48      C     -14.0798520000    -2.3890610000    -2.8784500000
   49      C     -14.7661660000    -3.1466840000    -1.7139070000
   50      C     -16.2484860000    -3.2880820000    -1.9234250000
   51      C     -17.2537650000    -2.7827690000    -1.1945310000
   52      C     -17.0708460000    -1.9539440000     0.0538390000
   53      C     -18.6916590000    -3.0393730000    -1.5985290000
   54      C     -19.4575710000    -1.7772730000    -2.0684780000
   55      C     -20.8386330000    -2.1030370000    -2.5668640000
   56      C     -22.0237220000    -1.7154440000    -2.0745180000
   57      C     -22.1956830000    -0.8330230000    -0.8614920000
   58      C     -23.3093780000    -2.1632110000    -2.7395420000
   59      H      16.0120250000     1.1202620000    -0.8757380000
   60      H      15.9099670000     2.4915110000     0.2313130000
   61      H      13.7365260000     0.3102930000    -0.0652720000
   62      H      11.5872000000     0.9159410000    -0.3228170000
   63      H      11.2316840000     2.5604990000    -0.8272330000
   64      H      11.0495700000     3.2459210000     1.5926370000
   65      H      11.3799320000     1.5942800000     2.0737490000
   66      H       8.9447580000     2.5568140000     0.4249230000
   67      H       7.0032950000    -0.1671450000     1.1735220000
   68      H       6.9844890000     1.4954950000     0.6038970000
   69      H       6.5503430000     2.2900960000     2.9396380000
   70      H       6.5667320000     0.6335420000     3.5135250000
   71      H       4.5694340000     0.0543400000     2.1342090000
   72      H       1.7953450000     2.0273250000     2.6265650000
   73      H       2.3902720000     0.5279600000     1.9297230000
   74      H      14.5583580000     3.9963860000     0.1794090000
   75      H      13.0018780000     4.2606070000     0.9670340000
   76      H      13.1111100000     4.2918310000    -0.7847400000
   77      H      10.3453580000     0.0228340000     2.8482960000
   78      H       8.9761920000    -1.0302520000     2.4776550000
   79      H       8.8425560000     0.1652020000     3.7578780000
   80      H       5.1405930000     3.7331340000     2.7671860000
   81      H       3.4497300000     3.8500690000     3.2665380000
   82      H       3.8845940000     4.0792120000     1.5803790000
   83      H       2.7030150000     1.6689810000    -0.2733820000
   84      H       2.1232780000     3.1750700000     0.4117460000
   85      H      -0.1280630000     2.1929370000     0.8591570000
   86      H      -1.7204320000     0.8196740000    -1.8600250000
   87      H      -1.9164620000     1.3669170000    -0.2016660000
   88      H      -1.5022180000    -0.9632360000     0.6169120000
   89      H      -1.3082780000    -1.5171330000    -1.0352730000
   90      H      -3.6691670000    -0.9062700000    -1.5910400000
   91      H      -6.0737650000    -2.3335700000     0.4128920000
   92      H      -5.7779460000    -1.4693930000    -1.0883440000
   93      H      -6.2255240000     0.7027000000     0.0670070000
   94      H      -6.5117380000    -0.1452380000     1.5744770000
   95      H      -8.4872440000    -1.3351000000     0.6181100000
   96      H     -10.9356040000     0.6815560000    -0.7107130000
   97      H     -10.5457540000    -0.9445770000    -0.1708780000
   98      H      -9.9204250000    -1.5762820000    -2.5088070000
   99      H     -10.2962000000     0.0454750000    -3.0587850000
  100      H     -12.6978520000    -0.2156290000    -2.4254480000
  101      H       2.0083260000     0.3744420000    -1.6682620000
  102      H       0.6218030000     0.3888590000    -2.7634120000
  103      H       0.8359100000    -0.9409840000    -1.6362770000
  104      H      -2.8609070000    -1.3153460000     2.0750860000
  105      H      -4.2716530000    -2.3707180000     2.2076540000
  106      H      -4.4454230000    -0.6394980000     2.4473310000
  107      H      -7.3750440000     1.7778580000    -1.2072930000
  108      H      -9.0521550000     2.3322050000    -1.1625460000
  109      H      -8.4875270000     1.3519240000    -2.5060250000
  110      H     -10.7224890000    -3.4084070000    -2.8291940000
  111      H     -12.0233240000    -4.0153160000    -3.8594440000
  112      H     -12.0835860000    -4.2777820000    -2.1238430000
  113      H     -14.3148970000    -2.9090980000    -3.8171210000
  114      H     -14.5251650000    -1.3929360000    -2.9541970000
  115      H     -14.5378120000    -2.6312470000    -0.7783950000
  116      H     -14.3277930000    -4.1487440000    -1.6315130000
  117      H     -16.5218840000    -3.8767320000    -2.7996360000
  118      H     -16.0277440000    -1.8579530000     0.3533070000
  119      H     -17.6213490000    -2.3994890000     0.8907370000
  120      H     -17.4702460000    -0.9427460000    -0.0796800000
  121      H     -19.2382450000    -3.4759000000    -0.7523560000
  122      H     -18.7150190000    -3.7833870000    -2.4009590000
  123      H     -18.8835160000    -1.3166390000    -2.8828880000
  124      H     -19.4933300000    -1.0408690000    -1.2635040000
  125      H     -20.8564400000    -2.7539050000    -3.4414010000
  126      H     -21.2609120000    -0.6499170000    -0.3322130000
  127      H     -22.8975230000    -1.2905550000    -0.1548430000
  128      H     -22.6164540000     0.1411350000    -1.1341890000
  129      H     -23.0807410000    -2.9193680000    -3.4971310000
  130      C     -24.1140250000    -1.0188040000    -3.4055890000
  131      H     -23.9563730000    -2.6493640000    -1.9977010000
  132      C     -25.3171520000    -1.5288420000    -4.1496820000
  133      C     -26.6139240000    -1.2907240000    -3.9115950000
  134      C     -27.6854680000    -1.9089290000    -4.7769010000
  135      C     -27.1414570000    -0.4131970000    -2.8041950000
  136      H     -23.4487930000    -0.5030930000    -4.1101750000
  137      H     -24.4004120000    -0.2799810000    -2.6546320000
  138      H     -25.0813150000    -2.1889590000    -4.9845180000
  139      H     -27.2606280000    -2.5341080000    -5.5647890000
  140      H     -28.3025340000    -1.1356640000    -5.2501750000
  141      H     -28.3650700000    -2.5276560000    -4.1786550000
  142      H     -26.3574410000     0.0104210000    -2.1771700000
  143      H     -27.8208090000    -0.9804500000    -2.1571230000
  144      H     -27.7272580000     0.4164630000    -3.2175490000
  145      O      17.3480220000    -3.0493920000     1.4607570000
  146      H      15.1051340000     2.7217220000     2.6085080000
  147      H      16.8148340000     3.1391270000     2.4677930000
  148      H      16.2038200000     2.4764100000     3.9829660000
  149      N      17.7615170000    -2.1243090000     4.0152260000
  150      H      18.1238310000    -3.0305420000     3.7689620000
  151      H      18.0521910000    -1.6795290000     4.8725310000
 ----------------------------------------------------------------

   15   -2544.7521813703      6.41e-09  Convergence criterion met
 Total energy in the final basis set =    -2544.7947795872

                    Orbital Energies (a.u.)
 --------------------------------------------------------------

 Alpha MOs
 -- Occupied --
-19.1511 -19.1380 -19.1180 -14.3394 -10.2835 -10.2685 -10.2386 -10.2312
-10.2129 -10.2082 -10.2048 -10.1802 -10.1800 -10.1792 -10.1775 -10.1771
-10.1770 -10.1769 -10.1768 -10.1767 -10.1766 -10.1765 -10.1721 -10.1714
-10.1713 -10.1711 -10.1710 -10.1710 -10.1709 -10.1708 -10.1707 -10.1707
-10.1706 -10.1703 -10.1701 -10.1701 -10.1701 -10.1699 -10.1698 -10.1696
-10.1695 -10.1694 -10.1647 -10.1644 -10.1643 -10.1641 -10.1640 -10.1637
-10.1636 -10.1635 -10.1635 -10.1634 -10.1634 -10.1634 -10.1634 -10.1634
-10.1633 -10.1632 -10.1632 -10.1631 -10.1631 -10.1625  -1.0732  -1.0682
 -1.0427  -0.9378  -0.8573  -0.8348  -0.8338  -0.8321  -0.8296  -0.8264
 -0.8227  -0.8185  -0.8140  -0.8096  -0.8062  -0.7888  -0.7809  -0.7757
 -0.7693  -0.7623  -0.7550  -0.7475  -0.7401  -0.7334  -0.7278  -0.7239
 -0.7158  -0.6967  -0.6943  -0.6913  -0.6908  -0.6903  -0.6894  -0.6880
 -0.6857  -0.6821  -0.6771  -0.6715  -0.6648  -0.6600  -0.6482  -0.6389
 -0.6289  -0.6191  -0.6098  -0.6017  -0.5969  -0.5951  -0.5904  -0.5874
 -0.5859  -0.5603  -0.5278  -0.5273  -0.5259  -0.5247  -0.5233  -0.5219
 -0.5202  -0.5186  -0.5169  -0.5152  -0.5132  -0.5094  -0.4917  -0.4831
 -0.4826  -0.4820  -0.4815  -0.4807  -0.4796  -0.4761  -0.4732  -0.4727
 -0.4707  -0.4669  -0.4603  -0.4522  -0.4516  -0.4513  -0.4494  -0.4470
 -0.4456  -0.4439  -0.4417  -0.4394  -0.4377  -0.4354  -0.4337  -0.4324
 -0.4317  -0.4257  -0.4219  -0.4211  -0.4194  -0.4175  -0.4165  -0.4153
 -0.4135  -0.4129  -0.4116  -0.4097  -0.4086  -0.4075  -0.4056  -0.4049
 -0.4043  -0.4026  -0.4004  -0.3978  -0.3961  -0.3952  -0.3940  -0.3859
 -0.3839  -0.3794  -0.3768  -0.3764  -0.3763  -0.3757  -0.3753  -0.3745
 -0.3736  -0.3733  -0.3728  -0.3725  -0.3719  -0.3712  -0.3705  -0.3686
 -0.3679  -0.3665  -0.3649  -0.3630  -0.3623  -0.3598  -0.3593  -0.3571
 -0.3528  -0.3474  -0.3465  -0.3458  -0.3416  -0.3414  -0.3391  -0.3387
 -0.3353  -0.3341  -0.3339  -0.3318  -0.3314  -0.3304  -0.3271  -0.3224
 -0.3180  -0.3142  -0.3129  -0.3117  -0.2874  -0.2815  -0.2657  -0.2553
 -0.2535  -0.2508  -0.2479  -0.2442  -0.2398  -0.2365  -0.2335  -0.2296
 -0.2262  -0.2185

          Ground-State Mulliken Net Atomic Charges

     Atom                 Charge (a.u.)
  ----------------------------------------
      1 C                    -1.023372
      2 C                     0.348552
      3 C                     1.038725
      4 C                    -1.228282
      5 C                    -0.531998
      6 C                     0.645536
      7 O                    -0.304093
      8 O                    -0.332837
      9 C                    -0.204598
     10 C                    -0.257031
     11 H                     0.199936
     12 H                     0.140549
     13 H                     0.152038
     14 C                     0.367303
     15 C                    -1.138336
     16 C                     0.629817
     17 C                    -0.480494
     18 C                    -0.129624
     19 C                    -0.603547
     20 C                     0.353355
     21 C                    -0.340364
     22 C                    -0.216423
     23 C                    -0.553162
     24 C                     0.251875
     25 C                    -0.250934
     26 C                    -0.240960
     27 C                    -0.487027
     28 C                    -0.475766
     29 C                    -0.163728
     30 C                    -0.526217
     31 C                     0.192305
     32 C                    -0.204143
     33 C                    -0.184503
     34 C                    -0.542131
     35 C                     0.206873
     36 C                    -0.207225
     37 C                    -0.178944
     38 C                    -0.541037
     39 C                     0.245622
     40 C                    -0.242452
     41 C                    -0.133836
     42 C                    -0.605639
     43 C                     0.310780
     44 C                    -0.500159
     45 C                    -0.486361
     46 C                    -0.491431
     47 C                    -0.485265
     48 C                    -0.310680
     49 C                    -0.028080
     50 C                    -0.614370
     51 C                     0.375702
     52 C                    -0.487398
     53 C                    -0.487501
     54 C                    -0.325834
     55 C                    -0.326597
     56 C                     0.612632
     57 C                    -0.469925
     58 C                    -0.758710
     59 H                     0.170424
     60 H                     0.262654
     61 H                     0.151669
     62 H                     0.135682
     63 H                     0.149138
     64 H                     0.139895
     65 H                     0.054884
     66 H                     0.190261
     67 H                     0.147503
     68 H                     0.148450
     69 H                     0.098887
     70 H                     0.127749
     71 H                     0.176166
     72 H                     0.134162
     73 H                     0.161876
     74 H                     0.178861
     75 H                     0.190380
     76 H                     0.169668
     77 H                     0.150440
     78 H                     0.173729
     79 H                     0.189579
     80 H                     0.153112
     81 H                     0.175060
     82 H                     0.184425
     83 H                     0.089661
     84 H                     0.122493
     85 H                     0.183072
     86 H                     0.134692
     87 H                     0.161212
     88 H                     0.081959
     89 H                     0.123451
     90 H                     0.181792
     91 H                     0.135517
     92 H                     0.160963
     93 H                     0.083395
     94 H                     0.124047
     95 H                     0.182811
     96 H                     0.137000
     97 H                     0.157755
     98 H                     0.083494
     99 H                     0.123769
    100 H                     0.179989
    101 H                     0.157218
    102 H                     0.175962
    103 H                     0.184485
    104 H                     0.160259
    105 H                     0.175485
    106 H                     0.184023
    107 H                     0.158664
    108 H                     0.175510
    109 H                     0.184583
    110 H                     0.159375
    111 H                     0.175062
    112 H                     0.186149
    113 H                     0.136957
    114 H                     0.157511
    115 H                     0.077420
    116 H                     0.121386
    117 H                     0.190432
    118 H                     0.164593
    119 H                     0.167830
    120 H                     0.190812
    121 H                     0.149070
    122 H                     0.160821
    123 H                     0.160004
    124 H                     0.079411
    125 H                     0.181478
    126 H                     0.156436
    127 H                     0.171629
    128 H                     0.197414
    129 H                     0.153691
    130 C                    -0.185080
    131 H                     0.159493
    132 C                    -0.355366
    133 C                     0.086497
    134 C                    -0.444010
    135 C                    -0.446461
    136 H                     0.164003
    137 H                     0.071233
    138 H                     0.147030
    139 H                     0.182789
    140 H                     0.162503
    141 H                     0.170921
    142 H                     0.168622
    143 H                     0.166703
    144 H                     0.164930
    145 O                    -0.238241
    146 H                     0.250134
    147 H                     0.241047
    148 H                     0.167231
    149 N                    -0.258473
    150 H                     0.357487
    151 H                     0.341028
  ----------------------------------------
  Sum of atomic charges =     0.000000

                    Cartesian Multipole Moments
 -----------------------------------------------------------------
    Charge (ESU x 10^10)
                 0.0000
    Dipole Moment (Debye)
         X      -1.0862      Y       0.3689      Z       2.0358
       Tot       2.3367
    Quadrupole Moments (Debye-Ang)
        XX    -385.4978     XY     -11.8927     YY    -375.2713
        XZ      16.2792     YZ      -8.1618     ZZ    -397.6058

 Total job time:  39628.57s(wall), 99315.07s(cpu)
        *  Thank you very much for using Q-Chem.  Have a nice day.  *
