 Gaussian 16, Revision A.03,
 Gaussian 16:  ES64L-G16RevA.03 25-Dec-2016

 ----------------------------------------------------------------
 #P UB3LYP/6-311++G(d,p) SCRF=(PCM,Solvent=n,n-DiMethylFormamide)
 ----------------------------------------------------------------

 -------
 Reduced
 -------
 Symbolic Z-matrix:
 Charge = -2 Multiplicity = 1

                         Standard orientation:
 ---------------------------------------------------------------------
 Center     Atomic      Atomic             Coordinates (Angstroms)
 Number     Number       Type             X           Y           Z
 ---------------------------------------------------------------------
      1          6           0        2.845414   -1.169414    0.011023
      2          6           0        1.405764   -0.719564   -0.012512
      3          6           0        0.364418   -1.648487    0.005905
      4          6           0       -1.023928   -1.303586    0.007893
      5          8           0       -1.971936   -2.196615   -0.010197
      6          6           0       -1.279482    0.116578    0.007659
      7          6           0       -0.240249    1.064526   -0.016214
      8          6           0       -0.548181    2.544585    0.001909
      9          6           0        1.152149    0.694844   -0.014367
     10          8           0        2.121131    1.566715   -0.003055
     11          6           0       -2.726141    0.553317    0.009779
     12          1           0        3.385446   -0.744747    0.873594
     13          1           0        2.922513   -2.263234    0.064895
     14          1           0        3.395684   -0.820136   -0.872296
     15          1           0        0.597309   -2.714552   -0.018090
     16          1           0       -1.274689    2.833207   -0.770542
     17          1           0        0.386079    3.090619   -0.153650
     18          1           0       -0.976253    2.880421    0.966207
     19          1           0       -3.031975    1.028805   -0.942566
     20          1           0       -3.349449   -0.333679    0.152746
     21          1           0       -2.946803    1.285691    0.799267
 ---------------------------------------------------------------------

 SCF Done:  E(UB3LYP) =  -499.796898113     A.U. after   17 cycles

 The electronic state is 1-A.
 Alpha  occ. eigenvalues --  -19.00262 -19.00182 -10.15271 -10.14952 -10.13510
 Alpha  occ. eigenvalues --  -10.12979 -10.12972 -10.11636 -10.11536 -10.11369
 Alpha  occ. eigenvalues --  -10.10595  -0.91428  -0.91077  -0.77563  -0.73998
 Alpha  occ. eigenvalues --   -0.68829  -0.67111  -0.61693  -0.59363  -0.51639
 Alpha  occ. eigenvalues --   -0.49318  -0.44500  -0.40510  -0.39854  -0.38281
 Alpha  occ. eigenvalues --   -0.37798  -0.37327  -0.36580  -0.35436  -0.34419
 Alpha  occ. eigenvalues --   -0.33958  -0.33215  -0.31878  -0.29649  -0.29294
 Alpha  occ. eigenvalues --   -0.29081  -0.20899  -0.18644  -0.18550  -0.17814
 Alpha  occ. eigenvalues --   -0.10329
 Alpha virt. eigenvalues --   -0.00084   0.01044   0.01830   0.03013   0.03274
 Alpha virt. eigenvalues --    0.03716   0.03897   0.04815   0.05158   0.06548
 Alpha virt. eigenvalues --    0.06846   0.06874   0.07748   0.07894   0.09051

  Beta  occ. eigenvalues --  -19.00262 -19.00182 -10.15271 -10.14952 -10.13510
  Beta  occ. eigenvalues --  -10.12979 -10.12972 -10.11636 -10.11536 -10.11369
  Beta  occ. eigenvalues --  -10.10595  -0.91428  -0.91077  -0.77563  -0.73998
  Beta  occ. eigenvalues --   -0.68829  -0.67111  -0.61693  -0.59363  -0.51639
  Beta  occ. eigenvalues --   -0.49318  -0.44500  -0.40510  -0.39854  -0.38281
  Beta  occ. eigenvalues --   -0.37798  -0.37327  -0.36580  -0.35436  -0.34419
  Beta  occ. eigenvalues --   -0.33958  -0.33215  -0.31878  -0.29649  -0.29294
  Beta  occ. eigenvalues --   -0.29081  -0.20899  -0.18644  -0.18550  -0.17814
  Beta  occ. eigenvalues --   -0.10329
  Beta virt. eigenvalues --   -0.00084   0.01044   0.01830   0.03013   0.03274
  Beta virt. eigenvalues --    0.03716   0.03897   0.04815   0.05158   0.06548
  Beta virt. eigenvalues --    0.06846   0.06874   0.07748   0.07894   0.09051

 Mulliken charges and spin densities:
               1          2
     1  C   -0.355120  -0.000000
     2  C    0.972878   0.000000
     3  C   -0.573136  -0.000000
     4  C   -0.926736   0.000000
     5  O   -0.745594  -0.000000
     6  C    0.789972   0.000000
     7  C    0.365618   0.000000
     8  C   -0.641285  -0.000000
     9  C   -0.911569  -0.000000
    10  O   -0.735058   0.000000
    11  C   -0.542708  -0.000000
    12  H    0.131674  -0.000000
    13  H    0.127368   0.000000
    14  H    0.131529   0.000000
    15  H    0.081767  -0.000000
    16  H    0.119870  -0.000000
    17  H    0.169466   0.000000
    18  H    0.127028  -0.000000
    19  H    0.128344   0.000000
    20  H    0.164542  -0.000000
    21  H    0.121148   0.000000
 Sum of Mulliken charges =  -2.00000   0.00000

 Dipole moment (field-independent basis, Debye):
    X=             -0.5108    Y=              3.2437    Z=              0.0368  Tot=              3.2839
 Quadrupole moment (field-independent basis, Debye-Ang):
   XX=           -113.6207   YY=           -109.2465   ZZ=            -76.1915
   XY=            -29.2888   XZ=             -0.0688   YZ=              0.0082

 Normal termination of Gaussian 16 at Sun Jan 21 07:42:57 2024.
