 Q-Chem 5.4, Q-Chem, Inc., Pleasanton, CA (2021)
 Q-Chem 5.4.0 for Intel X86 EM64T Linux

User input:
--------------------------------------------------------------
$molecule
-2 1
C                 -3.9310510000      0.9424630000      0.9507710000
C                 -3.2754590000     -0.0774980000     -0.0115700000
C                 -3.4785900000     -1.4861640000      0.5763000000
C                 -4.0159300000     -0.0265640000     -1.3717900000
C                 -1.7880220000      0.2690260000     -0.2086280000
C                 -1.4298070000      1.5362180000     -0.7672240000
C                 -0.1098580000      1.8844980000     -0.9504900000
C                  0.9565880000      1.0218100000     -0.6003000000
C                  2.3262590000      1.4474090000     -0.8226000000
O                  2.6232780000      2.5818990000     -1.3316610000
C                  3.3343820000      0.4848480000     -0.4160390000
C                  4.7047220000      0.8028860000     -0.5855730000
C                  5.7117660000     -0.0673360000     -0.2202710000
C                  5.3788860000     -1.3288480000      0.3457950000
C                  4.0530450000     -1.6675990000      0.5251740000
C                  2.9956240000     -0.7967930000      0.1619120000
C                  1.6231430000     -1.2178610000      0.3826900000
O                  1.3271850000     -2.3511320000      0.8945640000
C                  0.6164770000     -0.2537450000     -0.0249750000
C                 -0.7555760000     -0.5813290000      0.1409460000
H                 -4.9995700000      0.7349420000      1.0803280000
H                 -3.4499610000      0.9019560000      1.9333740000
H                 -3.8307560000      1.9652210000      0.5767400000
H                 -3.0443700000     -2.2536200000     -0.0706190000
H                 -4.5490710000     -1.6971740000      0.6819770000
H                 -3.0137900000     -1.5811480000      1.5616880000
H                 -3.9488620000      0.9642470000     -1.8296570000
H                 -5.0803680000     -0.2695620000     -1.2503140000
H                 -3.5772470000     -0.7456060000     -2.0707780000
H                 -2.2052510000      2.2392080000     -1.0602770000
H                  0.1598870000      2.8464380000     -1.3752430000
H                  4.9256900000      1.7726620000     -1.0205850000
H                  6.7547830000      0.2081450000     -0.3644670000
H                  6.1664820000     -2.0219120000      0.6353850000
H                  3.7666670000     -2.6223390000      0.9551350000
H                 -0.9413220000     -1.5576480000      0.5717700000
$end
$rem
MAX_SCF_CYCLES=200
BASIS  =  6-311++G(d,p)
GUI  =  2
JOB_TYPE  =  SP
METHOD  =  B3LYP
SOLVENT_METHOD = COSMO
$end
$solvent
dielectric 37.219
opticaldielectric 1.43
$end

--------------------------------------------------------------

             Standard Nuclear Orientation (Angstroms)
    I     Atom           X                Y                Z
 ----------------------------------------------------------------
    1      C      -4.6268413938     0.2314469609     1.2808960326
    2      C      -3.9281368211    -0.2897399592     0.0016784488
    3      C      -4.0836028765    -1.8212746325    -0.0360719111
    4      C      -4.6609880603     0.2859161386    -1.2363195886
    5      C      -2.4530678905     0.1523860075    -0.0070305378
    6      C      -2.1376551966     1.5475668381     0.0033773785
    7      C      -0.8301140992     1.9805631111     0.0044972633
    8      C       0.2647684733     1.0831504227    -0.0028042087
    9      C       1.6194334254     1.6041384458    -0.0049937654
   10      O       1.8782078135     2.8561234149    -0.0043600490
   11      C       2.6593057257     0.5908336148    -0.0024586059
   12      C       4.0182161381     0.9921789458     0.0000068685
   13      C       5.0539128284     0.0799306608     0.0022273571
   14      C       4.7635611945    -1.3123149000     0.0014761995
   15      C       3.4498100707    -1.7352103190     0.0005423112
   16      C       2.3637362643    -0.8248016948    -0.0006262244
   17      C       1.0061079463    -1.3411194224     0.0019497870
   18      O       0.7483307993    -2.5930995390     0.0044031627
   19      C      -0.0323578176    -0.3259015194    -0.0009339428
   20      C      -1.3926078992    -0.7345537743    -0.0106055537
   21      H      -5.6879074864    -0.0434639098     1.2929623252
   22      H      -4.1510833009    -0.1894413725     2.1725822491
   23      H      -4.5614690329     1.3205485532     1.3555711859
   24      H      -3.6174116974    -2.2465597898    -0.9292898199
   25      H      -5.1463448467    -2.0897446772    -0.0472861718
   26      H      -3.6221541039    -2.2935568011     0.8357452109
   27      H      -4.6271013155     1.3788276068    -1.2519066093
   28      H      -5.7166281352    -0.0179989322    -1.2459302275
   29      H      -4.1917602201    -0.0738818515    -2.1574162375
   30      H      -2.9362853430     2.2848439421     0.0042487165
   31      H      -0.5928545985     3.0398846487     0.0116978852
   32      H       4.2065138980     2.0613242776    -0.0000096213
   33      H       6.0871111575     0.4220790264     0.0037890121
   34      H       5.5739956231    -2.0387469445     0.0017150673
   35      H       3.1956319433    -2.7905779092     0.0006728780
   36      H      -1.5454415159    -1.8068964196    -0.0163346019
 ----------------------------------------------------------------

   40    -846.2279874822      8.86e-06  Convergence criterion met
 Total energy in the final basis set =     -846.2279874822
    6    -846.4958783728      3.18e-06  Convergence criterion met
 Total energy in the final basis set =     -846.4958783728

                    Orbital Energies (a.u.)
 --------------------------------------------------------------

 Alpha MOs
 -- Occupied --
-19.0262 -19.0255 -10.1767 -10.1766 -10.1756 -10.1546 -10.1489 -10.1485
-10.1467 -10.1466 -10.1465 -10.1463 -10.1461 -10.1454 -10.1446 -10.1410
-10.1368 -10.1364 -10.1357 -10.1350  -0.9486  -0.9456  -0.8359  -0.8250
 -0.7971  -0.7473  -0.7238  -0.7208  -0.7036  -0.6744  -0.6738  -0.6346
 -0.6107  -0.5902  -0.5603  -0.5402  -0.5256  -0.5024  -0.4861  -0.4520
 -0.4422  -0.4353  -0.4280  -0.4263  -0.4124  -0.4047  -0.3990  -0.3889
 -0.3870  -0.3794  -0.3752  -0.3735  -0.3637  -0.3606  -0.3548  -0.3388
 -0.3369  -0.3323  -0.3252  -0.3218  -0.3100  -0.3038  -0.2991  -0.2955
 -0.2353  -0.2287  -0.2267  -0.2136  -0.2091  -0.2005  -0.1071

          Ground-State Mulliken Net Atomic Charges

     Atom                 Charge (a.u.)
  ----------------------------------------
      1 C                    -0.691134
      2 C                     0.603041
      3 C                    -0.542561
      4 C                    -0.689696
      5 C                     0.166356
      6 C                    -0.656597
      7 C                    -0.186518
      8 C                     0.191992
      9 C                    -0.653394
     10 O                    -0.690643
     11 C                     0.170162
     12 C                     0.020763
     13 C                    -0.528117
     14 C                    -0.548097
     15 C                     0.007393
     16 C                     0.363131
     17 C                    -0.511113
     18 O                    -0.694844
     19 C                     0.357592
     20 C                     0.001928
     21 H                     0.163445
     22 H                     0.148939
     23 H                     0.154896
     24 H                     0.143042
     25 H                     0.172272
     26 H                     0.143236
     27 H                     0.151207
     28 H                     0.164525
     29 H                     0.150112
     30 H                     0.159148
     31 H                     0.167792
     32 H                     0.155066
     33 H                     0.176909
     34 H                     0.178701
     35 H                     0.155051
     36 H                     0.126013
  ----------------------------------------
  Sum of atomic charges =    -2.000002

                    Cartesian Multipole Moments
 -----------------------------------------------------------------
    Charge (ESU x 10^10)
                -9.6064
    Dipole Moment (Debye)
         X     -13.2692      Y      -1.1682      Z       0.0150
       Tot      13.3205
    Quadrupole Moments (Debye-Ang)
        XX    -160.9333     XY      -9.8742     YY    -181.6856
        XZ       0.0020     YZ       0.1251     ZZ    -132.9875

 Total job time:  351.80s(wall), 2393.70s(cpu)
        *  Thank you very much for using Q-Chem.  Have a nice day.  *
