 Gaussian 16, Revision A.03,
 Gaussian 16:  ES64L-G16RevA.03 25-Dec-2016

 --------------------------------------
 #P UB3LYP/6-311++G(d,p) nosym opt freq
 --------------------------------------

 -------
 Radical
 -------
 Symbolic Z-matrix:
 Charge = -1 Multiplicity = 2

 SCF Done:  E(UB3LYP) =  -649.885932524     A.U. after   23 cycles
 SCF Done:  E(UB3LYP) =  -649.893997867     A.U. after   18 cycles
 SCF Done:  E(UB3LYP) =  -649.894720508     A.U. after   17 cycles
 SCF Done:  E(UB3LYP) =  -649.894778905     A.U. after   15 cycles
 SCF Done:  E(UB3LYP) =  -649.894781742     A.U. after   14 cycles
 Optimization completed.
    -- Stationary point found.
 Normal termination of Gaussian 16 at Thu Dec 28 20:03:54 2023.

 ----------------------------------------------------------------------
 #P Geom=AllCheck Guess=TCheck SCRF=Check GenChk UB3LYP/6-311++G(d,p) F
 req
 ----------------------------------------------------------------------

 Structure from the checkpoint file:  "308-rad.chk"
 -------
 Radical
 -------
 Charge = -1 Multiplicity = 2

                          Input orientation:
 ---------------------------------------------------------------------
 Center     Atomic      Atomic             Coordinates (Angstroms)
 Number     Number       Type             X           Y           Z
 ---------------------------------------------------------------------
      1          6           0       -4.069465    3.596008    1.537286
      2          6           0       -4.555434    3.820550    0.266696
      3          6           0       -3.960680    3.171945   -0.826879
      4          6           0       -2.887919    2.306134   -0.644991
      5          6           0       -2.358757    2.049386    0.650820
      6          6           0       -2.983781    2.723595    1.748198
      7          6           0       -2.516758    2.530919    3.133693
      8          6           0       -1.410567    1.635651    3.301727
      9          6           0       -0.793461    0.976654    2.264140
     10          6           0       -1.220657    1.136608    0.882687
     11          8           0       -3.064539    3.123279    4.105185
     12          8           0       -0.628661    0.515360   -0.035739
     13          1           0       -4.497044    4.074432    2.409945
     14          1           0       -4.335905    3.341408   -1.834841
     15          8           0       -2.336275    1.692519   -1.743382
     16          6           0        0.366516    0.047504    2.505715
     17          1           0       -5.392350    4.492830    0.102605
     18          1           0       -1.065266    1.492996    4.323323
     19          1           0       -2.831073    1.994687   -2.512715
     20          1           0        0.609971   -0.005006    3.570720
     21          1           0        1.253694    0.375127    1.952885
     22          1           0        0.144352   -0.961115    2.140543
 ---------------------------------------------------------------------

 SCF Done:  E(UB3LYP) =  -649.894781742     A.U. after    1 cycles

 Alpha  occ. eigenvalues --  -19.03152 -18.93152 -18.93099 -10.11565 -10.08370
 Alpha  occ. eigenvalues --  -10.07980 -10.05472 -10.05255 -10.04725 -10.04342
 Alpha  occ. eigenvalues --  -10.03792 -10.03733 -10.03715 -10.02381  -0.94358
 Alpha  occ. eigenvalues --   -0.85764  -0.85350  -0.72796  -0.67882  -0.63073
 Alpha  occ. eigenvalues --   -0.61752  -0.57310  -0.52929  -0.50333  -0.47026
 Alpha  occ. eigenvalues --   -0.44529  -0.39540  -0.38354  -0.35096  -0.33930
 Alpha  occ. eigenvalues --   -0.32501  -0.30476  -0.30224  -0.28594  -0.27899
 Alpha  occ. eigenvalues --   -0.26287  -0.26103  -0.25301  -0.25265  -0.24077
 Alpha  occ. eigenvalues --   -0.22617  -0.22171  -0.21793  -0.20579  -0.13575
 Alpha  occ. eigenvalues --   -0.12010  -0.10668  -0.09852  -0.09067  -0.01105
 Alpha virt. eigenvalues --    0.07628   0.09529   0.09566   0.10302   0.10795
 Alpha virt. eigenvalues --    0.11915   0.12120   0.13661   0.13683   0.14494
 Alpha virt. eigenvalues --    0.16018   0.16349   0.17449   0.17823   0.18043

  Beta  occ. eigenvalues --  -19.03149 -18.92487 -18.92434 -10.11582 -10.08266
  Beta  occ. eigenvalues --  -10.07857 -10.05419 -10.05191 -10.04669 -10.04244
  Beta  occ. eigenvalues --  -10.03751 -10.03721 -10.03608 -10.02291  -0.94350
  Beta  occ. eigenvalues --   -0.84633  -0.84189  -0.72594  -0.67394  -0.62864
  Beta  occ. eigenvalues --   -0.61573  -0.57015  -0.52286  -0.50141  -0.46745
  Beta  occ. eigenvalues --   -0.44339  -0.39301  -0.38166  -0.34921  -0.33769
  Beta  occ. eigenvalues --   -0.32367  -0.30219  -0.29661  -0.28428  -0.27622
  Beta  occ. eigenvalues --   -0.26229  -0.25796  -0.24903  -0.24000  -0.23966
  Beta  occ. eigenvalues --   -0.21957  -0.21501  -0.20439  -0.19569  -0.11555
  Beta  occ. eigenvalues --   -0.10525  -0.09898  -0.09230  -0.08452
  Beta virt. eigenvalues --    0.05435   0.07626   0.09521   0.09560   0.11018
  Beta virt. eigenvalues --    0.11910   0.11911   0.12122   0.13664   0.13830
  Beta virt. eigenvalues --    0.14487   0.16083   0.16369   0.17447   0.17822

 Mulliken charges and spin densities:
               1          2
     1  C   -0.085796   0.018191
     2  C   -0.283480   0.044411
     3  C   -0.205804   0.048146
     4  C    0.110682   0.016540
     5  C   -0.118768   0.016433
     6  C    0.847011   0.084649
     7  C   -1.096046   0.047866
     8  C   -0.273773   0.073685
     9  C    0.816953   0.110063
    10  C   -0.541568   0.049102
    11  O   -0.399909   0.242709
    12  O   -0.359859   0.252558
    13  H    0.148233  -0.002485
    14  H    0.064894  -0.004780
    15  O   -0.169699  -0.000518
    16  C   -0.356158   0.001864
    17  H    0.130751  -0.003064
    18  H    0.107105  -0.007763
    19  H    0.231449  -0.000617
    20  H    0.125176  -0.000078
    21  H    0.154288   0.006551
    22  H    0.154318   0.006538
 Sum of Mulliken charges =  -1.00000   1.00000

 Dipole moment (field-independent basis, Debye):
    X=              9.3255    Y=             -9.0840    Z=             -9.5363  Tot=             16.1377
 Quadrupole moment (field-independent basis, Debye-Ang):
   XX=           -112.5558   YY=           -112.8727   ZZ=           -120.8869
   XY=             25.4717   XZ=             32.0018   YZ=            -31.3026

  Exact polarizability: 164.973 -65.717 137.892  17.130   2.338 200.388
 Approx polarizability: 256.480-106.266 221.185  -0.506  29.992 338.252

                      1                      2                      3
                      A                      A                      A
 Frequencies --     65.2523                73.7889               127.2109
 Red. masses --      5.8849                 5.4783                 1.0841
 Frc consts  --      0.0148                 0.0176                 0.0103
 IR Inten    --      8.1745                 4.1987                 0.2383

                      4                      5                      6
                      A                      A                      A
 Frequencies --    167.5903               206.2145               234.8182
 Red. masses --      5.0236                 3.7675                 4.6275
 Frc consts  --      0.0831                 0.0944                 0.1503
 IR Inten    --      0.1957                 0.3090                 7.8618

                      7                      8                      9
                      A                      A                      A
 Frequencies --    250.9924               308.8340               314.9680
 Red. masses --      2.5103                 4.0128                 1.4822
 Frc consts  --      0.0932                 0.2255                 0.0866
 IR Inten    --     18.4214                 0.1523                53.8744

                     10                     11                     12
                      A                      A                      A
 Frequencies --    362.0805               368.3457               382.5074
 Red. masses --      9.1573                 4.2374                10.3336
 Frc consts  --      0.7073                 0.3387                 0.8908
 IR Inten    --      3.5817                 5.4991                 4.2744

                     13                     14                     15
                      A                      A                      A
 Frequencies --    412.2134               477.0777               482.9802
 Red. masses --      6.0038                 4.2206                 6.9086
 Frc consts  --      0.6011                 0.5660                 0.9495
 IR Inten    --      4.1513                 0.1763                 1.8814

                     16                     17                     18
                      A                      A                      A
 Frequencies --    526.9643               540.6395               576.7163
 Red. masses --      7.6424                 4.3705                 5.6787
 Frc consts  --      1.2504                 0.7527                 1.1128
 IR Inten    --      7.4353                 1.4485                 3.4330

                     19                     20                     21
                      A                      A                      A
 Frequencies --    662.2879               665.8705               699.5930
 Red. masses --      3.3943                 4.3127                 3.2710
 Frc consts  --      0.8772                 1.1266                 0.9432
 IR Inten    --     15.4903                 1.1464                 7.2080

                     22                     23                     24
                      A                      A                      A
 Frequencies --    708.3459               744.5865               789.9540
 Red. masses --      6.5532                 1.6335                 6.0771
 Frc consts  --      1.9373                 0.5336                 2.2344
 IR Inten    --     27.2850                43.7034                 7.3182

                     25                     26                     27
                      A                      A                      A
 Frequencies --    797.7141               835.8424               873.2995
 Red. masses --      4.8253                 1.4057                 1.5092
 Frc consts  --      1.8091                 0.5786                 0.6781
 IR Inten    --      1.5086                 4.7114                19.4452

                     28                     29                     30
                      A                      A                      A
 Frequencies --    904.1566               957.6869               989.5875
 Red. masses --      5.6302                 1.2626                 5.4063
 Frc consts  --      2.7118                 0.6823                 3.1193
 IR Inten    --     27.0436                 1.2286                56.3875

                     31                     32                     33
                      A                      A                      A
 Frequencies --   1022.4598              1046.7848              1087.0000
 Red. masses --      1.5412                 1.4869                 2.1464
 Frc consts  --      0.9493                 0.9599                 1.4942
 IR Inten    --     27.9943                 0.9099                36.3928

                     34                     35                     36
                      A                      A                      A
 Frequencies --   1152.7125              1158.5757              1172.8874
 Red. masses --      1.8721                 2.1401                 1.9099
 Frc consts  --      1.4656                 1.6925                 1.5480
 IR Inten    --     31.6264                14.6944                77.8386

                     37                     38                     39
                      A                      A                      A
 Frequencies --   1207.8557              1226.7885              1273.7188
 Red. masses --      2.5129                 1.8621                 3.1531
 Frc consts  --      2.1600                 1.6512                 3.0139
 IR Inten    --     20.3677                 1.2176                63.8122

                     40                     41                     42
                      A                      A                      A
 Frequencies --   1296.9817              1349.9847              1392.8941
 Red. masses --      2.0004                 5.5033                 1.4052
 Frc consts  --      1.9826                 5.9093                 1.6062
 IR Inten    --     20.5063                 5.0116                21.8396

                     43                     44                     45
                      A                      A                      A
 Frequencies --   1406.6478              1453.7681              1462.7700
 Red. masses --      2.9970                 3.4100                 1.0468
 Frc consts  --      3.4938                 4.2461                 1.3197
 IR Inten    --     21.7008                50.1460                 4.2780

                     46                     47                     48
                      A                      A                      A
 Frequencies --   1469.2514              1478.6861              1518.6637
 Red. masses --      2.7470                 1.2279                 5.5471
 Frc consts  --      3.4938                 1.5819                 7.5377
 IR Inten    --    145.6906                 5.8205                40.3589

                     49                     50                     51
                      A                      A                      A
 Frequencies --   1537.9166              1563.2277              1622.9042
 Red. masses --      5.4702                 4.8362                 6.0504
 Frc consts  --      7.6229                 6.9630                 9.3890
 IR Inten    --    466.4090               181.2112                11.6154

                     52                     53                     54
                      A                      A                      A
 Frequencies --   1627.8533              3006.2288              3047.6801
 Red. masses --      7.1423                 1.0343                 1.0987
 Frc consts  --     11.1512                 5.5072                 6.0125
 IR Inten    --      1.2925               100.8057                34.4119

                     55                     56                     57
                      A                      A                      A
 Frequencies --   3077.7045              3109.5224              3129.8326
 Red. masses --      1.1024                 1.0867                 1.0886
 Frc consts  --      6.1524                 6.1908                 6.2832
 IR Inten    --     25.8897                42.9428                43.9953

                     58                     59                     60
                      A                      A                      A
 Frequencies --   3147.6151              3189.8843              3806.3527
 Red. masses --      1.0905                 1.0920                 1.0653
 Frc consts  --      6.3655                 6.5464                 9.0941
 IR Inten    --     41.0369                14.4273                12.3751

 - Thermochemistry -
 -------------------
 Temperature   298.150 Kelvin.  Pressure   1.00000 Atm.
 Atom     1 has atomic number  6 and mass  12.00000

 Molecular mass:   188.04734 amu.
 Principal axes and moments of inertia in atomic units:
                           1         2         3
     Eigenvalues --  1887.251062453.228834329.49785
           X            0.64040  -0.43162   0.63530
           Y           -0.44353   0.46747   0.76469
           Z            0.62703   0.77148  -0.10793
 This molecule is an asymmetric top.
 Rotational symmetry number  1.
 Warning -- assumption of classical behavior for rotation
           may cause significant error
 Rotational temperatures (Kelvin)      0.04589     0.03531     0.02001
 Rotational constants (GHZ):           0.95628     0.73566     0.41685
 Zero-point vibrational energy     422002.3 (Joules/Mol)
                                  100.86097 (Kcal/Mol)
 Warning -- explicit consideration of  18 degrees of freedom as
           vibrations may cause significant error
 Vibrational temperatures:     93.88   106.17   183.03   241.13   296.70
          (Kelvin)            337.85   361.12   444.34   453.17   520.95
                              529.97   550.34   593.08   686.41   694.90
                              758.18   777.86   829.77   952.88   958.04
                             1006.56  1019.15  1071.29  1136.57  1147.73
                             1202.59  1256.48  1300.88  1377.90  1423.80
                             1471.09  1506.09  1563.95  1658.50  1666.93
                             1687.52  1737.83  1765.07  1832.60  1866.07
                             1942.33  2004.06  2023.85  2091.65  2104.60
                             2113.93  2127.50  2185.02  2212.72  2249.14
                             2335.00  2342.12  4325.29  4384.93  4428.13
                             4473.91  4503.13  4528.72  4589.53  5476.49

 Zero-point correction=                           0.160732 (Hartree/Particle)
 Thermal correction to Energy=                    0.172440
 Thermal correction to Enthalpy=                  0.173384
 Thermal correction to Gibbs Free Energy=         0.122526
 Sum of electronic and zero-point Energies=           -649.734050
 Sum of electronic and thermal Energies=              -649.722341
 Sum of electronic and thermal Enthalpies=            -649.721397
 Sum of electronic and thermal Free Energies=         -649.772256

                     E (Thermal)             CV                S
                      KCal/Mol        Cal/Mol-Kelvin    Cal/Mol-Kelvin
 Total                  108.208             45.733            107.041
 Electronic               0.000              0.000              1.377
 Translational            0.889              2.981             41.600
 Rotational               0.889              2.981             31.372
 Vibrational            106.430             39.771             32.691
 Vibration     1          0.597              1.971              4.292
 Vibration     2          0.599              1.966              4.050
 Vibration     3          0.611              1.926              2.988
 Vibration     4          0.624              1.882              2.462
 Vibration     5          0.641              1.831              2.077
 Vibration     6          0.655              1.788              1.842
 Vibration     7          0.663              1.761              1.724
 Vibration     8          0.698              1.657              1.369
 Vibration     9          0.702              1.645              1.336
 Vibration    10          0.736              1.550              1.113
 Vibration    11          0.741              1.537              1.087
 Vibration    12          0.752              1.507              1.029
 Vibration    13          0.776              1.444              0.919
 Vibration    14          0.834              1.301              0.718
 Vibration    15          0.839              1.288              0.702
 Vibration    16          0.882              1.190              0.594
 Vibration    17          0.896              1.160              0.564
 Vibration    18          0.933              1.082              0.491

                           ! Non-Optimized Parameters !
 Normal termination of Gaussian 16 at Thu Dec 28 20:38:40 2023.
