 Gaussian 16, Revision A.03,
 Gaussian 16:  ES64L-G16RevA.03 25-Dec-2016

 ----------------------------------------------------------------
 #P UB3LYP/6-311++G(d,p) SCRF=(PCM,Solvent=n,n-DiMethylFormamide)
 ----------------------------------------------------------------

 ------------------
 Radical PCM in DMF
 ------------------
 Symbolic Z-matrix:
 Charge = -1 Multiplicity = 2

                         Standard orientation:
 ---------------------------------------------------------------------
 Center     Atomic      Atomic             Coordinates (Angstroms)
 Number     Number       Type             X           Y           Z
 ---------------------------------------------------------------------
      1          8           0       -1.296056   -2.320211    0.590703
      2          6           0       -0.722355   -1.232139    0.308847
      3          6           0        0.719667   -1.140333    0.300714
      4          6           0        1.444491   -0.006343    0.006613
      5          6           0        0.722363    1.232356   -0.308461
      6          8           0        1.296076    2.320467   -0.590128
      7          6           0       -0.719653    1.140510   -0.300414
      8          6           0       -1.444505    0.006509   -0.006337
      9          6           0       -2.926238    0.047230   -0.001282
     10          6           0       -3.611259    1.211194    0.394268
     11          6           0       -5.001534    1.283966    0.366363
     12          6           0       -5.754994    0.187390   -0.051980
     13          6           0       -5.093841   -0.980565   -0.433602
     14          6           0       -3.703572   -1.055145   -0.404078
     15          6           0        2.926257   -0.047176    0.001305
     16          6           0        3.611053   -1.211171   -0.394560
     17          6           0        5.001329   -1.284104   -0.366947
     18          6           0        5.754980   -0.187680    0.051432
     19          6           0        5.094028    0.980280    0.433413
     20          6           0        3.703762    1.055009    0.404165
     21          1           0        1.226636   -2.059326    0.577672
     22          1           0       -1.226602    2.059486   -0.577485
     23          1           0       -3.041525    2.064193    0.744690
     24          1           0       -5.497290    2.196820    0.682518
     25          1           0       -6.838963    0.239239   -0.071375
     26          1           0       -5.666104   -1.845724   -0.754790
     27          1           0       -3.200012   -1.971553   -0.676267
     28          1           0        3.041096   -2.064043   -0.744908
     29          1           0        5.496916   -2.196958   -0.683369
     30          1           0        6.838946   -0.239644    0.070646
     31          1           0        5.666471    1.845293    0.754668
     32          1           0        3.200387    1.971447    0.676647
 ---------------------------------------------------------------------

 SCF Done:  E(UB3LYP) =  -843.946685533     A.U. after   20 cycles

 The electronic state is 2-A.
 Alpha  occ. eigenvalues --  -19.07759 -19.07759 -10.22347 -10.22346 -10.18489
 Alpha  occ. eigenvalues --  -10.18489 -10.17831 -10.17830 -10.17482 -10.17482
 Alpha  occ. eigenvalues --  -10.17419 -10.17419 -10.17337 -10.17337 -10.17334
 Alpha  occ. eigenvalues --  -10.17334 -10.16941 -10.16941 -10.16265 -10.16264
 Alpha  occ. eigenvalues --   -1.00268  -1.00023  -0.86266  -0.86046  -0.82552
 Alpha  occ. eigenvalues --   -0.78696  -0.74961  -0.74663  -0.74641  -0.71653
 Alpha  occ. eigenvalues --   -0.68144  -0.63305  -0.61295  -0.60557  -0.59337
 Alpha  occ. eigenvalues --   -0.57821  -0.55696  -0.51879  -0.50680  -0.48480
 Alpha  occ. eigenvalues --   -0.47111  -0.46535  -0.45047  -0.44277  -0.44190
 Alpha  occ. eigenvalues --   -0.43440  -0.42184  -0.41945  -0.41913  -0.40401
 Alpha  occ. eigenvalues --   -0.40129  -0.39159  -0.38309  -0.36968  -0.36889
 Alpha  occ. eigenvalues --   -0.36252  -0.35154  -0.34879  -0.34315  -0.34100
 Alpha  occ. eigenvalues --   -0.29205  -0.29143  -0.25921  -0.25775  -0.24836
 Alpha  occ. eigenvalues --   -0.24095  -0.23709  -0.22728  -0.16227
 Alpha virt. eigenvalues --   -0.04752  -0.01465  -0.01355  -0.01113  -0.00294
 Alpha virt. eigenvalues --    0.00092   0.00842   0.01307   0.01489   0.01895
 Alpha virt. eigenvalues --    0.02785   0.03035   0.03433   0.03981   0.04512

  Beta  occ. eigenvalues --  -19.07083 -19.07083 -10.22219 -10.22218 -10.18506
  Beta  occ. eigenvalues --  -10.18506 -10.17727 -10.17726 -10.17487 -10.17486
  Beta  occ. eigenvalues --  -10.17407 -10.17407 -10.17340 -10.17339 -10.17318
  Beta  occ. eigenvalues --  -10.17318 -10.16924 -10.16924 -10.16149 -10.16149
  Beta  occ. eigenvalues --   -0.99099  -0.98823  -0.86168  -0.86010  -0.82083
  Beta  occ. eigenvalues --   -0.78548  -0.74851  -0.74642  -0.74608  -0.71441
  Beta  occ. eigenvalues --   -0.67221  -0.63097  -0.61193  -0.60527  -0.59240
  Beta  occ. eigenvalues --   -0.57567  -0.55494  -0.51840  -0.50501  -0.48316
  Beta  occ. eigenvalues --   -0.46865  -0.46426  -0.45001  -0.44092  -0.44058
  Beta  occ. eigenvalues --   -0.43188  -0.42144  -0.41919  -0.41567  -0.39669
  Beta  occ. eigenvalues --   -0.39022  -0.38888  -0.37713  -0.36561  -0.36073
  Beta  occ. eigenvalues --   -0.35112  -0.35021  -0.34344  -0.34267  -0.34055
  Beta  occ. eigenvalues --   -0.28707  -0.27266  -0.25821  -0.25719  -0.23528
  Beta  occ. eigenvalues --   -0.23406  -0.23113  -0.22141
  Beta virt. eigenvalues --   -0.09422  -0.03995  -0.01423  -0.01296  -0.00836
  Beta virt. eigenvalues --   -0.00278   0.00097   0.01098   0.01508   0.01900
  Beta virt. eigenvalues --    0.02087   0.02968   0.03057   0.03578   0.04002

 Mulliken charges and spin densities:
               1          2
     1  O   -0.470376   0.244067
     2  C   -0.653318   0.099041
     3  C   -0.732810   0.049071
     4  C    1.163518   0.107892
     5  C   -0.653293   0.099046
     6  O   -0.470384   0.244066
     7  C   -0.732961   0.049072
     8  C    1.163268   0.107882
     9  C    1.191663  -0.027334
    10  C   -0.703564   0.019142
    11  C   -0.402246  -0.007092
    12  C   -0.372564   0.014847
    13  C   -0.293318  -0.000946
    14  C   -0.302251   0.014255
    15  C    1.191432  -0.027328
    16  C   -0.703694   0.019134
    17  C   -0.402147  -0.007088
    18  C   -0.372574   0.014839
    19  C   -0.293278  -0.000942
    20  C   -0.302326   0.014234
    21  H    0.162104  -0.008851
    22  H    0.162088  -0.008852
    23  H    0.174329  -0.001726
    24  H    0.188807   0.000527
    25  H    0.179931  -0.000995
    26  H    0.190879   0.000400
    27  H    0.179564  -0.002283
    28  H    0.174317  -0.001726
    29  H    0.188811   0.000527
    30  H    0.179934  -0.000995
    31  H    0.190877   0.000399
    32  H    0.179584  -0.002284
 Sum of Mulliken charges =  -1.00000   1.00000

 Dipole moment (field-independent basis, Debye):
    X=              0.0002    Y=             -0.0008    Z=             -0.0013  Tot=              0.0015
 Quadrupole moment (field-independent basis, Debye-Ang):
   XX=           -124.3966   YY=           -139.4439   ZZ=           -126.9450
   XY=            -15.9951   XZ=              4.5396   YZ=             12.2747

 Normal termination of Gaussian 16 at Wed Jan 24 22:53:33 2024.
