 Q-Chem 5.4, Q-Chem, Inc., Pleasanton, CA (2021)
 Q-Chem 5.4.0 for Intel X86 EM64T Linux

User input:
--------------------------------------------------------------
$molecule
-2 1
C                 -1.8817890000      1.7609080000      0.7139180000
C                 -2.6327640000      0.9389390000      1.5236410000
C                 -2.1544790000     -0.3521470000      1.8571120000
C                 -0.6352150000      1.3478940000      0.2015220000
C                 -0.1508910000      0.0423020000      0.5405700000
C                 -0.9390460000     -0.7791770000      1.3714480000
C                  0.1204600000      2.2521790000     -0.6569980000
C                  1.3815120000      1.7401020000     -1.1290720000
C                  1.8517490000      0.4554370000     -0.8037050000
C                  1.1285480000     -0.4511940000      0.0480850000
O                 -0.3257680000      3.4124630000     -0.9581160000
O                  1.5648500000     -1.6133420000      0.3545890000
C                  2.1795890000      2.6659310000     -2.0194350000
C                  3.1697560000     -0.0633740000     -1.3358390000
C                  4.3522410000      0.1164120000     -0.3614370000
C                  5.6696230000     -0.4547740000     -0.9007230000
C                  6.8674860000     -0.2772320000      0.0414890000
C                  8.1804600000     -0.8458330000     -0.5124490000
C                  9.3891620000     -0.6584410000      0.4136860000
C                 10.6968420000     -1.2250480000     -0.1540480000
C                 11.9121030000     -1.0338700000      0.7623430000
C                 13.2162330000     -1.5983290000      0.1840810000
C                 14.4311110000     -1.4044770000      1.0962800000
Cl                -3.1040010000     -1.4392080000      2.8977910000
Cl                -4.1980200000      1.5217740000      2.1384990000
H                 -2.2280540000      2.7517460000      0.4448680000
H                 -0.5519780000     -1.7617580000      1.6141670000
H                  1.7042670000      3.6484020000     -2.0107640000
H                  2.2078430000      2.3162310000     -3.0621400000
H                  3.2214270000      2.7676230000     -1.6914150000
H                  3.4198080000      0.4152220000     -2.2899770000
H                  3.0542330000     -1.1377330000     -1.5181610000
H                  4.0905480000     -0.3785260000      0.5792840000
H                  4.4817430000      1.1831420000     -0.1365890000
H                  5.9023770000      0.0181370000     -1.8659530000
H                  5.5337110000     -1.5239580000     -1.1120630000
H                  6.6424360000     -0.7553420000      1.0037210000
H                  7.0007190000      0.7912150000      0.2585620000
H                  8.3954960000     -0.3748050000     -1.4813950000
H                  8.0492510000     -1.9162230000     -0.7205890000
H                  9.1798700000     -1.1318590000      1.3820380000
H                  9.5207080000      0.4114600000      0.6233990000
H                 10.9014770000     -0.7538720000     -1.1248740000
H                 10.5661310000     -2.2958310000     -0.3602270000
H                 11.7138600000     -1.5075870000      1.7327440000
H                 12.0449680000      0.0359280000      0.9706030000
H                 13.4131980000     -1.1262320000     -0.7870800000
H                 13.0850190000     -2.6681500000     -0.0232410000
H                 14.6190840000     -0.3425700000      1.2921330000
H                 15.3423300000     -1.8185220000      0.6510280000
H                 14.2883000000     -1.8988080000      2.0640260000
$end
$rem
MAX_SCF_CYCLES=200
SCF_Guess=core
BASIS  =  6-311++G(d,p)
GUI  =  2
JOB_TYPE  =  SP
METHOD  =  B3LYP
THRESH = 14
SCF_CONVERGENCE = 8
SOLVENT_METHOD = COSMO
$end
$solvent
dielectric 37.219
opticaldielectric 1.43
$end

--------------------------------------------------------------

             Standard Nuclear Orientation (Angstroms)
    I     Atom           X                Y                Z
 ----------------------------------------------------------------
    1      C       5.0227195497    -0.8103692503     0.6389217461
    2      C       5.7285093735     0.3684155186     0.5518871701
    3      C       5.1205434482     1.5151585184    -0.0157574675
    4      C       3.6959284756    -0.9084997482     0.1730110104
    5      C       3.0806256135     0.2523683075    -0.3995983669
    6      C       3.8249829483     1.4466814839    -0.4765561287
    7      C       2.9918301700    -2.1806173498     0.2816159867
    8      C       1.6415763671    -2.1798235530    -0.2205223408
    9      C       1.0417050812    -1.0430391401    -0.7908085163
   10      C       1.7128480027     0.2250120759    -0.9010761589
   11      O       3.5542949008    -3.2116072026     0.7883148999
   12      O       1.1604065702     1.2614082742    -1.4066288219
   13      C       0.8956412045    -3.4909497123    -0.1139323111
   14      C      -0.3706722196    -1.0808016483    -1.3323232927
   15      C      -1.4363235536    -0.5785716318    -0.3362282754
   16      C      -2.8552771922    -0.5834046837    -0.9185730046
   17      C      -3.9390777908    -0.1023057961     0.0551212515
   18      C      -5.3545606739    -0.1189714157    -0.5366435622
   19      C      -6.4491652930     0.3435378684     0.4337832586
   20      C      -7.8603052043     0.3160881561    -0.1673182584
   21      C      -8.9617230400     0.7689090361     0.7996423368
   22      C     -10.3699541421     0.7327603568     0.1919134531
   23      C     -11.4710032376     1.1807679342     1.1576226580
   24      Cl      6.0083083910     3.0517712472    -0.1461459450
   25      Cl      7.4002256547     0.4255187587     1.1600625053
   26      H       5.4676586986    -1.7002105063     1.0681757359
   27      H       3.3385689433     2.3109757872    -0.9131295407
   28      H       1.4900927439    -4.1785696657     0.4902709847
   29      H       0.7373271536    -3.9591321185    -1.0968178545
   30      H      -0.0943145644    -3.3737344511     0.3439027680
   31      H      -0.6365048121    -2.0939735730    -1.6560131762
   32      H      -0.4069911198    -0.4263878699    -2.2105360688
   33      H      -1.1621535881     0.4375452959    -0.0349973522
   34      H      -1.4112657588    -1.1985919783     0.5694135748
   35      H      -3.1056442803    -1.5995328213    -1.2566382654
   36      H      -2.8731896256     0.0479351925    -1.8171163806
   37      H      -3.6972301069     0.9152446974     0.3886295530
   38      H      -3.9181353980    -0.7290629580     0.9568903947
   39      H      -5.5879573060    -1.1356961165    -0.8812608919
   40      H      -5.3770094974     0.5152877618    -1.4330163416
   41      H      -6.2217974140     1.3613822267     0.7771927076
   42      H      -6.4269810660    -0.2892935029     1.3310036094
   43      H      -8.0835567239    -0.7016843337    -0.5147133452
   44      H      -7.8831335684     0.9519681249    -1.0624757360
   45      H      -8.7451459102     1.7880047254     1.1459435161
   46      H      -8.9409759727     0.1351036221     1.6959421488
   47      H     -10.5855350019    -0.2856455652    -0.1562226516
   48      H     -10.3922585934     1.3671733126    -0.7034854583
   49      H     -11.5067555701     0.5422062188     2.0477346899
   50      H     -12.4608470391     1.1412551330     0.6900216971
   51      H     -11.3120424898     2.2110227302     1.4961444087
 ----------------------------------------------------------------

  105   -1887.0932107928      6.82e-09  Convergence criterion met
 Total energy in the final basis set =    -1887.0932107928
   12   -1887.3341642504      5.79e-09  Convergence criterion met
 Total energy in the final basis set =    -1887.3341642504

                    Orbital Energies (a.u.)
 --------------------------------------------------------------

 Alpha MOs
 -- Occupied --
********-101.5486 -19.0212 -19.0202 -10.2227 -10.2222 -10.1724 -10.1716
-10.1633 -10.1631 -10.1569 -10.1544 -10.1541 -10.1535 -10.1528 -10.1514
-10.1507 -10.1489 -10.1441 -10.1441 -10.1436 -10.1379 -10.1345 -10.1308
-10.1272  -9.4630  -9.4630  -7.2274  -7.2273  -7.2181  -7.2180  -7.2177
 -7.2177  -0.9456  -0.9420  -0.8914  -0.8433  -0.8174  -0.8046  -0.7915
 -0.7782  -0.7564  -0.7313  -0.7284  -0.7161  -0.6917  -0.6628  -0.6375
 -0.6241  -0.6021  -0.5857  -0.5711  -0.5682  -0.5627  -0.5508  -0.5241
 -0.4895  -0.4771  -0.4658  -0.4615  -0.4565  -0.4425  -0.4299  -0.4264
 -0.4190  -0.4150  -0.4095  -0.4045  -0.4014  -0.3946  -0.3924  -0.3883
 -0.3807  -0.3743  -0.3666  -0.3636  -0.3583  -0.3515  -0.3503  -0.3468
 -0.3410  -0.3394  -0.3313  -0.3293  -0.3224  -0.3216  -0.3202  -0.3176
 -0.3148  -0.3140  -0.3119  -0.3094  -0.3059  -0.3020  -0.2960  -0.2881
 -0.2385  -0.2280  -0.2072  -0.2059  -0.1959  -0.1123

          Ground-State Mulliken Net Atomic Charges

     Atom                 Charge (a.u.)
  ----------------------------------------
      1 C                    -0.489940
      2 C                     0.383758
      3 C                     0.289713
      4 C                    -0.542765
      5 C                    -0.498290
      6 C                    -0.462733
      7 C                    -0.556687
      8 C                     0.485388
      9 C                     0.533239
     10 C                    -0.772375
     11 O                    -0.722279
     12 O                    -0.684761
     13 C                    -0.419496
     14 C                    -0.301840
     15 C                    -0.989043
     16 C                    -0.272732
     17 C                    -0.021939
     18 C                     0.067865
     19 C                    -0.037437
     20 C                    -0.231585
     21 C                    -0.454199
     22 C                    -0.286696
     23 C                    -0.716990
     24 Cl                    0.446277
     25 Cl                    0.441174
     26 H                     0.198627
     27 H                     0.194854
     28 H                     0.166794
     29 H                     0.163108
     30 H                     0.148442
     31 H                     0.166260
     32 H                     0.181496
     33 H                     0.202725
     34 H                     0.125057
     35 H                     0.110701
     36 H                     0.122292
     37 H                     0.127555
     38 H                     0.132020
     39 H                     0.132988
     40 H                     0.134878
     41 H                     0.135264
     42 H                     0.133909
     43 H                     0.130663
     44 H                     0.130882
     45 H                     0.129505
     46 H                     0.128792
     47 H                     0.136157
     48 H                     0.136371
     49 H                     0.145761
     50 H                     0.153596
     51 H                     0.145679
  ----------------------------------------
  Sum of atomic charges =    -2.000000

                    Cartesian Multipole Moments
 -----------------------------------------------------------------
    Charge (ESU x 10^10)
                -9.6064
    Dipole Moment (Debye)
         X     -29.4643      Y       5.1485      Z       1.5675
       Tot      29.9518
    Quadrupole Moments (Debye-Ang)
        XX    -309.4467     XY      20.6370     YY    -227.8864
        XZ      -8.9556     YZ      13.8331     ZZ    -189.7333

 Total job time:  2387.99s(wall), 18715.20s(cpu)
        *  Thank you very much for using Q-Chem.  Have a nice day.  *
