 Q-Chem 5.4, Q-Chem, Inc., Pleasanton, CA (2021)
 Q-Chem 5.4.0 for Intel X86 EM64T Linux

User input:
--------------------------------------------------------------
$molecule
-2 1
C                 -0.0618100000      3.8910150000      0.1700340000
C                 -0.4704860000      3.5261050000      1.4377640000
C                 -0.0245820000      2.3043370000      2.0018940000
C                  0.8032560000      3.0686660000     -0.5969000000
C                  1.2593380000      1.8246950000     -0.0225530000
C                  0.8226040000      1.4848210000      1.2714020000
C                  1.2182540000      3.4571340000     -1.9114000000
C                  2.0897680000      2.5454330000     -2.5847210000
C                  2.5476610000      1.3358010000     -2.0705400000
C                  2.1548310000      0.9168500000     -0.7498160000
O                  0.8747750000      4.5448370000     -2.5345540000
O                  2.5531390000     -0.1827140000     -0.2391810000
H                 -0.3909150000      4.8217260000     -0.2813680000
H                 -1.1343970000      4.1762270000      2.0044360000
H                 -0.3441900000      2.0140830000      3.0001160000
H                  1.1829240000      0.5438240000      1.6753520000
O                  2.4469750000      2.9778730000     -3.8418220000
C                  3.4519800000      0.4376260000     -2.8768250000
C                  4.9553430000      0.6595480000     -2.6108480000
C                  5.8594970000     -0.2835060000     -3.4164890000
C                  7.3606290000     -0.0726960000     -3.1786750000
C                  8.2628170000     -1.0088740000     -3.9955870000
H                  1.9501610000      3.8323590000     -3.8730480000
H                  3.2590030000      0.5838980000     -3.9462100000
H                  3.2118370000     -0.6003750000     -2.6193470000
H                  5.1381320000      0.5202870000     -1.5397270000
H                  5.2092150000      1.7000710000     -2.8479480000
H                  5.6463720000     -0.1600470000     -4.4879860000
H                  5.5996570000     -1.3229830000     -3.1733410000
H                  7.5769600000     -0.2050250000     -2.1101410000
H                  7.6190180000      0.9691770000     -3.4121130000
H                  8.0476880000     -0.8763740000     -5.0645130000
H                  8.0058600000     -2.0513330000     -3.7643040000
C                  9.7640150000     -0.7991720000     -3.7578580000
C                 10.6588710000     -1.7345010000     -4.5779810000
H                  9.9806290000     -0.9338050000     -2.6902600000
H                 10.0220430000      0.2428280000     -3.9872720000
H                 10.4583500000     -2.7869030000     -4.3458790000
H                 11.7232690000     -1.5593230000     -4.3863800000
H                 10.4991290000     -1.6003890000     -5.6541900000
$end
$rem
MAX_SCF_CYCLES=200
BASIS  =  6-311++G(d,p)
GUI  =  2
JOB_TYPE  =  SP
METHOD  =  B3LYP
SCF_CONVERGENCE = 8
SCF_ALGORITHM = RCA_DIIS
scf_guess = GWH
THRESH = 14
SOLVENT_METHOD = PCM
$end
$pcm
theory = CPCM
$end
$solvent
dielectric 37.219
opticaldielectric 1.43
$end

--------------------------------------------------------------

             Standard Nuclear Orientation (Angstroms)
    I     Atom           X                Y                Z
 ----------------------------------------------------------------
    1      C      -0.0618100000     3.8910150000     0.1700340000
    2      C      -0.4704860000     3.5261050000     1.4377640000
    3      C      -0.0245820000     2.3043370000     2.0018940000
    4      C       0.8032560000     3.0686660000    -0.5969000000
    5      C       1.2593380000     1.8246950000    -0.0225530000
    6      C       0.8226040000     1.4848210000     1.2714020000
    7      C       1.2182540000     3.4571340000    -1.9114000000
    8      C       2.0897680000     2.5454330000    -2.5847210000
    9      C       2.5476610000     1.3358010000    -2.0705400000
   10      C       2.1548310000     0.9168500000    -0.7498160000
   11      O       0.8747750000     4.5448370000    -2.5345540000
   12      O       2.5531390000    -0.1827140000    -0.2391810000
   13      H      -0.3909150000     4.8217260000    -0.2813680000
   14      H      -1.1343970000     4.1762270000     2.0044360000
   15      H      -0.3441900000     2.0140830000     3.0001160000
   16      H       1.1829240000     0.5438240000     1.6753520000
   17      O       2.4469750000     2.9778730000    -3.8418220000
   18      C       3.4519800000     0.4376260000    -2.8768250000
   19      C       4.9553430000     0.6595480000    -2.6108480000
   20      C       5.8594970000    -0.2835060000    -3.4164890000
   21      C       7.3606290000    -0.0726960000    -3.1786750000
   22      C       8.2628170000    -1.0088740000    -3.9955870000
   23      H       1.9501610000     3.8323590000    -3.8730480000
   24      H       3.2590030000     0.5838980000    -3.9462100000
   25      H       3.2118370000    -0.6003750000    -2.6193470000
   26      H       5.1381320000     0.5202870000    -1.5397270000
   27      H       5.2092150000     1.7000710000    -2.8479480000
   28      H       5.6463720000    -0.1600470000    -4.4879860000
   29      H       5.5996570000    -1.3229830000    -3.1733410000
   30      H       7.5769600000    -0.2050250000    -2.1101410000
   31      H       7.6190180000     0.9691770000    -3.4121130000
   32      H       8.0476880000    -0.8763740000    -5.0645130000
   33      H       8.0058600000    -2.0513330000    -3.7643040000
   34      C       9.7640150000    -0.7991720000    -3.7578580000
   35      C      10.6588710000    -1.7345010000    -4.5779810000
   36      H       9.9806290000    -0.9338050000    -2.6902600000
   37      H      10.0220430000     0.2428280000    -3.9872720000
   38      H      10.4583500000    -2.7869030000    -4.3458790000
   39      H      11.7232690000    -1.5593230000    -4.3863800000
   40      H      10.4991290000    -1.6003890000    -5.6541900000
 ----------------------------------------------------------------

   99    -886.0466942502      5.20E-09 Convergence criterion met
 Total energy in the final basis set = -886.04669425

                    Orbital Energies (a.u.)
 --------------------------------------------------------------

 Alpha MOs
 -- Occupied --
-19.1119 -19.0274 -19.0201 -10.1758 -10.1733 -10.1614 -10.1558 -10.1525
-10.1513 -10.1500 -10.1490 -10.1473 -10.1451 -10.1441 -10.1437 -10.1427
-10.1403 -10.1356 -10.1316 -10.1235  -1.0261  -0.9428  -0.9329  -0.8235
 -0.7984  -0.7785  -0.7574  -0.7283  -0.7210  -0.6967  -0.6595  -0.6305
 -0.6053  -0.5825  -0.5702  -0.5652  -0.5522  -0.5341  -0.5022  -0.4721
 -0.4695  -0.4512  -0.4403  -0.4268  -0.4230  -0.4218  -0.4057  -0.4011
 -0.3990  -0.3933  -0.3810  -0.3716  -0.3680  -0.3592  -0.3553  -0.3504
 -0.3497  -0.3431  -0.3284  -0.3274  -0.3201  -0.3159  -0.3127  -0.3099
 -0.3085  -0.3031  -0.2977  -0.2924  -0.2295  -0.2251  -0.2164  -0.1985
 -0.1919  -0.1079

          Ground-State Mulliken Net Atomic Charges

     Atom                 Charge (a.u.)
  ----------------------------------------
      1 C                    -0.069950
      2 C                    -0.401410
      3 C                    -0.517229
      4 C                     0.452142
      5 C                    -0.092241
      6 C                     0.014874
      7 C                    -0.912444
      8 C                    -0.621468
      9 C                     1.933285
     10 C                    -0.665604
     11 O                    -0.754374
     12 O                    -0.674250
     13 H                     0.143339
     14 H                     0.170705
     15 H                     0.164436
     16 H                     0.143177
     17 O                    -0.350981
     18 C                    -0.360038
     19 C                    -0.598310
     20 C                    -0.082755
     21 C                    -0.125872
     22 C                    -0.278578
     23 H                     0.286553
     24 H                     0.198260
     25 H                     0.169906
     26 H                     0.172481
     27 H                     0.153930
     28 H                     0.111726
     29 H                     0.115001
     30 H                     0.126079
     31 H                     0.126974
     32 H                     0.129358
     33 H                     0.130383
     34 C                    -0.235300
     35 C                    -0.710024
     36 H                     0.134987
     37 H                     0.134893
     38 H                     0.144888
     39 H                     0.148483
     40 H                     0.144970
  ----------------------------------------
  Sum of atomic charges =    -2.000000

                    Cartesian Multipole Moments
 -----------------------------------------------------------------
    Charge (ESU x 10^10)
                -9.6064
    Dipole Moment (Debye)
         X     -15.9412      Y     -21.0198      Z      12.2064
       Tot      29.0680
    Quadrupole Moments (Debye-Ang)
        XX    -171.2350     XY     -19.6958     YY    -217.2248
        XZ      21.5751     YZ      41.1746     ZZ    -169.2320

 Total job time:  1746.45s(wall), 10741.99s(cpu)
        *  Thank you very much for using Q-Chem.  Have a nice day.  *
