 Gaussian 16, Revision A.03,
 Gaussian 16:  ES64L-G16RevA.03 25-Dec-2016

 ----------------------------------------------------------------------
 #P UB3LYP/6-311++G(d,p) nosym opt freq SCRF=(PCM,Solvent=n,n-DiMethylF
 ormamide)
 ----------------------------------------------------------------------

 -------
 Reduced
 -------
 Symbolic Z-matrix:
 Charge = -2 Multiplicity = 1

 SCF Done:  E(UB3LYP) =  -837.732207356     A.U. after   17 cycles
 SCF Done:  E(UB3LYP) =  -837.734529367     A.U. after   13 cycles
 SCF Done:  E(UB3LYP) =  -837.734572210     A.U. after   14 cycles
 SCF Done:  E(UB3LYP) =  -837.734632449     A.U. after   14 cycles
 SCF Done:  E(UB3LYP) =  -837.735577238     A.U. after   13 cycles
 SCF Done:  E(UB3LYP) =  -837.735564341     A.U. after   13 cycles
 SCF Done:  E(UB3LYP) =  -837.735596205     A.U. after   12 cycles
 SCF Done:  E(UB3LYP) =  -837.735613770     A.U. after   11 cycles
 SCF Done:  E(UB3LYP) =  -837.735616378     A.U. after   11 cycles
 SCF Done:  E(UB3LYP) =  -837.735618313     A.U. after   11 cycles
 SCF Done:  E(UB3LYP) =  -837.735619358     A.U. after   11 cycles
 SCF Done:  E(UB3LYP) =  -837.735620315     A.U. after   11 cycles
 SCF Done:  E(UB3LYP) =  -837.735620553     A.U. after   10 cycles
 SCF Done:  E(UB3LYP) =  -837.735620612     A.U. after    9 cycles
 Optimization completed.
    -- Stationary point found.
 Normal termination of Gaussian 16 at Sat Feb 10 12:56:08 2024.

 ----------------------------------------------------------------------
 #P Geom=AllCheck Guess=TCheck SCRF=Check GenChk UB3LYP/6-311++G(d,p) F
 req
 ----------------------------------------------------------------------

 Structure from the checkpoint file:  "098-an.chk"
 -------
 Reduced
 -------
 Charge = -2 Multiplicity = 1

                          Input orientation:
 ---------------------------------------------------------------------
 Center     Atomic      Atomic             Coordinates (Angstroms)
 Number     Number       Type             X           Y           Z
 ---------------------------------------------------------------------
      1          6           0        1.009778    4.336652    4.939945
      2          6           0        1.625799    3.976408    3.709580
      3          6           0        1.582721    2.706890    3.101463
      4          6           0        0.864204    1.610296    3.733182
      5          6           0        0.265702    1.966045    4.970527
      6          6           0        0.311089    3.233988    5.581428
      7          8           0        1.086177    5.549123    5.385700
      8          8           0        0.766403    0.407552    3.265765
      9          1           0        2.158179    4.772413    3.203857
     10          6           0       -0.401158    3.319137    6.873149
     11          8           0       -1.110496    2.429172    7.337827
     12          8           0       -0.213355    4.467827    7.567036
     13          6           0       -0.878777    4.556772    8.837163
     14          1           0       -0.619933    5.538303    9.230401
     15          1           0       -0.530807    3.776427    9.516446
     16          1           0       -1.960372    4.471781    8.719416
     17          6           0        2.277040    2.518543    1.815218
     18          8           0        3.120294    3.561016    1.512827
     19          8           0        2.174629    1.580653    1.038647
     20          6           0        3.793401    3.490185    0.248972
     21          1           0       -0.270725    1.177757    5.486790
     22          1           0        4.394804    4.395608    0.187220
     23          1           0        3.077602    3.460165   -0.574879
     24          1           0        4.436558    2.609826    0.195342
 ---------------------------------------------------------------------

 SCF Done:  E(UB3LYP) =  -837.735620612     A.U. after    2 cycles

 Alpha  occ. eigenvalues --  -19.14975 -19.14721 -19.09104 -19.08898 -19.02063
 Alpha  occ. eigenvalues --  -19.02015 -10.28132 -10.28084 -10.21141 -10.21132
 Alpha  occ. eigenvalues --  -10.18665 -10.18589 -10.15252 -10.15195 -10.13188
 Alpha  occ. eigenvalues --  -10.13058  -1.08834  -1.08488  -0.99609  -0.99510
 Alpha  occ. eigenvalues --   -0.93642  -0.93277  -0.79853  -0.75566  -0.72029
 Alpha  occ. eigenvalues --   -0.69574  -0.65966  -0.61971  -0.56321  -0.55277
 Alpha  occ. eigenvalues --   -0.53777  -0.49325  -0.47152  -0.46938  -0.46805
 Alpha  occ. eigenvalues --   -0.46694  -0.45313  -0.42745  -0.41840  -0.41228
 Alpha  occ. eigenvalues --   -0.39519  -0.38939  -0.38748  -0.36190  -0.35647
 Alpha  occ. eigenvalues --   -0.35077  -0.34529  -0.34243  -0.32533  -0.31819
 Alpha  occ. eigenvalues --   -0.29460  -0.29336  -0.26880  -0.26686  -0.23321
 Alpha  occ. eigenvalues --   -0.23152  -0.19715  -0.19417  -0.13168
 Alpha virt. eigenvalues --   -0.04516   0.00037   0.00514   0.01929   0.02254
 Alpha virt. eigenvalues --    0.03006   0.03452   0.03594   0.04125   0.04204
 Alpha virt. eigenvalues --    0.04694   0.05143   0.06301   0.06481   0.06806

  Beta  occ. eigenvalues --  -19.14975 -19.14721 -19.09104 -19.08898 -19.02063
  Beta  occ. eigenvalues --  -19.02015 -10.28132 -10.28084 -10.21141 -10.21132
  Beta  occ. eigenvalues --  -10.18665 -10.18589 -10.15252 -10.15195 -10.13188
  Beta  occ. eigenvalues --  -10.13058  -1.08834  -1.08488  -0.99609  -0.99510
  Beta  occ. eigenvalues --   -0.93642  -0.93277  -0.79853  -0.75566  -0.72029
  Beta  occ. eigenvalues --   -0.69574  -0.65966  -0.61971  -0.56321  -0.55277
  Beta  occ. eigenvalues --   -0.53777  -0.49325  -0.47152  -0.46938  -0.46805
  Beta  occ. eigenvalues --   -0.46694  -0.45313  -0.42745  -0.41840  -0.41228
  Beta  occ. eigenvalues --   -0.39519  -0.38939  -0.38748  -0.36190  -0.35647
  Beta  occ. eigenvalues --   -0.35077  -0.34529  -0.34243  -0.32533  -0.31819
  Beta  occ. eigenvalues --   -0.29460  -0.29336  -0.26880  -0.26686  -0.23321
  Beta  occ. eigenvalues --   -0.23152  -0.19715  -0.19417  -0.13168
  Beta virt. eigenvalues --   -0.04516   0.00037   0.00514   0.01929   0.02254
  Beta virt. eigenvalues --    0.03006   0.03452   0.03594   0.04125   0.04204
  Beta virt. eigenvalues --    0.04694   0.05143   0.06301   0.06481   0.06806

 Mulliken charges and spin densities:
               1          2
     1  C   -0.746147   0.000000
     2  C   -0.062680  -0.000000
     3  C    0.451096   0.000000
     4  C   -0.704411   0.000000
     5  C   -0.324394  -0.000000
     6  C    0.351467   0.000000
     7  O   -0.683239  -0.000000
     8  O   -0.678410  -0.000000
     9  H    0.170437   0.000000
    10  C    0.235999  -0.000000
    11  O   -0.395750   0.000000
    12  O   -0.119406  -0.000000
    13  C   -0.213161  -0.000000
    14  H    0.162978  -0.000000
    15  H    0.172405   0.000000
    16  H    0.176111   0.000000
    17  C    0.307295  -0.000000
    18  O   -0.149932  -0.000000
    19  O   -0.373668   0.000000
    20  C   -0.225426   0.000000
    21  H    0.151772  -0.000000
    22  H    0.152316   0.000000
    23  H    0.173571   0.000000
    24  H    0.171177   0.000000
 Sum of Mulliken charges =  -2.00000   0.00000

 Dipole moment (field-independent basis, Debye):
    X=             -7.2871    Y=            -24.5300    Z=            -40.8942  Tot=             48.2406
 Quadrupole moment (field-independent basis, Debye-Ang):
   XX=           -107.5374   YY=           -215.1752   ZZ=           -290.2292
   XY=            -23.8350   XZ=            -27.5559   YZ=           -126.4516

  Exact polarizability: 196.399  40.092 262.261 -94.260  12.105 298.747
 Approx polarizability: 215.807  57.124 310.858 -94.728   5.981 310.707

                      1                      2                      3
                      A                      A                      A
 Frequencies --     30.4144                63.2020                85.8474
 Red. masses --      6.9933                 4.4520                 5.6802
 Frc consts  --      0.0038                 0.0105                 0.0247
 IR Inten    --      4.6350                11.5532                 1.1873

                      4                      5                      6
                      A                      A                      A
 Frequencies --    105.8245               114.8875               144.9800
 Red. masses --      3.9306                 3.8008                 4.4617
 Frc consts  --      0.0259                 0.0296                 0.0553
 IR Inten    --      7.1941                 7.9888                10.9233

                      7                      8                      9
                      A                      A                      A
 Frequencies --    162.5005               169.4950               180.3326
 Red. masses --      2.0943                 1.5129                 1.5178
 Frc consts  --      0.0326                 0.0256                 0.0291
 IR Inten    --     10.0149                 2.1290                 1.9488

                     10                     11                     12
                      A                      A                      A
 Frequencies --    185.4380               219.4293               255.8246
 Red. masses --      3.8373                 5.0319                 8.4439
 Frc consts  --      0.0777                 0.1427                 0.3256
 IR Inten    --     12.3041                 0.0762                 0.7520

                     13                     14                     15
                      A                      A                      A
 Frequencies --    307.5682               314.7318               335.3118
 Red. masses --      7.7922                 4.4625                 8.3138
 Frc consts  --      0.4343                 0.2604                 0.5507
 IR Inten    --      5.4935                 9.7396                 9.8324

                     16                     17                     18
                      A                      A                      A
 Frequencies --    374.5337               404.8586               422.3449
 Red. masses --      8.7943                 8.5284                 7.7919
 Frc consts  --      0.7268                 0.8236                 0.8189
 IR Inten    --     19.7490                20.7107                19.7128

                     19                     20                     21
                      A                      A                      A
 Frequencies --    459.8680               492.5010               524.1154
 Red. masses --      3.8861                12.7731                 8.3807
 Frc consts  --      0.4842                 1.8254                 1.3564
 IR Inten    --      1.4780                 0.7821                11.6971

                     22                     23                     24
                      A                      A                      A
 Frequencies --    634.4508               638.4027               691.4998
 Red. masses --      4.5975                 6.0572                 4.0551
 Frc consts  --      1.0904                 1.4545                 1.1425
 IR Inten    --     23.7965                 7.8463                 0.2654

                     25                     26                     27
                      A                      A                      A
 Frequencies --    712.4599               779.5165               789.2708
 Red. masses --      4.8506                 6.0154                 4.5799
 Frc consts  --      1.4507                 2.1536                 1.6810
 IR Inten    --      0.8893               101.3742                 2.8849

                     28                     29                     30
                      A                      A                      A
 Frequencies --    795.4530               808.5068               857.2203
 Red. masses --      6.2714                10.5964                 4.7365
 Frc consts  --      2.3380                 4.0811                 2.0507
 IR Inten    --     76.3072                63.7378               171.0155

                     31                     32                     33
                      A                      A                      A
 Frequencies --    863.7403               883.4521               929.9578
 Red. masses --      1.9480                 1.6335                 7.4238
 Frc consts  --      0.8563                 0.7512                 3.7827
 IR Inten    --      4.9856                63.8360               153.6506

                     34                     35                     36
                      A                      A                      A
 Frequencies --    984.8051              1068.4112              1090.0701
 Red. masses --      5.5486                 9.1822                 4.4825
 Frc consts  --      3.1706                 6.1755                 3.1382
 IR Inten    --     39.7913                45.1042               593.6233

                     37                     38                     39
                      A                      A                      A
 Frequencies --   1102.9275              1164.5965              1166.0882
 Red. masses --      3.9659                 1.2819                 1.2790
 Frc consts  --      2.8424                 1.0244                 1.0247
 IR Inten    --   3449.0380                 1.2869                 2.1724

                     40                     41                     42
                      A                      A                      A
 Frequencies --   1191.2501              1201.4331              1214.8301
 Red. masses --      1.9415                 1.5374                 2.7912
 Frc consts  --      1.6233                 1.3075                 2.4270
 IR Inten    --    131.6669                53.6856               245.1568

                     43                     44                     45
                      A                      A                      A
 Frequencies --   1243.2914              1247.8478              1289.8338
 Red. masses --      6.2421                 1.3181                 7.7287
 Frc consts  --      5.6849                 1.2093                 7.5758
 IR Inten    --    107.8361                 1.1138               273.7798

                     46                     47                     48
                      A                      A                      A
 Frequencies --   1347.4917              1410.7533              1432.7229
 Red. masses --     11.6190                 6.9443                 3.0898
 Frc consts  --     12.4300                 8.1429                 3.7368
 IR Inten    --      2.8891              1292.8964              1097.4504

                     49                     50                     51
                      A                      A                      A
 Frequencies --   1446.4858              1462.8779              1463.6942
 Red. masses --      5.6874                 1.1930                 1.2472
 Frc consts  --      7.0112                 1.5041                 1.5742
 IR Inten    --    359.1000                 7.6760               206.4995

                     52                     53                     54
                      A                      A                      A
 Frequencies --   1472.5422              1473.3868              1488.5733
 Red. masses --      1.0490                 1.0485                 1.0524
 Frc consts  --      1.3402                 1.3411                 1.3739
 IR Inten    --     11.1569                12.1697                11.4449

                     55                     56                     57
                      A                      A                      A
 Frequencies --   1491.4832              1602.3997              1633.7162
 Red. masses --      1.0522                 7.2937                10.2661
 Frc consts  --      1.3791                11.0342                16.1440
 IR Inten    --     12.4330               237.8562               969.6134

                     58                     59                     60
                      A                      A                      A
 Frequencies --   1684.9726              3038.1415              3040.9357
 Red. masses --     11.2982                 1.0302                 1.0299
 Frc consts  --     18.8993                 5.6024                 5.6112
 IR Inten    --    979.0342                84.7723                74.0857

                     61                     62                     63
                      A                      A                      A
 Frequencies --   3105.0339              3109.2387              3139.2266
 Red. masses --      1.1065                 1.1065                 1.1046
 Frc consts  --      6.2853                 6.3022                 6.4138
 IR Inten    --     44.9262                42.7279                31.5306

                     64                     65                     66
                      A                      A                      A
 Frequencies --   3141.8965              3167.9416              3183.7949
 Red. masses --      1.1050                 1.0872                 1.0875
 Frc consts  --      6.4270                 6.4289                 6.4947
 IR Inten    --     30.9432                33.4927                22.1175

 - Thermochemistry -
 -------------------
 Temperature   298.150 Kelvin.  Pressure   1.00000 Atm.
 Atom     1 has atomic number  6 and mass  12.00000

 Molecular mass:   224.03209 amu.
 Principal axes and moments of inertia in atomic units:
                           1         2         3
     Eigenvalues --  1446.511946708.606228107.17211
           X           -0.44992   0.35848   0.81796
           Y            0.18211   0.93348  -0.30895
           Z            0.87430  -0.00995   0.48528
 This molecule is an asymmetric top.
 Rotational symmetry number  1.
 Warning -- assumption of classical behavior for rotation
           may cause significant error
 Rotational temperatures (Kelvin)      0.05988     0.01291     0.01068
 Rotational constants (GHZ):           1.24765     0.26902     0.22261
 Zero-point vibrational energy     436880.0 (Joules/Mol)
                                  104.41683 (Kcal/Mol)
 Warning -- explicit consideration of  21 degrees of freedom as
           vibrations may cause significant error
 Vibrational temperatures:     43.76    90.93   123.52   152.26   165.30
          (Kelvin)            208.59   233.80   243.87   259.46   266.80
                              315.71   368.07   442.52   452.83   482.44
                              538.87   582.50   607.66   661.65   708.60
                              754.09   912.83   918.52   994.91  1025.07
                             1121.55  1135.58  1144.48  1163.26  1233.35
                             1242.73  1271.09  1338.00  1416.91  1537.21
                             1568.37  1586.87  1675.59  1677.74  1713.94
                             1728.59  1747.87  1788.82  1795.37  1855.78
                             1938.74  2029.76  2061.37  2081.17  2104.76
                             2105.93  2118.66  2119.87  2141.72  2145.91
                             2305.50  2350.55  2424.30  4371.21  4375.23
                             4467.45  4473.50  4516.65  4520.49  4557.96
                             4580.77

 Zero-point correction=                           0.166399 (Hartree/Particle)
 Thermal correction to Energy=                    0.181362
 Thermal correction to Enthalpy=                  0.182306
 Thermal correction to Gibbs Free Energy=         0.123511
 Sum of electronic and zero-point Energies=           -837.569222
 Sum of electronic and thermal Energies=              -837.554259
 Sum of electronic and thermal Enthalpies=            -837.553314
 Sum of electronic and thermal Free Energies=         -837.612110

                     E (Thermal)             CV                S
                      KCal/Mol        Cal/Mol-Kelvin    Cal/Mol-Kelvin
 Total                  113.806             54.034            123.746
 Electronic               0.000              0.000              0.000
 Translational            0.889              2.981             42.122
 Rotational               0.889              2.981             32.731
 Vibrational            112.029             48.072             48.892
 Vibration     1          0.594              1.984              5.802
 Vibration     2          0.597              1.972              4.355
 Vibration     3          0.601              1.959              3.753
 Vibration     4          0.605              1.945              3.344
 Vibration     5          0.608              1.937              3.185
 Vibration     6          0.616              1.908              2.737
 Vibration     7          0.623              1.888              2.520
 Vibration     8          0.625              1.880              2.441
 Vibration     9          0.629              1.866              2.325
 Vibration    10          0.632              1.860              2.273
 Vibration    11          0.647              1.811              1.964
 Vibration    12          0.666              1.753              1.690
 Vibration    13          0.697              1.659              1.375
 Vibration    14          0.702              1.646              1.337
 Vibration    15          0.716              1.605              1.234
 Vibration    16          0.746              1.524              1.061
 Vibration    17          0.770              1.460              0.945
 Vibration    18          0.785              1.422              0.884
 Vibration    19          0.818              1.339              0.766
 Vibration    20          0.848              1.267              0.677
 Vibration    21          0.879              1.197              0.600

 Optimization completed.
    -- Stationary point found.
 Normal termination of Gaussian 16 at Sat Feb 10 13:15:26 2024.
