 Q-Chem 5.4, Q-Chem, Inc., Pleasanton, CA (2021)
 Q-Chem 5.4.0 for Intel X86 EM64T Linux

User input:
--------------------------------------------------------------
$molecule
-1 2
O                  4.3902410000     -1.5195130000     -0.4074750000
C                  3.2545170000     -0.7547890000     -0.3137030000
C                  3.3368150000      0.6372900000     -0.3667290000
C                  2.1880520000      1.4182480000     -0.2722990000
O                  2.3132090000      2.7855180000     -0.3289890000
C                  0.9065140000      0.8296920000     -0.1203670000
C                 -0.3231430000      1.6283880000     -0.0183680000
O                 -0.3444370000      2.8725170000     -0.0560730000
C                 -1.5850120000      0.8715250000      0.1366980000
C                 -2.7927790000      1.5878450000      0.2388070000
C                 -4.0039640000      0.9366250000      0.3853310000
C                 -4.0400470000     -0.4739550000      0.4344800000
C                 -2.8710160000     -1.1993280000      0.3365590000
C                 -1.6225610000     -0.5482330000      0.1861990000
C                 -0.4093230000     -1.3217260000      0.0851080000
O                 -0.4327490000     -2.6118960000      0.1288120000
C                  0.8399540000     -0.6079310000     -0.0674350000
C                  2.0246330000     -1.3781130000     -0.1659170000
O                  2.0194780000     -2.7384420000     -0.1220440000
H                  4.0867620000     -2.4380750000     -0.3469280000
H                  4.3121170000      1.1016140000     -0.4829410000
H                  3.2503570000      2.9814600000     -0.4324970000
H                 -2.7326180000      2.6691940000      0.1976950000
H                 -4.9248000000      1.5067140000      0.4624050000
H                 -4.9901530000     -0.9875920000      0.5495020000
H                 -2.8719150000     -2.2822460000      0.3713890000
H                  1.0218670000     -2.9647910000     -0.0112180000
$end
$rem
MAX_SCF_CYCLES=200
BASIS  =  6-311++G(d,p)
GUI  =  2
JOB_TYPE  =  SP
METHOD  =  B3LYP
SOLVENT_METHOD = PCM
$end
$pcm
theory = CPCM
$end
$solvent
dielectric 37.219
opticaldielectric 1.43
$end

--------------------------------------------------------------

             Standard Nuclear Orientation (Angstroms)
    I     Atom           X                Y                Z
 ----------------------------------------------------------------
    1      O       4.3902410000    -1.5195130000    -0.4074750000
    2      C       3.2545170000    -0.7547890000    -0.3137030000
    3      C       3.3368150000     0.6372900000    -0.3667290000
    4      C       2.1880520000     1.4182480000    -0.2722990000
    5      O       2.3132090000     2.7855180000    -0.3289890000
    6      C       0.9065140000     0.8296920000    -0.1203670000
    7      C      -0.3231430000     1.6283880000    -0.0183680000
    8      O      -0.3444370000     2.8725170000    -0.0560730000
    9      C      -1.5850120000     0.8715250000     0.1366980000
   10      C      -2.7927790000     1.5878450000     0.2388070000
   11      C      -4.0039640000     0.9366250000     0.3853310000
   12      C      -4.0400470000    -0.4739550000     0.4344800000
   13      C      -2.8710160000    -1.1993280000     0.3365590000
   14      C      -1.6225610000    -0.5482330000     0.1861990000
   15      C      -0.4093230000    -1.3217260000     0.0851080000
   16      O      -0.4327490000    -2.6118960000     0.1288120000
   17      C       0.8399540000    -0.6079310000    -0.0674350000
   18      C       2.0246330000    -1.3781130000    -0.1659170000
   19      O       2.0194780000    -2.7384420000    -0.1220440000
   20      H       4.0867620000    -2.4380750000    -0.3469280000
   21      H       4.3121170000     1.1016140000    -0.4829410000
   22      H       3.2503570000     2.9814600000    -0.4324970000
   23      H      -2.7326180000     2.6691940000     0.1976950000
   24      H      -4.9248000000     1.5067140000     0.4624050000
   25      H      -4.9901530000    -0.9875920000     0.5495020000
   26      H      -2.8719150000    -2.2822460000     0.3713890000
   27      H       1.0218670000    -2.9647910000    -0.0112180000
 ----------------------------------------------------------------

    8    -914.8559210101      8.88e-06  Convergence criterion met
 Total energy in the final basis set =     -914.8559210101

                    Orbital Energies (a.u.)
 --------------------------------------------------------------

 Alpha MOs
 -- Occupied --
-19.1569 -19.1513 -19.1319 -19.0909 -19.0769 -10.2417 -10.2351 -10.2348
-10.2300 -10.2278 -10.1826 -10.1781 -10.1758 -10.1741 -10.1735 -10.1732
-10.1721 -10.1712 -10.1704  -1.0754  -1.0633  -1.0449  -1.0096  -1.0014
 -0.8635  -0.8490  -0.7882  -0.7534  -0.7440  -0.7392  -0.6741  -0.6509
 -0.6324  -0.6038  -0.5813  -0.5709  -0.5374  -0.5236  -0.5068  -0.4938
 -0.4802  -0.4645  -0.4519  -0.4485  -0.4375  -0.4252  -0.4212  -0.4150
 -0.4120  -0.4095  -0.4058  -0.3814  -0.3804  -0.3748  -0.3695  -0.3653
 -0.3552  -0.3486  -0.3390  -0.3052  -0.2661  -0.2605  -0.2587  -0.2441
 -0.2382  -0.2155  -0.1423

 Beta MOs
 -- Occupied --
-19.1566 -19.1510 -19.1311 -19.0861 -19.0730 -10.2416 -10.2340 -10.2340
-10.2268 -10.2267 -10.1828 -10.1778 -10.1755 -10.1734 -10.1729 -10.1724
-10.1713 -10.1707 -10.1706  -1.0742  -1.0627  -1.0426  -1.0027  -0.9933
 -0.8610  -0.8477  -0.7845  -0.7509  -0.7425  -0.7368  -0.6674  -0.6492
 -0.6297  -0.6027  -0.5804  -0.5690  -0.5353  -0.5225  -0.5057  -0.4923
 -0.4778  -0.4635  -0.4503  -0.4419  -0.4363  -0.4247  -0.4178  -0.4096
 -0.4079  -0.4068  -0.3976  -0.3803  -0.3739  -0.3705  -0.3682  -0.3544
 -0.3539  -0.3391  -0.3380  -0.2976  -0.2566  -0.2522  -0.2512  -0.2392
 -0.2345  -0.2051

          Ground-State Mulliken Net Atomic Charges

     Atom                 Charge (a.u.)    Spin (a.u.)
  --------------------------------------------------------
      1 O                    -0.319851       0.008914
      2 C                    -0.381151       0.049345
      3 C                     0.102895       0.056397
      4 C                    -0.203309       0.018764
      5 O                    -0.262848       0.004943
      6 C                     0.428576       0.014568
      7 C                    -0.241173       0.050512
      8 O                    -0.459240       0.152814
      9 C                    -0.201663       0.068207
     10 C                     0.092212      -0.003581
     11 C                    -0.549488       0.078572
     12 C                    -0.503711       0.000374
     13 C                     0.050289       0.072295
     14 C                     0.194408      -0.017046
     15 C                    -0.252453       0.198475
     16 O                    -0.527302       0.180513
     17 C                     0.841798      -0.032152
     18 C                    -0.316440       0.093848
     19 O                    -0.510448       0.023502
     20 H                     0.321058      -0.000355
     21 H                     0.221500      -0.005243
     22 H                     0.315112      -0.000651
     23 H                     0.167836       0.000553
     24 H                     0.197343      -0.005451
     25 H                     0.198943      -0.000985
     26 H                     0.176347      -0.002816
     27 H                     0.420759      -0.004315
  --------------------------------------------------------
  Sum of atomic charges =    -1.000000

                    Cartesian Multipole Moments
 -----------------------------------------------------------------
    Charge (ESU x 10^10)
                -4.8032
    Dipole Moment (Debye)
         X       0.1423      Y      -0.4040      Z      -0.0057
       Tot       0.4284
    Quadrupole Moments (Debye-Ang)
        XX    -110.5176     XY       9.4823     YY    -144.7727
        XZ      -0.8193     YZ      -0.0524     ZZ    -115.4840

 Total job time:  91.91s(wall), 421.23s(cpu)
        *  Thank you very much for using Q-Chem.  Have a nice day.  *
