 Q-Chem 5.4, Q-Chem, Inc., Pleasanton, CA (2021)
 Q-Chem 5.4.0 for Intel X86 EM64T Linux

User input:
--------------------------------------------------------------
$molecule
0 1
C                  3.9276500000      1.2700870000     -1.3009740000
N                  2.5310420000      1.0589270000     -0.9840590000
C                  2.0496970000      0.0024160000     -0.2831400000
C                  2.9282310000     -1.0011840000      0.1990080000
C                  2.4534050000     -2.0829020000      0.9139140000
C                  1.0902300000     -2.2237120000      1.1855820000
C                  0.2003730000     -1.2613190000      0.7297220000
C                 -1.2483170000     -1.4623440000      1.0491730000
O                 -1.6280700000     -2.4338720000      1.6840760000
C                 -2.2100590000     -0.4368560000      0.5655120000
C                 -3.5729420000     -0.5862430000      0.8421580000
C                 -4.4826550000      0.3642590000      0.3964370000
C                 -4.0358880000      1.4721940000     -0.3298920000
C                 -2.6831420000      1.6268130000     -0.6083230000
C                 -1.7599740000      0.6744500000     -0.1633690000
C                 -0.3132120000      0.8679020000     -0.4782810000
O                  0.0276030000      1.8672440000     -1.1249890000
C                  0.6470010000     -0.1345500000     -0.0082850000
H                  4.3377240000      0.4590190000     -1.9140450000
H                  4.5441830000      1.3660340000     -0.3995900000
H                  4.0121970000      2.1969310000     -1.8676490000
H                  1.8313980000      1.7276960000     -1.2893780000
H                  3.9885890000     -0.9164990000      0.0023200000
H                  3.1530040000     -2.8322590000      1.2679020000
H                  0.7068690000     -3.0666830000      1.7444340000
H                 -3.8925160000     -1.4535080000      1.4065590000
H                 -5.5386140000      0.2465940000      0.6119260000
H                 -4.7462620000      2.2138460000     -0.6775920000
H                 -2.3175430000      2.4775170000     -1.1691550000
$end

$rem
BASIS  =  6-311++G(d,p)
GUI  =  2
JOB_TYPE  =  SP
METHOD  =  B3LYP
SCF_CONVERGENCE  = 8
SOLVENT_METHOD = sm12
$end

$smx
solvent dimethylformamide
charges CM5
$end

--------------------------------------------------------------

             Standard Nuclear Orientation (Angstroms)
    I     Atom           X                Y                Z
 ----------------------------------------------------------------
    1      C       3.9276500000     1.2700870000    -1.3009740000
    2      N       2.5310420000     1.0589270000    -0.9840590000
    3      C       2.0496970000     0.0024160000    -0.2831400000
    4      C       2.9282310000    -1.0011840000     0.1990080000
    5      C       2.4534050000    -2.0829020000     0.9139140000
    6      C       1.0902300000    -2.2237120000     1.1855820000
    7      C       0.2003730000    -1.2613190000     0.7297220000
    8      C      -1.2483170000    -1.4623440000     1.0491730000
    9      O      -1.6280700000    -2.4338720000     1.6840760000
   10      C      -2.2100590000    -0.4368560000     0.5655120000
   11      C      -3.5729420000    -0.5862430000     0.8421580000
   12      C      -4.4826550000     0.3642590000     0.3964370000
   13      C      -4.0358880000     1.4721940000    -0.3298920000
   14      C      -2.6831420000     1.6268130000    -0.6083230000
   15      C      -1.7599740000     0.6744500000    -0.1633690000
   16      C      -0.3132120000     0.8679020000    -0.4782810000
   17      O       0.0276030000     1.8672440000    -1.1249890000
   18      C       0.6470010000    -0.1345500000    -0.0082850000
   19      H       4.3377240000     0.4590190000    -1.9140450000
   20      H       4.5441830000     1.3660340000    -0.3995900000
   21      H       4.0121970000     2.1969310000    -1.8676490000
   22      H       1.8313980000     1.7276960000    -1.2893780000
   23      H       3.9885890000    -0.9164990000     0.0023200000
   24      H       3.1530040000    -2.8322590000     1.2679020000
   25      H       0.7068690000    -3.0666830000     1.7444340000
   26      H      -3.8925160000    -1.4535080000     1.4065590000
   27      H      -5.5386140000     0.2465940000     0.6119260000
   28      H      -4.7462620000     2.2138460000    -0.6775920000
   29      H      -2.3175430000     2.4775170000    -1.1691550000
 ----------------------------------------------------------------

   15    -783.6519273826      4.32e-09  Convergence criterion met
 Total energy in the final basis set =     -783.6747777772

                    Orbital Energies (a.u.)
 --------------------------------------------------------------

 Alpha MOs
 -- Occupied --
-19.1242 -19.1232 -14.3393 -10.2769 -10.2760 -10.2452 -10.2058 -10.2057
-10.2041 -10.2017 -10.2016 -10.1968 -10.1960 -10.1953 -10.1948 -10.1938
-10.1908 -10.1850  -1.0593  -1.0560  -0.9562  -0.8878  -0.8695  -0.8092
 -0.7755  -0.7700  -0.7672  -0.7026  -0.6861  -0.6584  -0.6447  -0.6082
 -0.5898  -0.5588  -0.5515  -0.5259  -0.5008  -0.4943  -0.4844  -0.4717
 -0.4626  -0.4595  -0.4510  -0.4482  -0.4428  -0.4390  -0.4271  -0.4134
 -0.4007  -0.3910  -0.3864  -0.3850  -0.3718  -0.3667  -0.3643  -0.3191
 -0.2870  -0.2824  -0.2756  -0.2745  -0.2700  -0.2207

          Ground-State Mulliken Net Atomic Charges

     Atom                 Charge (a.u.)
  ----------------------------------------
      1 C                    -0.088134
      2 N                    -0.333734
      3 C                    -0.297691
      4 C                     1.421391
      5 C                     0.322887
      6 C                    -0.275673
      7 C                    -0.156802
      8 C                    -1.739018
      9 O                    -0.261008
     10 C                    -0.773364
     11 C                     0.077728
     12 C                     0.512010
     13 C                     0.376101
     14 C                     0.255574
     15 C                    -0.272042
     16 C                    -0.962293
     17 O                    -0.260532
     18 C                    -0.408753
     19 H                     0.217188
     20 H                     0.217262
     21 H                     0.244836
     22 H                     0.339587
     23 H                     0.329162
     24 H                     0.333421
     25 H                     0.150463
     26 H                     0.181099
     27 H                     0.323584
     28 H                     0.328066
     29 H                     0.198685
  ----------------------------------------
  Sum of atomic charges =     0.000000

                    Cartesian Multipole Moments
 -----------------------------------------------------------------
    Charge (ESU x 10^10)
                 0.0000
    Dipole Moment (Debye)
         X       2.4676      Y       1.7747      Z      -1.4022
       Tot       3.3473
    Quadrupole Moments (Debye-Ang)
        XX     -71.7578     XY      -7.0408     YY    -108.2206
        XZ      -0.7784     YZ       0.9446     ZZ    -108.7236

 Total job time:  665.45s(wall), 5191.83s(cpu)
        *  Thank you very much for using Q-Chem.  Have a nice day.  *
