 Gaussian 16, Revision A.03,
 Gaussian 16:  ES64L-G16RevA.03 25-Dec-2016

 ----------------------------------------------------------------------
 #P UB3LYP/6-311++G(d,p) nosym opt freq SCRF=(PCM,Solvent=n,n-DiMethylF
 ormamide)
 ----------------------------------------------------------------------

 --------
 Oxidized
 --------
 Symbolic Z-matrix:
 Charge =  0 Multiplicity = 1

 SCF Done:  E(UB3LYP) =  -532.093915694     A.U. after   14 cycles
 SCF Done:  E(UB3LYP) =  -532.093995740     A.U. after   11 cycles
 SCF Done:  E(UB3LYP) =  -532.094002521     A.U. after    9 cycles
 SCF Done:  E(UB3LYP) =  -532.094003841     A.U. after    9 cycles
 SCF Done:  E(UB3LYP) =  -532.094005288     A.U. after    8 cycles
 Optimization completed.
    -- Stationary point found.
 Normal termination of Gaussian 16 at Sat Feb 10 10:43:59 2024.

 ----------------------------------------------------------------------
 #P Geom=AllCheck Guess=TCheck SCRF=Check GenChk UB3LYP/6-311++G(d,p) F
 req
 ----------------------------------------------------------------------

 Structure from the checkpoint file:  "111.chk"
 --------
 Oxidized
 --------
 Charge =  0 Multiplicity = 1

                          Input orientation:
 ---------------------------------------------------------------------
 Center     Atomic      Atomic             Coordinates (Angstroms)
 Number     Number       Type             X           Y           Z
 ---------------------------------------------------------------------
      1          8           0       -2.689439   -0.169356    0.447928
      2          6           0       -1.391378    0.003180    0.242910
      3          6           0       -0.785908    1.211712    0.283905
      4          6           0        0.632140    1.283787    0.045954
      5          8           0        1.299741    2.315929    0.054350
      6          6           0        1.391380   -0.003184   -0.242884
      7          6           0        0.785910   -1.211716   -0.283879
      8          6           0       -0.632089   -1.283827   -0.045643
      9          8           0       -1.299777   -2.315909   -0.054550
     10          8           0        2.689422    0.169370   -0.448013
     11          1           0       -2.862437   -1.129742    0.361078
     12          1           0       -1.329886    2.124661    0.488612
     13          1           0        1.329858   -2.124642   -0.488766
     14          1           0        2.862461    1.129735   -0.361003
 ---------------------------------------------------------------------

 SCF Done:  E(UB3LYP) =  -532.094005288     A.U. after    2 cycles

 Alpha  occ. eigenvalues --  -19.19574 -19.19574 -19.15251 -19.15251 -10.29894
 Alpha  occ. eigenvalues --  -10.29893 -10.28844 -10.28844 -10.20184 -10.20184
 Alpha  occ. eigenvalues --   -1.12497  -1.12289  -1.07313  -1.07255  -0.86784
 Alpha  occ. eigenvalues --   -0.79431  -0.71614  -0.65618  -0.64757  -0.60514
 Alpha  occ. eigenvalues --   -0.55258  -0.54107  -0.48957  -0.48925  -0.48531
 Alpha  occ. eigenvalues --   -0.46835  -0.46104  -0.45368  -0.41859  -0.41721
 Alpha  occ. eigenvalues --   -0.40255  -0.39431  -0.31406  -0.30379  -0.29831
 Alpha  occ. eigenvalues --   -0.26805
 Alpha virt. eigenvalues --   -0.13749  -0.02187  -0.00751  -0.00377   0.00588
 Alpha virt. eigenvalues --    0.01272   0.02558   0.04694   0.05314   0.05493
 Alpha virt. eigenvalues --    0.07326   0.07518   0.07943   0.08835   0.10921

  Beta  occ. eigenvalues --  -19.19574 -19.19574 -19.15251 -19.15251 -10.29894
  Beta  occ. eigenvalues --  -10.29893 -10.28844 -10.28844 -10.20184 -10.20184
  Beta  occ. eigenvalues --   -1.12497  -1.12289  -1.07313  -1.07255  -0.86784
  Beta  occ. eigenvalues --   -0.79431  -0.71614  -0.65618  -0.64757  -0.60514
  Beta  occ. eigenvalues --   -0.55258  -0.54107  -0.48957  -0.48925  -0.48531
  Beta  occ. eigenvalues --   -0.46835  -0.46104  -0.45368  -0.41859  -0.41721
  Beta  occ. eigenvalues --   -0.40255  -0.39431  -0.31406  -0.30379  -0.29831
  Beta  occ. eigenvalues --   -0.26805
  Beta virt. eigenvalues --   -0.13749  -0.02187  -0.00751  -0.00377   0.00588
  Beta virt. eigenvalues --    0.01272   0.02558   0.04694   0.05314   0.05493
  Beta virt. eigenvalues --    0.07326   0.07518   0.07943   0.08835   0.10921

 Mulliken charges and spin densities:
               1          2
     1  O   -0.197609  -0.000000
     2  C   -0.131399   0.000000
     3  C    0.234117  -0.000000
     4  C   -0.121071   0.000000
     5  O   -0.346579  -0.000000
     6  C   -0.131402   0.000000
     7  C    0.234118  -0.000000
     8  C   -0.121087  -0.000000
     9  O   -0.346577  -0.000000
    10  O   -0.197612  -0.000000
    11  H    0.311654  -0.000000
    12  H    0.250896  -0.000000
    13  H    0.250896  -0.000000
    14  H    0.311655   0.000000
 Sum of Mulliken charges =  -0.00000  -0.00000

 Dipole moment (field-independent basis, Debye):
    X=              0.0002    Y=             -0.0001    Z=              0.0010  Tot=              0.0011
 Quadrupole moment (field-independent basis, Debye-Ang):
   XX=            -56.5815   YY=            -66.7474   ZZ=            -56.5799
   XY=             -2.3135   XZ=             -0.2590   YZ=             -0.8369

  Exact polarizability: 149.724  50.555 152.393 -10.197   2.887  58.085
 Approx polarizability: 189.470  87.457 203.359 -11.062   1.531  67.195

                      1                      2                      3
                      A                      A                      A
 Frequencies --     97.8920               164.1661               187.6664
 Red. masses --     13.8719                 6.9905                 6.6486
 Frc consts  --      0.0783                 0.1110                 0.1380
 IR Inten    --      4.9590                 1.9411                 0.0000

                      4                      5                      6
                      A                      A                      A
 Frequencies --    320.0782               335.0321               391.2724
 Red. masses --      5.7747                 5.1773                10.7965
 Frc consts  --      0.3486                 0.3424                 0.9739
 IR Inten    --      0.0000                86.0147                 0.0000

                      7                      8                      9
                      A                      A                      A
 Frequencies --    423.4896               423.7231               477.0962
 Red. masses --      4.1727                 6.1107                 9.3878
 Frc consts  --      0.4409                 0.6464                 1.2590
 IR Inten    --     12.8606                22.3659                 0.0000

                     10                     11                     12
                      A                      A                      A
 Frequencies --    499.4357               663.1241               671.1719
 Red. masses --     10.9089                 1.1342                 6.2131
 Frc consts  --      1.6032                 0.2938                 1.6490
 IR Inten    --      0.0000               329.4711                 0.0008

                     13                     14                     15
                      A                      A                      A
 Frequencies --    671.9030               682.7936               737.4654
 Red. masses --      1.0793                 4.5324                 6.5585
 Frc consts  --      0.2871                 1.2450                 2.1015
 IR Inten    --      0.0001                 0.0001                 0.0000

                     16                     17                     18
                      A                      A                      A
 Frequencies --    746.3301               760.5200               814.6754
 Red. masses --      8.6480                 6.3130                 1.2950
 Frc consts  --      2.8381                 2.1513                 0.5064
 IR Inten    --      5.5586                18.3336                 0.0002

                     19                     20                     21
                      A                      A                      A
 Frequencies --    824.2188               854.0606              1191.7779
 Red. masses --      2.7348                 1.4734                 1.3555
 Frc consts  --      1.0946                 0.6332                 1.1344
 IR Inten    --     74.0171               101.9761                 0.0000

                     22                     23                     24
                      A                      A                      A
 Frequencies --   1204.3173              1231.6646              1247.9498
 Red. masses --      2.2624                 1.8929                 1.9757
 Frc consts  --      1.9333                 1.6919                 1.8128
 IR Inten    --      1.1747              1114.1639                 0.0000

                     25                     26                     27
                      A                      A                      A
 Frequencies --   1277.0821              1346.9804              1398.0488
 Red. masses --      7.3025                 5.5721                 1.9613
 Frc consts  --      7.0171                 5.9565                 2.2586
 IR Inten    --      0.0000               192.3473              1263.4045

                     28                     29                     30
                      A                      A                      A
 Frequencies --   1429.7456              1654.4165              1678.5890
 Red. masses --      2.4830                 6.2490                10.1720
 Frc consts  --      2.9905                10.0774                16.8868
 IR Inten    --      0.0000              1786.3429                 0.0000

                     31                     32                     33
                      A                      A                      A
 Frequencies --   1687.5912              1690.5265              3206.6978
 Red. masses --     10.7348                 7.0205                 1.0935
 Frc consts  --     18.0126                11.8212                 6.6248
 IR Inten    --    192.5658                 0.0000                 0.6347

                     34                     35                     36
                      A                      A                      A
 Frequencies --   3207.7271              3561.4411              3565.3986
 Red. masses --      1.0933                 1.0641                 1.0643
 Frc consts  --      6.6279                 7.9525                 7.9717
 IR Inten    --      0.0000                 0.0000               587.7581

 - Thermochemistry -
 -------------------
 Temperature   298.150 Kelvin.  Pressure   1.00000 Atm.
 Atom     1 has atomic number  8 and mass  15.99491

 Molecular mass:   140.01096 amu.
 Principal axes and moments of inertia in atomic units:
                           1         2         3
     Eigenvalues --   720.414391586.499352306.91370
           X            0.86270  -0.47614   0.17040
           Y            0.49765   0.85922  -0.11866
           Z           -0.08992   0.18717   0.97820
 This molecule is an asymmetric top.
 Rotational symmetry number  1.
 Warning -- assumption of classical behavior for rotation
           may cause significant error
 Rotational temperatures (Kelvin)      0.12023     0.05459     0.03755
 Rotational constants (GHZ):           2.50514     1.13756     0.78232
 Zero-point vibrational energy     247184.8 (Joules/Mol)
                                   59.07858 (Kcal/Mol)
 Warning -- explicit consideration of  10 degrees of freedom as
           vibrations may cause significant error
 Vibrational temperatures:    140.84   236.20   270.01   460.52   482.04
          (Kelvin)            562.95   609.31   609.64   686.44   718.58
                              954.09   965.67   966.72   982.39  1061.05
                             1073.80  1094.22  1172.14  1185.87  1228.80
                             1714.70  1732.74  1772.09  1795.52  1837.44
                             1938.00  2011.48  2057.09  2380.34  2415.12
                             2428.07  2432.29  4613.72  4615.20  5124.12
                             5129.81

 Zero-point correction=                           0.094148 (Hartree/Particle)
 Thermal correction to Energy=                    0.102150
 Thermal correction to Enthalpy=                  0.103094
 Thermal correction to Gibbs Free Energy=         0.061309
 Sum of electronic and zero-point Energies=           -531.999858
 Sum of electronic and thermal Energies=              -531.991856
 Sum of electronic and thermal Enthalpies=            -531.990911
 Sum of electronic and thermal Free Energies=         -532.032696

                     E (Thermal)             CV                S
                      KCal/Mol        Cal/Mol-Kelvin    Cal/Mol-Kelvin
 Total                   64.100             30.754             87.943
 Electronic               0.000              0.000              0.000
 Translational            0.889              2.981             40.721
 Rotational               0.889              2.981             29.357
 Vibrational             62.322             24.792             17.865
 Vibration     1          0.603              1.951              3.496
 Vibration     2          0.623              1.886              2.501
 Vibration     3          0.632              1.857              2.251
 Vibration     4          0.706              1.635              1.310
 Vibration     5          0.716              1.606              1.236
 Vibration     6          0.759              1.489              0.995
 Vibration     7          0.786              1.419              0.880
 Vibration     8          0.786              1.419              0.879
 Vibration     9          0.834              1.301              0.718
 Vibration    10          0.855              1.251              0.660

 Optimization completed.
    -- Stationary point found.
 Normal termination of Gaussian 16 at Sat Feb 10 10:47:36 2024.
