 Q-Chem 5.4, Q-Chem, Inc., Pleasanton, CA (2021)
 Q-Chem 5.4.0 for Intel X86 EM64T Linux

User input:
--------------------------------------------------------------
$molecule
0 1
C                 -1.6143390000     -5.3592600000      1.4568160000
C                 -0.3914840000     -5.5867090000      0.7289190000
C                  0.3337550000     -4.5465320000      0.2110390000
C                 -0.2172260000     -3.1126920000      0.3250160000
C                 -2.1297120000     -3.9146170000      1.6366600000
C                 -1.4504300000     -2.8859020000      1.0397640000
O                 -2.2843790000     -6.2554050000      1.9527450000
O                  0.4305250000     -2.2231230000     -0.2099340000
N                 -3.2685640000     -3.9255220000      2.3595850000
N                  1.5007050000     -4.5443600000     -0.4590690000
C                 -3.9629110000     -2.8872580000      3.1416560000
C                 -3.0708410000     -2.1764330000      4.1625800000
C                 -4.8259260000     -1.9087790000      2.3076760000
C                  2.5414200000     -5.5694230000     -0.5903230000
C                  3.9161320000     -4.8900400000     -0.5591720000
C                  2.4294660000     -6.4479270000     -1.8577530000
N                 -5.2552360000     -2.3803450000      1.1097730000
N                  1.5034550000     -6.0797350000     -2.7760470000
C                  1.2654840000     -6.8458860000     -3.9906380000
C                 -6.0644370000     -1.5707430000      0.2109710000
O                 -5.1719590000     -0.8382320000      2.7776600000
O                  3.1883380000     -7.3942480000     -1.9925180000
Cl                 0.0571370000     -7.2706960000      0.5437170000
Cl                -1.9985510000     -1.2251660000      1.0456550000
H                 -3.4879710000     -4.8853810000      2.6227290000
H                  1.7626600000     -3.5943390000     -0.7207690000
H                 -4.7087230000     -3.4573710000      3.7064820000
H                 -3.6809770000     -1.4781200000      4.7351180000
H                 -2.2731210000     -1.6115920000      3.6831220000
H                 -2.6313400000     -2.9092110000      4.8430580000
H                  2.4687090000     -6.2588110000      0.2478280000
H                  4.0700040000     -4.3811970000      0.3946740000
H                  4.0120700000     -4.1578330000     -1.3670520000
H                  4.6908750000     -5.6450200000     -0.6891270000
H                 -4.8348070000     -3.2261590000      0.7585700000
H                  0.8729310000     -5.3308510000     -2.5369720000
H                  2.1846060000     -7.3640480000     -4.2598340000
H                  0.9794910000     -6.1712740000     -4.7991700000
H                  0.4763780000     -7.5909570000     -3.8485780000
H                 -6.6399550000     -2.2257910000     -0.4443830000
H                 -5.4467830000     -0.9038080000     -0.3994090000
H                 -6.7473790000     -0.9614150000      0.8013960000
$end

$rem
BASIS  =  6-311++G(d,p)
GUI  =  2
JOB_TYPE  =  SP
METHOD  =  B3LYP
SCF_CONVERGENCE  = 8
SOLVENT_METHOD = sm12
$end

$smx
solvent dimethylformamide
charges CM5
$end

--------------------------------------------------------------

             Standard Nuclear Orientation (Angstroms)
    I     Atom           X                Y                Z
 ----------------------------------------------------------------
    1      C      -1.6143390000    -5.3592600000     1.4568160000
    2      C      -0.3914840000    -5.5867090000     0.7289190000
    3      C       0.3337550000    -4.5465320000     0.2110390000
    4      C      -0.2172260000    -3.1126920000     0.3250160000
    5      C      -2.1297120000    -3.9146170000     1.6366600000
    6      C      -1.4504300000    -2.8859020000     1.0397640000
    7      O      -2.2843790000    -6.2554050000     1.9527450000
    8      O       0.4305250000    -2.2231230000    -0.2099340000
    9      N      -3.2685640000    -3.9255220000     2.3595850000
   10      N       1.5007050000    -4.5443600000    -0.4590690000
   11      C      -3.9629110000    -2.8872580000     3.1416560000
   12      C      -3.0708410000    -2.1764330000     4.1625800000
   13      C      -4.8259260000    -1.9087790000     2.3076760000
   14      C       2.5414200000    -5.5694230000    -0.5903230000
   15      C       3.9161320000    -4.8900400000    -0.5591720000
   16      C       2.4294660000    -6.4479270000    -1.8577530000
   17      N      -5.2552360000    -2.3803450000     1.1097730000
   18      N       1.5034550000    -6.0797350000    -2.7760470000
   19      C       1.2654840000    -6.8458860000    -3.9906380000
   20      C      -6.0644370000    -1.5707430000     0.2109710000
   21      O      -5.1719590000    -0.8382320000     2.7776600000
   22      O       3.1883380000    -7.3942480000    -1.9925180000
   23      Cl      0.0571370000    -7.2706960000     0.5437170000
   24      Cl     -1.9985510000    -1.2251660000     1.0456550000
   25      H      -3.4879710000    -4.8853810000     2.6227290000
   26      H       1.7626600000    -3.5943390000    -0.7207690000
   27      H      -4.7087230000    -3.4573710000     3.7064820000
   28      H      -3.6809770000    -1.4781200000     4.7351180000
   29      H      -2.2731210000    -1.6115920000     3.6831220000
   30      H      -2.6313400000    -2.9092110000     4.8430580000
   31      H       2.4687090000    -6.2588110000     0.2478280000
   32      H       4.0700040000    -4.3811970000     0.3946740000
   33      H       4.0120700000    -4.1578330000    -1.3670520000
   34      H       4.6908750000    -5.6450200000    -0.6891270000
   35      H      -4.8348070000    -3.2261590000     0.7585700000
   36      H       0.8729310000    -5.3308510000    -2.5369720000
   37      H       2.1846060000    -7.3640480000    -4.2598340000
   38      H       0.9794910000    -6.1712740000    -4.7991700000
   39      H       0.4763780000    -7.5909570000    -3.8485780000
   40      H      -6.6399550000    -2.2257910000    -0.4443830000
   41      H      -5.4467830000    -0.9038080000    -0.3994090000
   42      H      -6.7473790000    -0.9614150000     0.8013960000
 ----------------------------------------------------------------

   16   -1985.0029198726      5.85e-09  Convergence criterion met
 Total energy in the final basis set =    -1985.0343917598

                    Orbital Energies (a.u.)
 --------------------------------------------------------------

 Alpha MOs
 -- Occupied --
********-101.5593 -19.1335 -19.1328 -19.0918 -19.0915 -14.3711 -14.3689
-14.3443 -14.3399 -10.2909 -10.2900 -10.2767 -10.2762 -10.2704 -10.2694
-10.2441 -10.2439 -10.2378 -10.2356 -10.1969 -10.1956 -10.1724 -10.1659
 -9.4752  -9.4746  -7.2399  -7.2393  -7.2300  -7.2295  -7.2293  -7.2288
 -1.0761  -1.0729  -1.0467  -1.0460  -0.9805  -0.9767  -0.9272  -0.9244
 -0.8908  -0.8778  -0.8268  -0.8025  -0.7771  -0.7339  -0.7143  -0.7139
 -0.6988  -0.6637  -0.6510  -0.6252  -0.6057  -0.5913  -0.5814  -0.5757
 -0.5536  -0.5455  -0.5322  -0.5089  -0.4968  -0.4839  -0.4725  -0.4674
 -0.4667  -0.4614  -0.4599  -0.4531  -0.4475  -0.4446  -0.4353  -0.4312
 -0.4272  -0.4221  -0.4155  -0.4074  -0.3996  -0.3951  -0.3925  -0.3920
 -0.3867  -0.3789  -0.3744  -0.3644  -0.3632  -0.3560  -0.3454  -0.3344
 -0.3241  -0.3213  -0.3017  -0.2890  -0.2769  -0.2706  -0.2647  -0.2615
 -0.2488  -0.2264

          Ground-State Mulliken Net Atomic Charges

     Atom                 Charge (a.u.)
  ----------------------------------------
      1 C                    -0.555726
      2 C                    -0.119762
      3 C                     0.110430
      4 C                    -0.449275
      5 C                     0.079335
      6 C                    -0.125518
      7 O                    -0.269944
      8 O                    -0.252639
      9 N                     0.013049
     10 N                     0.170623
     11 C                     0.900204
     12 C                    -0.696956
     13 C                    -0.891495
     14 C                     0.319903
     15 C                    -0.351837
     16 C                    -0.705451
     17 N                    -0.009409
     18 N                    -0.072224
     19 C                    -0.208686
     20 C                    -0.212368
     21 O                    -0.497789
     22 O                    -0.489056
     23 Cl                    0.231778
     24 Cl                    0.181024
     25 H                     0.398661
     26 H                     0.376922
     27 H                     0.284328
     28 H                     0.143772
     29 H                     0.011930
     30 H                     0.218183
     31 H                     0.100324
     32 H                     0.236540
     33 H                     0.185792
     34 H                     0.151123
     35 H                     0.407670
     36 H                     0.414824
     37 H                     0.120781
     38 H                     0.205855
     39 H                     0.172440
     40 H                     0.210307
     41 H                     0.145786
     42 H                     0.116550
  ----------------------------------------
  Sum of atomic charges =     0.000000

                    Cartesian Multipole Moments
 -----------------------------------------------------------------
    Charge (ESU x 10^10)
                -0.0000
    Dipole Moment (Debye)
         X      -1.5012      Y      -0.1364      Z      -2.1428
       Tot       2.6199
    Quadrupole Moments (Debye-Ang)
        XX    -154.2815     XY      27.3845     YY    -196.6868
        XZ      13.2012     YZ       0.3702     ZZ    -146.0703

 Total job time:  1865.89s(wall), 14377.07s(cpu)
        *  Thank you very much for using Q-Chem.  Have a nice day.  *
