 Gaussian 16, Revision A.03,
 Gaussian 16:  ES64L-G16RevA.03 25-Dec-2016

 --------------------------------------
 #P UB3LYP/6-311++G(d,p) nosym opt freq
 --------------------------------------

 --------
 Oxidized
 --------
 Symbolic Z-matrix:
 Charge =  0 Multiplicity = 1

 SCF Done:  E(UB3LYP) =  -1985.00514789     A.U. after   17 cycles
 Optimization completed.
    -- Stationary point found.
 Normal termination of Gaussian 16 at Wed Jan 10 16:59:49 2024.

 ----------------------------------------------------------------------
 #P Geom=AllCheck Guess=TCheck SCRF=Check GenChk UB3LYP/6-311++G(d,p) F
 req
 ----------------------------------------------------------------------

 Structure from the checkpoint file:  "101.chk"
 --------
 Oxidized
 --------
 Charge =  0 Multiplicity = 1

                          Input orientation:
 ---------------------------------------------------------------------
 Center     Atomic      Atomic             Coordinates (Angstroms)
 Number     Number       Type             X           Y           Z
 ---------------------------------------------------------------------
      1          6           0       -1.614339   -5.359260    1.456816
      2          6           0       -0.391484   -5.586709    0.728919
      3          6           0        0.333755   -4.546532    0.211039
      4          6           0       -0.217226   -3.112692    0.325016
      5          6           0       -2.129712   -3.914617    1.636660
      6          6           0       -1.450430   -2.885902    1.039764
      7          8           0       -2.284379   -6.255405    1.952745
      8          8           0        0.430525   -2.223123   -0.209934
      9          7           0       -3.268564   -3.925522    2.359585
     10          7           0        1.500705   -4.544360   -0.459069
     11          6           0       -3.962911   -2.887258    3.141656
     12          6           0       -3.070841   -2.176433    4.162580
     13          6           0       -4.825926   -1.908779    2.307676
     14          6           0        2.541420   -5.569423   -0.590323
     15          6           0        3.916132   -4.890040   -0.559172
     16          6           0        2.429466   -6.447927   -1.857753
     17          7           0       -5.255236   -2.380345    1.109773
     18          7           0        1.503455   -6.079735   -2.776047
     19          6           0        1.265484   -6.845886   -3.990638
     20          6           0       -6.064437   -1.570743    0.210971
     21          8           0       -5.171959   -0.838232    2.777660
     22          8           0        3.188338   -7.394248   -1.992518
     23         17           0        0.057137   -7.270696    0.543717
     24         17           0       -1.998551   -1.225166    1.045655
     25          1           0       -3.487971   -4.885381    2.622729
     26          1           0        1.762660   -3.594339   -0.720769
     27          1           0       -4.708723   -3.457371    3.706482
     28          1           0       -3.680977   -1.478120    4.735118
     29          1           0       -2.273121   -1.611592    3.683122
     30          1           0       -2.631340   -2.909211    4.843058
     31          1           0        2.468709   -6.258811    0.247828
     32          1           0        4.070004   -4.381197    0.394674
     33          1           0        4.012070   -4.157833   -1.367052
     34          1           0        4.690875   -5.645020   -0.689127
     35          1           0       -4.834807   -3.226159    0.758570
     36          1           0        0.872931   -5.330851   -2.536972
     37          1           0        2.184606   -7.364048   -4.259834
     38          1           0        0.979491   -6.171274   -4.799170
     39          1           0        0.476378   -7.590957   -3.848578
     40          1           0       -6.639955   -2.225791   -0.444383
     41          1           0       -5.446783   -0.903808   -0.399409
     42          1           0       -6.747379   -0.961415    0.801396
 ---------------------------------------------------------------------

 SCF Done:  E(UB3LYP) =  -1985.00514789     A.U. after    1 cycles

 Alpha  occ. eigenvalues -- -101.56937-101.56881 -19.14602 -19.14528 -19.10099
 Alpha  occ. eigenvalues --  -19.10097 -14.38432 -14.38236 -14.35768 -14.35335
 Alpha  occ. eigenvalues --  -10.30271 -10.30174 -10.28691 -10.28672 -10.28226
 Alpha  occ. eigenvalues --  -10.28146 -10.25591 -10.25558 -10.25208 -10.24927
 Alpha  occ. eigenvalues --  -10.21493 -10.21267 -10.19006 -10.17758  -9.48400
 Alpha  occ. eigenvalues --   -9.48362  -7.24890  -7.24849  -7.23867  -7.23830
 Alpha  occ. eigenvalues --   -7.23825  -7.23783  -1.08804  -1.08482  -1.05633
 Alpha  occ. eigenvalues --   -1.05583  -0.99352  -0.98994  -0.94065  -0.93790
 Alpha  occ. eigenvalues --   -0.90206  -0.88826  -0.83826  -0.81600  -0.79030
 Alpha  occ. eigenvalues --   -0.74580  -0.73080  -0.72889  -0.71138  -0.67856
 Alpha  occ. eigenvalues --   -0.66510  -0.63857  -0.61824  -0.60537  -0.59537
 Alpha  occ. eigenvalues --   -0.58954  -0.56713  -0.55842  -0.54590  -0.52291
 Alpha  occ. eigenvalues --   -0.51129  -0.49692  -0.48488  -0.48032  -0.47954
 Alpha  occ. eigenvalues --   -0.47329  -0.47150  -0.46427  -0.46144  -0.45929
 Alpha  occ. eigenvalues --   -0.44798  -0.44358  -0.43851  -0.43399  -0.42993
 Alpha  occ. eigenvalues --   -0.42059  -0.41260  -0.41105  -0.40785  -0.40687
 Alpha  occ. eigenvalues --   -0.39949  -0.39223  -0.38711  -0.37633  -0.37443
 Alpha  occ. eigenvalues --   -0.36674  -0.35549  -0.34463  -0.33222  -0.32941
 Alpha  occ. eigenvalues --   -0.31281  -0.29988  -0.28563  -0.27910  -0.27612
 Alpha  occ. eigenvalues --   -0.27274  -0.25906  -0.23783
 Alpha virt. eigenvalues --   -0.13259  -0.02932  -0.02392  -0.01979  -0.01083
 Alpha virt. eigenvalues --   -0.01007  -0.00788  -0.00224   0.00006   0.00570
 Alpha virt. eigenvalues --    0.00603   0.00939   0.01067   0.01831   0.02232

  Beta  occ. eigenvalues -- -101.56937-101.56881 -19.14602 -19.14528 -19.10099
  Beta  occ. eigenvalues --  -19.10097 -14.38432 -14.38236 -14.35768 -14.35335
  Beta  occ. eigenvalues --  -10.30271 -10.30174 -10.28691 -10.28672 -10.28226
  Beta  occ. eigenvalues --  -10.28146 -10.25591 -10.25558 -10.25208 -10.24927
  Beta  occ. eigenvalues --  -10.21493 -10.21267 -10.19006 -10.17758  -9.48400
  Beta  occ. eigenvalues --   -9.48362  -7.24890  -7.24849  -7.23867  -7.23830
  Beta  occ. eigenvalues --   -7.23825  -7.23783  -1.08804  -1.08482  -1.05633
  Beta  occ. eigenvalues --   -1.05583  -0.99352  -0.98994  -0.94065  -0.93790
  Beta  occ. eigenvalues --   -0.90206  -0.88826  -0.83826  -0.81600  -0.79030
  Beta  occ. eigenvalues --   -0.74580  -0.73080  -0.72889  -0.71138  -0.67856
  Beta  occ. eigenvalues --   -0.66510  -0.63857  -0.61824  -0.60537  -0.59537
  Beta  occ. eigenvalues --   -0.58954  -0.56713  -0.55842  -0.54590  -0.52291
  Beta  occ. eigenvalues --   -0.51129  -0.49692  -0.48488  -0.48032  -0.47954
  Beta  occ. eigenvalues --   -0.47329  -0.47150  -0.46427  -0.46144  -0.45929
  Beta  occ. eigenvalues --   -0.44798  -0.44358  -0.43851  -0.43399  -0.42993
  Beta  occ. eigenvalues --   -0.42059  -0.41260  -0.41105  -0.40785  -0.40687
  Beta  occ. eigenvalues --   -0.39949  -0.39223  -0.38711  -0.37633  -0.37443
  Beta  occ. eigenvalues --   -0.36674  -0.35549  -0.34463  -0.33222  -0.32941
  Beta  occ. eigenvalues --   -0.31281  -0.29988  -0.28563  -0.27910  -0.27612
  Beta  occ. eigenvalues --   -0.27274  -0.25906  -0.23783
  Beta virt. eigenvalues --   -0.13259  -0.02932  -0.02392  -0.01979  -0.01083
  Beta virt. eigenvalues --   -0.01007  -0.00788  -0.00224   0.00006   0.00570
  Beta virt. eigenvalues --    0.00603   0.00939   0.01067   0.01831   0.02232

 Mulliken charges and spin densities:
               1          2
     1  C   -0.483315  -0.000000
     2  C    0.068161   0.000000
     3  C   -0.328278  -0.000000
     4  C   -0.344921   0.000000
     5  C   -0.307649   0.000000
     6  C    0.023538  -0.000000
     7  O   -0.208606   0.000000
     8  O   -0.197702  -0.000000
     9  N   -0.124438  -0.000000
    10  N    0.015123   0.000000
    11  C    0.269019  -0.000000
    12  C   -0.539841   0.000000
    13  C   -0.452218   0.000000
    14  C    0.081179  -0.000000
    15  C   -0.574414  -0.000000
    16  C   -0.214806   0.000000
    17  N   -0.104262  -0.000000
    18  N   -0.136528   0.000000
    19  C   -0.273565   0.000000
    20  C   -0.278546  -0.000000
    21  O   -0.287130  -0.000000
    22  O   -0.307940   0.000000
    23  Cl   0.507286   0.000000
    24  Cl   0.524688  -0.000000
    25  H    0.342617   0.000000
    26  H    0.320699  -0.000000
    27  H    0.191712   0.000000
    28  H    0.201860   0.000000
    29  H    0.125730  -0.000000
    30  H    0.163497  -0.000000
    31  H    0.199652   0.000000
    32  H    0.170982  -0.000000
    33  H    0.157373   0.000000
    34  H    0.205734   0.000000
    35  H    0.303775   0.000000
    36  H    0.310718   0.000000
    37  H    0.187321  -0.000000
    38  H    0.141074  -0.000000
    39  H    0.166168   0.000000
    40  H    0.142439  -0.000000
    41  H    0.162926   0.000000
    42  H    0.180890  -0.000000
 Sum of Mulliken charges =  -0.00000   0.00000

 Dipole moment (field-independent basis, Debye):
    X=             -1.2416    Y=             -0.0958    Z=             -1.8543  Tot=              2.2336
 Quadrupole moment (field-independent basis, Debye-Ang):
   XX=           -154.5623   YY=           -192.4108   ZZ=           -146.9259
   XY=             22.9633   XZ=             11.7610   YZ=              0.7586

  Exact polarizability: 286.251 -27.758 245.817 -56.838  11.981 227.805
 Approx polarizability: 427.880  35.158 413.152-101.302 -38.020 341.215

                      1                      2                      3
                      A                      A                      A
 Frequencies --     13.8502                25.6453                30.2917
 Red. masses --      5.7124                 4.7277                 5.8870
 Frc consts  --      0.0006                 0.0018                 0.0032
 IR Inten    --      0.0714                 0.5089                 0.4731

                      4                      5                      6
                      A                      A                      A
 Frequencies --     39.3259                42.9430                51.2768
 Red. masses --      1.7003                 1.9218                 5.0661
 Frc consts  --      0.0015                 0.0021                 0.0078
 IR Inten    --      1.3093                 0.3769                 7.4581

                      7                      8                      9
                      A                      A                      A
 Frequencies --     58.3548                66.9565                69.8640
 Red. masses --      1.2776                 3.8811                 8.9592
 Frc consts  --      0.0026                 0.0103                 0.0258
 IR Inten    --      0.8438                 3.0846                 3.2602

                     10                     11                     12
                      A                      A                      A
 Frequencies --     72.7462                91.2367               118.0486
 Red. masses --      5.4564                 6.5141                 4.3855
 Frc consts  --      0.0170                 0.0319                 0.0360
 IR Inten    --      5.3112                 0.5247                 1.3105

                     13                     14                     15
                      A                      A                      A
 Frequencies --    142.9073               152.4723               159.0334
 Red. masses --      3.7212                 3.9595                 5.0348
 Frc consts  --      0.0448                 0.0542                 0.0750
 IR Inten    --      0.3457                 2.7803                 0.1870

                     16                     17                     18
                      A                      A                      A
 Frequencies --    171.8428               184.6279               195.3989
 Red. masses --      3.2961                 2.5788                 1.6122
 Frc consts  --      0.0573                 0.0518                 0.0363
 IR Inten    --      2.4403                 6.7037                 1.9290

                     19                     20                     21
                      A                      A                      A
 Frequencies --    200.4756               214.7978               220.7072
 Red. masses --      6.9938                 5.4793                 3.5416
 Frc consts  --      0.1656                 0.1489                 0.1016
 IR Inten    --      0.8899                 3.1000                 0.5036

                     22                     23                     24
                      A                      A                      A
 Frequencies --    242.0261               252.9860               263.0152
 Red. masses --      1.4385                 4.2648                 4.7845
 Frc consts  --      0.0496                 0.1608                 0.1950
 IR Inten    --      1.6877                 2.1505                 1.3572

                     25                     26                     27
                      A                      A                      A
 Frequencies --    291.7791               303.2655               315.0805
 Red. masses --     10.9488                 5.9509                 4.1666
 Frc consts  --      0.5492                 0.3225                 0.2437
 IR Inten    --      0.5343                 5.5590                 5.6164

                     28                     29                     30
                      A                      A                      A
 Frequencies --    325.3853               340.7327               342.8131
 Red. masses --      3.7279                 5.0181                 4.9016
 Frc consts  --      0.2325                 0.3433                 0.3394
 IR Inten    --     12.2238                14.0333                17.5415

                     31                     32                     33
                      A                      A                      A
 Frequencies --    367.7002               400.8910               424.9718
 Red. masses --      5.4455                10.0014                 4.7377
 Frc consts  --      0.4338                 0.9470                 0.5041
 IR Inten    --      5.8813                18.4670                10.5099

                     34                     35                     36
                      A                      A                      A
 Frequencies --    460.0532               494.8308               511.5112
 Red. masses --      7.9452                 2.1899                 1.2248
 Frc consts  --      0.9908                 0.3159                 0.1888
 IR Inten    --      1.3112                41.3576                28.2372

                     37                     38                     39
                      A                      A                      A
 Frequencies --    530.0290               535.4582               550.6142
 Red. masses --      2.7064                 5.5689                 5.9034
 Frc consts  --      0.4480                 0.9407                 1.0545
 IR Inten    --     30.2593                17.5248                22.8994

                     40                     41                     42
                      A                      A                      A
 Frequencies --    580.6171               590.6708               599.1193
 Red. masses --      3.7783                 4.5526                 5.7485
 Frc consts  --      0.7505                 0.9358                 1.2157
 IR Inten    --     11.9369                11.6070                33.3947

                     43                     44                     45
                      A                      A                      A
 Frequencies --    619.5822               636.4719               747.4175
 Red. masses --      4.4368                 5.6583                 2.2230
 Frc consts  --      1.0035                 1.3505                 0.7317
 IR Inten    --     18.5733                 8.3449                31.3459

                     46                     47                     48
                      A                      A                      A
 Frequencies --    754.1836               756.6451               760.3653
 Red. masses --      2.7678                 1.6708                 6.2460
 Frc consts  --      0.9275                 0.5636                 2.1276
 IR Inten    --     12.2747                52.7632                 6.7833

                     49                     50                     51
                      A                      A                      A
 Frequencies --    765.6022               768.3870               781.0004
 Red. masses --      3.6912                 3.3778                 2.5493
 Frc consts  --      1.2747                 1.1750                 0.9162
 IR Inten    --     33.6283                46.0024                26.8264

                     52                     53                     54
                      A                      A                      A
 Frequencies --    798.9639               853.2532               858.0016
 Red. masses --      3.6603                 3.1454                 2.9843
 Frc consts  --      1.3766                 1.3492                 1.2944
 IR Inten    --     13.3505                11.8407                18.3402

                     55                     56                     57
                      A                      A                      A
 Frequencies --    895.8278               932.4934               944.3595
 Red. masses --      7.1238                 2.4150                 2.1494
 Frc consts  --      3.3683                 1.2373                 1.1294
 IR Inten    --      3.3132                 3.9662                 6.9938

                     58                     59                     60
                      A                      A                      A
 Frequencies --    997.2781              1015.9831              1031.0127
 Red. masses --      3.6862                 2.4477                 3.1657
 Frc consts  --      2.1601                 1.4886                 1.9827
 IR Inten    --     29.2772                15.3974                52.3846

                     61                     62                     63
                      A                      A                      A
 Frequencies --   1077.0709              1096.0800              1108.1303
 Red. masses --      2.4696                 3.9254                 2.2626
 Frc consts  --      1.6880                 2.7786                 1.6370
 IR Inten    --     14.2583                15.2140                11.2393

                     64                     65                     66
                      A                      A                      A
 Frequencies --   1125.8751              1142.3027              1144.0407
 Red. masses --      2.3835                 1.8911                 1.3216
 Frc consts  --      1.7801                 1.4539                 1.0191
 IR Inten    --     75.4167                33.3350                14.1788

                     67                     68                     69
                      A                      A                      A
 Frequencies --   1146.2936              1160.7163              1178.0402
 Red. masses --      1.6122                 2.3685                 1.7026
 Frc consts  --      1.2481                 1.8800                 1.3921
 IR Inten    --     18.0246                29.7409                 5.4583

                     70                     71                     72
                      A                      A                      A
 Frequencies --   1180.3471              1242.0276              1247.0987
 Red. masses --      1.7086                 3.3364                 3.7694
 Frc consts  --      1.4025                 3.0324                 3.4540
 IR Inten    --      5.2488                66.3785                94.6215

                     73                     74                     75
                      A                      A                      A
 Frequencies --   1255.9730              1260.5546              1310.6643
 Red. masses --      2.1834                 2.2794                 2.3449
 Frc consts  --      2.0293                 2.1340                 2.3733
 IR Inten    --    101.6846                50.9410                 1.5669

                     76                     77                     78
                      A                      A                      A
 Frequencies --   1312.9609              1319.8847              1321.5934
 Red. masses --      1.9894                 2.3682                 2.1329
 Frc consts  --      2.0206                 2.4307                 2.1950
 IR Inten    --     25.7966                88.1888                67.2088

                     79                     80                     81
                      A                      A                      A
 Frequencies --   1365.0968              1391.8508              1407.4752
 Red. masses --      1.3237                 1.2649                 1.2193
 Frc consts  --      1.4534                 1.4438                 1.4232
 IR Inten    --     11.0062                97.6000                18.3997

                     82                     83                     84
                      A                      A                      A
 Frequencies --   1409.4033              1445.6101              1447.6339
 Red. masses --      1.2128                 1.1639                 1.1658
 Frc consts  --      1.4194                 1.4331                 1.4394
 IR Inten    --     18.0787                 7.9614                 8.6104

                     85                     86                     87
                      A                      A                      A
 Frequencies --   1483.1487              1485.0123              1488.4761
 Red. masses --      1.0959                 1.1092                 1.0463
 Frc consts  --      1.4203                 1.4411                 1.3658
 IR Inten    --     55.7411                63.4646                14.0634

                     88                     89                     90
                      A                      A                      A
 Frequencies --   1495.3043              1500.8863              1504.1478
 Red. masses --      1.0484                 1.0537                 1.0805
 Frc consts  --      1.3811                 1.3985                 1.4403
 IR Inten    --      8.3687                11.7645                30.4819

                     91                     92                     93
                      A                      A                      A
 Frequencies --   1506.9267              1508.4143              1544.0220
 Red. masses --      1.1111                 1.1055                 1.7338
 Frc consts  --      1.4866                 1.4820                 2.4353
 IR Inten    --     23.6004                17.7961               853.8158

                     94                     95                     96
                      A                      A                      A
 Frequencies --   1554.8035              1556.5236              1563.5074
 Red. masses --      1.6726                 1.7110                 1.6119
 Frc consts  --      2.3823                 2.4423                 2.3216
 IR Inten    --    239.1328                71.2073               154.3131

                     97                     98                     99
                      A                      A                      A
 Frequencies --   1629.5399              1633.5301              1696.3977
 Red. masses --      5.8221                 7.5377                 8.5024
 Frc consts  --      9.1088                11.8507                14.4160
 IR Inten    --    769.7174               180.3280                 0.5791

                    100                    101                    102
                      A                      A                      A
 Frequencies --   1710.1604              1744.6868              1747.9715
 Red. masses --      9.7186                 9.7635                 9.9942
 Frc consts  --     16.7466                17.5102                17.9915
 IR Inten    --    211.5367               356.0564               239.7893

                    103                    104                    105
                      A                      A                      A
 Frequencies --   3025.1185              3027.8611              3031.7373
 Red. masses --      1.0437                 1.0418                 1.0393
 Frc consts  --      5.6274                 5.6272                 5.6282
 IR Inten    --     41.3490                47.7678                14.5556

                    106                    107                    108
                      A                      A                      A
 Frequencies --   3034.7817              3052.8740              3093.7656
 Red. masses --      1.0833                 1.0386                 1.0961
 Frc consts  --      5.8783                 5.7034                 6.1813
 IR Inten    --     15.0369                18.2370                21.3465

                    109                    110                    111
                      A                      A                      A
 Frequencies --   3095.6634              3096.5595              3125.5487
 Red. masses --      1.0928                 1.0982                 1.0987
 Frc consts  --      6.1702                 6.2045                 6.3239
 IR Inten    --     23.6779                17.0799                 5.8513

                    112                    113                    114
                      A                      A                      A
 Frequencies --   3129.3477              3136.6078              3138.0657
 Red. masses --      1.0876                 1.0992                 1.1031
 Frc consts  --      6.2751                 6.3717                 6.4000
 IR Inten    --      2.5784                 4.4264                 4.8122

                    115                    116                    117
                      A                      A                      A
 Frequencies --   3140.8374              3147.4160              3454.5149
 Red. masses --      1.1018                 1.1022                 1.0746
 Frc consts  --      6.4041                 6.4330                 7.5558
 IR Inten    --      3.0056                 5.1365                 5.8557

                    118                    119                    120
                      A                      A                      A
 Frequencies --   3459.6369              3634.7707              3634.9455
 Red. masses --      1.0751                 1.0769                 1.0770
 Frc consts  --      7.5819                 8.3828                 8.3844
 IR Inten    --    211.3458                64.8452                10.9351

 - Thermochemistry -
 -------------------
 Temperature   298.150 Kelvin.  Pressure   1.00000 Atm.
 Atom     1 has atomic number  6 and mass  12.00000

 Molecular mass:   376.07051 amu.
 Principal axes and moments of inertia in atomic units:
                           1         2         3
     Eigenvalues --  4350.96287********************
           X            0.74471   0.36626   0.55791
           Y           -0.51589   0.84626   0.13306
           Z           -0.42340  -0.38691   0.81917
 This molecule is an asymmetric top.
 Rotational symmetry number  1.
 Warning -- assumption of classical behavior for rotation
           may cause significant error
 Rotational temperatures (Kelvin)      0.01991     0.00479     0.00457
 Rotational constants (GHZ):           0.41479     0.09989     0.09513
 Zero-point vibrational energy     848591.5 (Joules/Mol)
                                  202.81823 (Kcal/Mol)
 Warning -- explicit consideration of  43 degrees of freedom as
           vibrations may cause significant error
 Vibrational temperatures:     19.93    36.90    43.58    56.58    61.79
          (Kelvin)             73.78    83.96    96.34   100.52   104.67
                              131.27   169.85   205.61   219.37   228.81
                              247.24   265.64   281.14   288.44   309.05
                              317.55   348.22   363.99   378.42   419.81
                              436.33   453.33   468.16   490.24   493.23
                              529.04   576.79   611.44   661.91   711.95
                              735.95   762.59   770.40   792.21   835.38
                              849.84   862.00   891.44   915.74  1075.37
                             1085.10  1088.64  1094.00  1101.53  1105.54
                             1123.69  1149.53  1227.64  1234.47  1288.90
                             1341.65  1358.72  1434.86  1461.77  1483.40
                             1549.66  1577.01  1594.35  1619.88  1643.52
                             1646.02  1649.26  1670.01  1694.94  1698.26
                             1787.00  1794.30  1807.06  1813.66  1885.75
                             1889.06  1899.02  1901.48  1964.07  2002.56
                             2025.04  2027.82  2079.91  2082.82  2133.92
                             2136.60  2141.59  2151.41  2159.44  2164.13
                             2168.13  2170.27  2221.50  2237.02  2239.49
                             2249.54  2344.54  2350.29  2440.74  2460.54
                             2510.22  2514.94  4352.47  4356.42  4361.99
                             4366.37  4392.40  4451.24  4453.97  4455.26
                             4496.97  4502.43  4512.88  4514.98  4518.96
                             4528.43  4970.28  4977.65  5229.62  5229.88

 Zero-point correction=                           0.323211 (Hartree/Particle)
 Thermal correction to Energy=                    0.349578
 Thermal correction to Enthalpy=                  0.350522
 Thermal correction to Gibbs Free Energy=         0.262934
 Sum of electronic and zero-point Energies=          -1984.681936
 Sum of electronic and thermal Energies=             -1984.655570
 Sum of electronic and thermal Enthalpies=           -1984.654626
 Sum of electronic and thermal Free Energies=        -1984.742214

                     E (Thermal)             CV                S
                      KCal/Mol        Cal/Mol-Kelvin    Cal/Mol-Kelvin
 Total                  219.364             93.058            184.345
 Electronic               0.000              0.000              0.000
 Translational            0.889              2.981             43.666
 Rotational               0.889              2.981             35.654
 Vibrational            217.586             87.097            105.024
 Vibration     1          0.593              1.986              7.364
 Vibration     2          0.593              1.985              6.141
 Vibration     3          0.594              1.984              5.810
 Vibration     4          0.594              1.981              5.293
 Vibration     5          0.595              1.980              5.118
 Vibration     6          0.596              1.977              4.768
 Vibration     7          0.596              1.974              4.512
 Vibration     8          0.598              1.970              4.241
 Vibration     9          0.598              1.968              4.157
 Vibration    10          0.599              1.967              4.078
 Vibration    11          0.602              1.955              3.633
 Vibration    12          0.608              1.934              3.132
 Vibration    13          0.616              1.910              2.765
 Vibration    14          0.619              1.900              2.641
 Vibration    15          0.621              1.892              2.561
 Vibration    16          0.626              1.877              2.415
 Vibration    17          0.631              1.861              2.281
 Vibration    18          0.636              1.846              2.176
 Vibration    19          0.638              1.839              2.129
 Vibration    20          0.645              1.818              2.003
 Vibration    21          0.647              1.810              1.953
 Vibration    22          0.658              1.776              1.788
 Vibration    23          0.664              1.758              1.710
 Vibration    24          0.670              1.741              1.642
 Vibration    25          0.687              1.689              1.464
 Vibration    26          0.695              1.668              1.399
 Vibration    27          0.702              1.645              1.336
 Vibration    28          0.709              1.625              1.283
 Vibration    29          0.720              1.594              1.209
 Vibration    30          0.722              1.590              1.199
 Vibration    31          0.740              1.539              1.089
 Vibration    32          0.767              1.468              0.959
 Vibration    33          0.787              1.416              0.875
 Vibration    34          0.818              1.339              0.766
 Vibration    35          0.850              1.261              0.671
 Vibration    36          0.867              1.224              0.630
 Vibration    37          0.885              1.184              0.587
 Vibration    38          0.890              1.172              0.575
 Vibration    39          0.906              1.138              0.543
 Vibration    40          0.937              1.073              0.484
 Vibration    41          0.948              1.052              0.466
 Vibration    42          0.957              1.034              0.451
 Vibration    43          0.980              0.991              0.417

 Optimization completed.
    -- Stationary point found.
 Normal termination of Gaussian 16 at Wed Jan 10 18:40:32 2024.
