 Q-Chem 5.4, Q-Chem, Inc., Pleasanton, CA (2021)
 Q-Chem 5.4.0 for Intel X86 EM64T Linux

User input:
--------------------------------------------------------------
$molecule
-2 1
O                 -4.3546210000      1.0094620000     -1.6106680000
C                 -3.1844130000      0.5749030000     -0.9720220000
C                 -1.9358330000      0.9871800000     -1.3955470000
C                 -0.7575160000      0.5424440000     -0.7432330000
C                  0.5370030000      1.0057730000     -1.2274300000
O                  0.6396830000      1.8007530000     -2.2223460000
C                  1.6876840000      0.5034640000     -0.5045290000
C                  2.9873700000      0.8946080000     -0.8969940000
C                  4.1272130000      0.4534790000     -0.2519600000
C                  3.9966990000     -0.4348970000      0.8585640000
C                  2.7548420000     -0.8446750000      1.2789950000
C                  1.5538160000     -0.4044160000      0.6303330000
C                  0.2902760000     -0.8149300000      1.0501120000
O                  0.1699820000     -1.6775930000      2.1291160000
C                 -0.8692660000     -0.3518530000      0.3762140000
C                 -2.1848330000     -0.7736570000      0.8065670000
O                 -2.3959450000     -1.5901370000      1.8202740000
C                 -3.3110360000     -0.2964250000      0.1173470000
O                 -4.5350540000     -0.7446910000      0.5883110000
H                 -4.0566120000      1.5896570000     -2.3182560000
H                 -1.8150110000      1.6628190000     -2.2386270000
H                  3.0475280000      1.5706230000     -1.7450670000
H                  5.1122760000      0.7760960000     -0.5823830000
H                  4.8873190000     -0.7898220000      1.3755190000
H                  2.6527190000     -1.5196220000      2.1224940000
H                 -0.8142200000     -1.8152130000      2.2259510000
H                 -4.2300490000     -1.3133300000      1.3292630000
$end
$rem
MAX_SCF_CYCLES=200
BASIS  =  6-311++G(d,p)
GUI  =  2
JOB_TYPE  =  SP
METHOD  =  B3LYP
SOLVENT_METHOD = PCM
$end
$pcm
theory = CPCM
$end
$solvent
dielectric 37.219
opticaldielectric 1.43
$end

--------------------------------------------------------------

             Standard Nuclear Orientation (Angstroms)
    I     Atom           X                Y                Z
 ----------------------------------------------------------------
    1      O      -4.3546210000     1.0094620000    -1.6106680000
    2      C      -3.1844130000     0.5749030000    -0.9720220000
    3      C      -1.9358330000     0.9871800000    -1.3955470000
    4      C      -0.7575160000     0.5424440000    -0.7432330000
    5      C       0.5370030000     1.0057730000    -1.2274300000
    6      O       0.6396830000     1.8007530000    -2.2223460000
    7      C       1.6876840000     0.5034640000    -0.5045290000
    8      C       2.9873700000     0.8946080000    -0.8969940000
    9      C       4.1272130000     0.4534790000    -0.2519600000
   10      C       3.9966990000    -0.4348970000     0.8585640000
   11      C       2.7548420000    -0.8446750000     1.2789950000
   12      C       1.5538160000    -0.4044160000     0.6303330000
   13      C       0.2902760000    -0.8149300000     1.0501120000
   14      O       0.1699820000    -1.6775930000     2.1291160000
   15      C      -0.8692660000    -0.3518530000     0.3762140000
   16      C      -2.1848330000    -0.7736570000     0.8065670000
   17      O      -2.3959450000    -1.5901370000     1.8202740000
   18      C      -3.3110360000    -0.2964250000     0.1173470000
   19      O      -4.5350540000    -0.7446910000     0.5883110000
   20      H      -4.0566120000     1.5896570000    -2.3182560000
   21      H      -1.8150110000     1.6628190000    -2.2386270000
   22      H       3.0475280000     1.5706230000    -1.7450670000
   23      H       5.1122760000     0.7760960000    -0.5823830000
   24      H       4.8873190000    -0.7898220000     1.3755190000
   25      H       2.6527190000    -1.5196220000     2.1224940000
   26      H      -0.8142200000    -1.8152130000     2.2259510000
   27      H      -4.2300490000    -1.3133300000     1.3292630000
 ----------------------------------------------------------------

    9    -914.9741828957      4.88e-06  Convergence criterion met
 Total energy in the final basis set =     -914.9741828957

                    Orbital Energies (a.u.)
 --------------------------------------------------------------

 Alpha MOs
 -- Occupied --
-19.1402 -19.1274 -19.1057 -19.0601 -19.0359 -10.2134 -10.1992 -10.1927
-10.1916 -10.1896 -10.1557 -10.1538 -10.1525 -10.1523 -10.1520 -10.1504
-10.1461 -10.1431 -10.1373  -1.0481  -1.0327  -1.0161  -0.9573  -0.9562
 -0.8370  -0.8167  -0.7642  -0.7336  -0.7117  -0.7053  -0.6522  -0.6231
 -0.5994  -0.5763  -0.5534  -0.5283  -0.5091  -0.5034  -0.4873  -0.4763
 -0.4585  -0.4289  -0.4210  -0.4186  -0.4085  -0.4050  -0.3964  -0.3892
 -0.3880  -0.3699  -0.3648  -0.3613  -0.3589  -0.3494  -0.3375  -0.3342
 -0.3231  -0.3152  -0.3108  -0.2784  -0.2491  -0.2440  -0.2373  -0.2115
 -0.2059  -0.1821  -0.1232

          Ground-State Mulliken Net Atomic Charges

     Atom                 Charge (a.u.)
  ----------------------------------------
      1 O                    -0.361107
      2 C                    -0.403756
      3 C                    -0.031232
      4 C                     0.854218
      5 C                    -0.465039
      6 O                    -0.634570
      7 C                    -0.084950
      8 C                    -0.038326
      9 C                    -0.540693
     10 C                    -0.465420
     11 C                    -0.167235
     12 C                     0.139103
     13 C                     0.055594
     14 O                    -0.505293
     15 C                     0.752620
     16 C                    -0.566788
     17 O                    -0.681703
     18 C                    -0.288288
     19 O                    -0.386695
     20 H                     0.317773
     21 H                     0.137187
     22 H                     0.145522
     23 H                     0.176650
     24 H                     0.177638
     25 H                     0.159108
     26 H                     0.393779
     27 H                     0.311901
  ----------------------------------------
  Sum of atomic charges =    -2.000000

                    Cartesian Multipole Moments
 -----------------------------------------------------------------
    Charge (ESU x 10^10)
                -9.6064
    Dipole Moment (Debye)
         X       6.2616      Y       0.1870      Z       0.2473
       Tot       6.2693
    Quadrupole Moments (Debye-Ang)
        XX    -177.8431     XY     -12.3313     YY    -135.8873
        XZ      11.1399     YZ      17.6142     ZZ    -142.5129

 Total job time:  71.77s(wall), 363.30s(cpu)
        *  Thank you very much for using Q-Chem.  Have a nice day.  *
