 Q-Chem 5.4, Q-Chem, Inc., Pleasanton, CA (2021)
 Q-Chem 5.4.0 for Intel X86 EM64T Linux

User input:
--------------------------------------------------------------
$molecule
-2 1
C                 -6.5604080000      0.8197080000     -1.8598360000
C                 -6.6916990000      1.0514770000     -3.2151890000
C                 -5.6939800000      0.5966020000     -4.1114860000
C                 -5.4401160000      0.1296350000     -1.3325630000
C                 -4.4234090000     -0.3318430000     -2.2436030000
C                 -4.5886690000     -0.0793030000     -3.6177260000
C                 -5.3165040000     -0.1081010000      0.0771100000
C                 -4.1432390000     -0.8147540000      0.4925000000
C                 -3.1436390000     -1.2808570000     -0.3539440000
C                 -3.2335380000     -1.0547970000     -1.7743730000
O                 -6.1637640000      0.2524680000      0.9882580000
O                 -2.3380730000     -1.4645580000     -2.5815630000
O                 -4.0892900000     -1.0125090000      1.8519810000
C                 -1.9600600000     -2.0445130000      0.1783810000
H                 -7.3122760000      1.1595120000     -1.1548620000
H                 -7.5608420000      1.5844920000     -3.5948450000
H                 -5.7944480000      0.7784790000     -5.1786840000
H                 -3.8060260000     -0.4383680000     -4.2783710000
H                 -4.9323450000     -0.5748490000      2.1237700000
C                 -0.7104830000     -1.1754450000      0.4306610000
C                  0.4877020000     -2.0219570000      0.9098550000
C                  1.7471820000     -1.2392510000      1.2002020000
C                  2.6472340000     -0.8987110000      0.1807720000
C                  2.0637000000     -0.8169150000      2.4957040000
C                  3.2266240000     -0.0935960000      2.7612490000
C                  4.1280370000      0.2398150000      1.7452580000
C                  3.8095360000     -0.1784690000      0.4457630000
C                  5.4023450000      1.0066860000      2.0577440000
C                  6.6783120000      0.1782500000      1.7814370000
C                  5.4823190000      2.3667200000      1.3292160000
C                  6.7599050000      3.1380830000      1.6918290000
C                  7.9567680000      0.9490540000      2.1393330000
C                  8.0225950000      2.3080980000      1.4338720000
H                 -1.6927650000     -2.8095960000     -0.5601980000
H                 -2.2342790000     -2.5458210000      1.1139360000
H                 -0.9403740000     -0.4091620000      1.1791010000
H                 -0.4493700000     -0.6572330000     -0.4968230000
H                  0.7017350000     -2.7781630000      0.1448850000
H                  0.1917410000     -2.5692530000      1.8133110000
H                  2.4295040000     -1.2052400000     -0.8380610000
H                  1.3877130000     -1.0596210000      3.3106740000
H                  3.4410800000      0.2146750000      3.7812880000
H                  4.4791990000      0.0571930000     -0.3758190000
H                  5.3891650000      1.2219670000      3.1349700000
H                  6.7040310000     -0.0996770000      0.7203290000
H                  6.6316810000     -0.7612460000      2.3449340000
H                  4.5948540000      2.9624800000      1.5712560000
H                  5.4541150000      2.1980300000      0.2455970000
H                  6.7238930000      3.4186410000      2.7533250000
H                  6.8050590000      4.0793680000      1.1297410000
H                  8.8438100000      0.3507660000      1.8931690000
H                  7.9912660000      1.1062110000      3.2260540000
H                  8.1319120000      2.1467130000      0.3527340000
H                  8.9167380000      2.8597810000      1.7518430000
$end
$rem
MAX_SCF_CYCLES=200
BASIS  =  6-311++G(d,p)
GUI  =  2
JOB_TYPE  =  SP
SCF_CONVERGENCE = 8
SCF_ALGORITHM = RCA_DIIS
THRESH = 14
scf_guess = GWH
METHOD  =  B3LYP
SOLVENT_METHOD = PCM
$end
$pcm
theory = CPCM
$end
$solvent
dielectric 37.219
opticaldielectric 1.43
$end

--------------------------------------------------------------

             Standard Nuclear Orientation (Angstroms)
    I     Atom           X                Y                Z
 ----------------------------------------------------------------
    1      C      -6.5604080000     0.8197080000    -1.8598360000
    2      C      -6.6916990000     1.0514770000    -3.2151890000
    3      C      -5.6939800000     0.5966020000    -4.1114860000
    4      C      -5.4401160000     0.1296350000    -1.3325630000
    5      C      -4.4234090000    -0.3318430000    -2.2436030000
    6      C      -4.5886690000    -0.0793030000    -3.6177260000
    7      C      -5.3165040000    -0.1081010000     0.0771100000
    8      C      -4.1432390000    -0.8147540000     0.4925000000
    9      C      -3.1436390000    -1.2808570000    -0.3539440000
   10      C      -3.2335380000    -1.0547970000    -1.7743730000
   11      O      -6.1637640000     0.2524680000     0.9882580000
   12      O      -2.3380730000    -1.4645580000    -2.5815630000
   13      O      -4.0892900000    -1.0125090000     1.8519810000
   14      C      -1.9600600000    -2.0445130000     0.1783810000
   15      H      -7.3122760000     1.1595120000    -1.1548620000
   16      H      -7.5608420000     1.5844920000    -3.5948450000
   17      H      -5.7944480000     0.7784790000    -5.1786840000
   18      H      -3.8060260000    -0.4383680000    -4.2783710000
   19      H      -4.9323450000    -0.5748490000     2.1237700000
   20      C      -0.7104830000    -1.1754450000     0.4306610000
   21      C       0.4877020000    -2.0219570000     0.9098550000
   22      C       1.7471820000    -1.2392510000     1.2002020000
   23      C       2.6472340000    -0.8987110000     0.1807720000
   24      C       2.0637000000    -0.8169150000     2.4957040000
   25      C       3.2266240000    -0.0935960000     2.7612490000
   26      C       4.1280370000     0.2398150000     1.7452580000
   27      C       3.8095360000    -0.1784690000     0.4457630000
   28      C       5.4023450000     1.0066860000     2.0577440000
   29      C       6.6783120000     0.1782500000     1.7814370000
   30      C       5.4823190000     2.3667200000     1.3292160000
   31      C       6.7599050000     3.1380830000     1.6918290000
   32      C       7.9567680000     0.9490540000     2.1393330000
   33      C       8.0225950000     2.3080980000     1.4338720000
   34      H      -1.6927650000    -2.8095960000    -0.5601980000
   35      H      -2.2342790000    -2.5458210000     1.1139360000
   36      H      -0.9403740000    -0.4091620000     1.1791010000
   37      H      -0.4493700000    -0.6572330000    -0.4968230000
   38      H       0.7017350000    -2.7781630000     0.1448850000
   39      H       0.1917410000    -2.5692530000     1.8133110000
   40      H       2.4295040000    -1.2052400000    -0.8380610000
   41      H       1.3877130000    -1.0596210000     3.3106740000
   42      H       3.4410800000     0.2146750000     3.7812880000
   43      H       4.4791990000     0.0571930000    -0.3758190000
   44      H       5.3891650000     1.2219670000     3.1349700000
   45      H       6.7040310000    -0.0996770000     0.7203290000
   46      H       6.6316810000    -0.7612460000     2.3449340000
   47      H       4.5948540000     2.9624800000     1.5712560000
   48      H       5.4541150000     2.1980300000     0.2455970000
   49      H       6.7238930000     3.4186410000     2.7533250000
   50      H       6.8050590000     4.0793680000     1.1297410000
   51      H       8.8438100000     0.3507660000     1.8931690000
   52      H       7.9912660000     1.1062110000     3.2260540000
   53      H       8.1319120000     2.1467130000     0.3527340000
   54      H       8.9167380000     2.8597810000     1.7518430000
 ----------------------------------------------------------------

   97   -1194.5988973243      9.49E-09 Convergence criterion met
 Total energy in the final basis set = -1194.59889732

                    Orbital Energies (a.u.)
 --------------------------------------------------------------

 Alpha MOs
 -- Occupied --
-19.1124 -19.0272 -19.0204 -10.1756 -10.1732 -10.1732 -10.1727 -10.1684
-10.1660 -10.1658 -10.1652 -10.1649 -10.1614 -10.1583 -10.1564 -10.1562
-10.1555 -10.1554 -10.1547 -10.1502 -10.1471 -10.1441 -10.1436 -10.1426
-10.1420 -10.1352 -10.1313 -10.1234  -1.0270  -0.9444  -0.9347  -0.8588
 -0.8255  -0.8239  -0.7915  -0.7715  -0.7499  -0.7397  -0.7335  -0.7242
 -0.7210  -0.6984  -0.6603  -0.6296  -0.6107  -0.6031  -0.6024  -0.5885
 -0.5791  -0.5633  -0.5542  -0.5428  -0.5347  -0.5030  -0.4947  -0.4723
 -0.4714  -0.4596  -0.4514  -0.4438  -0.4363  -0.4306  -0.4295  -0.4230
 -0.4177  -0.4154  -0.4086  -0.4044  -0.4002  -0.3889  -0.3868  -0.3808
 -0.3723  -0.3708  -0.3696  -0.3582  -0.3548  -0.3510  -0.3501  -0.3448
 -0.3368  -0.3363  -0.3319  -0.3300  -0.3245  -0.3176  -0.3128  -0.3083
 -0.3068  -0.2999  -0.2987  -0.2957  -0.2938  -0.2512  -0.2337  -0.2294
 -0.2253  -0.2162  -0.1986  -0.1921  -0.1070

          Ground-State Mulliken Net Atomic Charges

     Atom                 Charge (a.u.)
  ----------------------------------------
      1 C                    -0.033398
      2 C                    -0.443700
      3 C                    -0.516137
      4 C                     0.182833
      5 C                     0.226127
      6 C                     0.028652
      7 C                    -0.803415
      8 C                    -0.570025
      9 C                     1.711934
     10 C                    -0.815980
     11 O                    -0.749096
     12 O                    -0.665361
     13 O                    -0.350097
     14 C                    -0.401966
     15 H                     0.148668
     16 H                     0.166341
     17 H                     0.164796
     18 H                     0.142242
     19 H                     0.286724
     20 C                    -0.451464
     21 C                    -0.640812
     22 C                     1.035223
     23 C                    -0.348449
     24 C                    -0.570945
     25 C                    -0.415196
     26 C                     0.508979
     27 C                    -0.561292
     28 C                     0.294904
     29 C                    -0.469708
     30 C                    -0.460577
     31 C                    -0.411422
     32 C                    -0.396106
     33 C                    -0.400591
     34 H                     0.157308
     35 H                     0.198713
     36 H                     0.167416
     37 H                     0.185044
     38 H                     0.164501
     39 H                     0.149171
     40 H                     0.201593
     41 H                     0.199342
     42 H                     0.190884
     43 H                     0.201836
     44 H                     0.190187
     45 H                     0.149196
     46 H                     0.176143
     47 H                     0.177327
     48 H                     0.147005
     49 H                     0.135128
     50 H                     0.177158
     51 H                     0.176273
     52 H                     0.134993
     53 H                     0.120778
     54 H                     0.178319
  ----------------------------------------
  Sum of atomic charges =    -2.000000

                    Cartesian Multipole Moments
 -----------------------------------------------------------------
    Charge (ESU x 10^10)
                -9.6064
    Dipole Moment (Debye)
         X      41.1718      Y       5.4006      Z       8.5935
       Tot      42.4044
    Quadrupole Moments (Debye-Ang)
        XX    -380.9362     XY      -4.5367     YY    -190.6823
        XZ     -22.4384     YZ      -8.8444     ZZ    -213.9788

 Total job time:  4384.19s(wall), 27001.39s(cpu)
        *  Thank you very much for using Q-Chem.  Have a nice day.  *
