 Gaussian 16, Revision A.03,
 Gaussian 16:  ES64L-G16RevA.03 25-Dec-2016

 --------------------------------------
 #P UB3LYP/6-311++G(d,p) nosym opt freq
 --------------------------------------

 --------
 Oxidized
 --------
 Symbolic Z-matrix:
 Charge =  0 Multiplicity = 1

 SCF Done:  E(UB3LYP) =  -1148.54176490     A.U. after   16 cycles
 SCF Done:  E(UB3LYP) =  -1148.55935016     A.U. after   16 cycles
 SCF Done:  E(UB3LYP) =  -1148.56386411     A.U. after   14 cycles
 SCF Done:  E(UB3LYP) =  -1148.56427273     A.U. after   12 cycles
 SCF Done:  E(UB3LYP) =  -1148.56430888     A.U. after   11 cycles
 Optimization completed.
    -- Stationary point found.
 Normal termination of Gaussian 16 at Thu Dec 21 05:50:33 2023.

 ----------------------------------------------------------------------
 #P Geom=AllCheck Guess=TCheck SCRF=Check GenChk UB3LYP/6-311++G(d,p) F
 req
 ----------------------------------------------------------------------

 Structure from the checkpoint file:  "117.chk"
 --------
 Oxidized
 --------
 Charge =  0 Multiplicity = 1

                          Input orientation:
 ---------------------------------------------------------------------
 Center     Atomic      Atomic             Coordinates (Angstroms)
 Number     Number       Type             X           Y           Z
 ---------------------------------------------------------------------
      1         17           0        2.987574    2.852752    0.336376
      2          6           0        2.632053    1.141348    0.264302
      3          6           0        3.741306    0.298599    0.344943
      4          6           0        3.584224   -1.080348    0.298571
      5          6           0        2.314480   -1.626450    0.171038
      6          6           0        1.199565   -0.793924    0.089680
      7          6           0       -0.133792   -1.466401   -0.046412
      8          8           0       -0.216525   -2.683135   -0.082209
      9          6           0       -1.338734   -0.606583   -0.135046
     10          6           0       -2.599032   -1.200560   -0.262539
     11          6           0       -3.735730   -0.407379   -0.346719
     12          6           0       -3.621064    0.985231   -0.304072
     13          6           0       -2.372118    1.580936   -0.177494
     14          6           0       -1.221167    0.790415   -0.091950
     15          6           0        0.103547    1.475322    0.043563
     16          8           0        0.151848    2.690859    0.076303
     17          6           0        1.330039    0.616823    0.134380
     18          1           0        4.724462    0.740328    0.444160
     19          1           0        4.455002   -1.722540    0.362338
     20          1           0        2.157753   -2.696516    0.131932
     21          1           0       -2.660389   -2.281278   -0.293143
     22          1           0       -4.711691   -0.868743   -0.445499
     23          1           0       -4.508898    1.603850   -0.369878
     24          1           0       -2.262713    2.657393   -0.142624
 ---------------------------------------------------------------------

 SCF Done:  E(UB3LYP) =  -1148.56430888     A.U. after    1 cycles

 Alpha  occ. eigenvalues -- -101.56120 -19.13151 -19.12940 -10.28629 -10.28434
 Alpha  occ. eigenvalues --  -10.26744 -10.22735 -10.22027 -10.21306 -10.21285
 Alpha  occ. eigenvalues --  -10.21186 -10.21180 -10.20563 -10.20504 -10.20499
 Alpha  occ. eigenvalues --  -10.20272 -10.20150  -9.47595  -7.24083  -7.23104
 Alpha  occ. eigenvalues --   -7.22978  -1.06760  -1.06564  -0.91762  -0.89380
 Alpha  occ. eigenvalues --   -0.86251  -0.82034  -0.78323  -0.78067  -0.76600
 Alpha  occ. eigenvalues --   -0.69531  -0.67567  -0.65433  -0.61952  -0.58748
 Alpha  occ. eigenvalues --   -0.57162  -0.56323  -0.51118  -0.50243  -0.49790
 Alpha  occ. eigenvalues --   -0.49491  -0.46159  -0.46028  -0.45625  -0.45451
 Alpha  occ. eigenvalues --   -0.45237  -0.44595  -0.42220  -0.41102  -0.41032
 Alpha  occ. eigenvalues --   -0.39268  -0.38518  -0.37884  -0.37355  -0.35004
 Alpha  occ. eigenvalues --   -0.33017  -0.29693  -0.28579  -0.28525  -0.28258
 Alpha  occ. eigenvalues --   -0.27109  -0.26764
 Alpha virt. eigenvalues --   -0.12085  -0.08074  -0.04645  -0.03551  -0.01174
 Alpha virt. eigenvalues --   -0.00765   0.00553   0.01121   0.01565   0.02022
 Alpha virt. eigenvalues --    0.02508   0.03212   0.03750   0.04090   0.04179

  Beta  occ. eigenvalues -- -101.56120 -19.13151 -19.12940 -10.28629 -10.28434
  Beta  occ. eigenvalues --  -10.26744 -10.22735 -10.22027 -10.21306 -10.21285
  Beta  occ. eigenvalues --  -10.21186 -10.21180 -10.20563 -10.20504 -10.20499
  Beta  occ. eigenvalues --  -10.20272 -10.20150  -9.47595  -7.24083  -7.23104
  Beta  occ. eigenvalues --   -7.22978  -1.06760  -1.06564  -0.91762  -0.89380
  Beta  occ. eigenvalues --   -0.86251  -0.82034  -0.78323  -0.78067  -0.76600
  Beta  occ. eigenvalues --   -0.69531  -0.67567  -0.65433  -0.61952  -0.58748
  Beta  occ. eigenvalues --   -0.57162  -0.56323  -0.51118  -0.50243  -0.49790
  Beta  occ. eigenvalues --   -0.49491  -0.46159  -0.46028  -0.45625  -0.45451
  Beta  occ. eigenvalues --   -0.45237  -0.44595  -0.42220  -0.41102  -0.41032
  Beta  occ. eigenvalues --   -0.39268  -0.38518  -0.37884  -0.37355  -0.35004
  Beta  occ. eigenvalues --   -0.33017  -0.29693  -0.28579  -0.28525  -0.28258
  Beta  occ. eigenvalues --   -0.27109  -0.26764
  Beta virt. eigenvalues --   -0.12085  -0.08074  -0.04645  -0.03551  -0.01174
  Beta virt. eigenvalues --   -0.00765   0.00553   0.01121   0.01565   0.02022
  Beta virt. eigenvalues --    0.02508   0.03212   0.03750   0.04090   0.04179

 Mulliken charges and spin densities:
               1          2
     1  Cl   0.450186  -0.000000
     2  C    0.967082   0.000000
     3  C   -0.046244  -0.000000
     4  C   -0.513075  -0.000000
     5  C    0.346216  -0.000000
     6  C    0.236263  -0.000000
     7  C   -0.914677   0.000000
     8  O   -0.204551  -0.000000
     9  C    0.020706  -0.000000
    10  C    0.166100  -0.000000
    11  C   -0.331700  -0.000000
    12  C   -0.377637  -0.000000
    13  C    0.250795   0.000000
    14  C    0.088888  -0.000000
    15  C   -1.335501   0.000000
    16  O   -0.110643   0.000000
    17  C    0.003875   0.000000
    18  H    0.203417   0.000000
    19  H    0.181400   0.000000
    20  H    0.190792  -0.000000
    21  H    0.184372  -0.000000
    22  H    0.176961  -0.000000
    23  H    0.179127  -0.000000
    24  H    0.187849  -0.000000
 Sum of Mulliken charges =  -0.00000  -0.00000

 Dipole moment (field-independent basis, Debye):
    X=             -0.4825    Y=             -1.1878    Z=             -0.0710  Tot=              1.2840
 Quadrupole moment (field-independent basis, Debye-Ang):
   XX=            -79.7467   YY=           -115.8308   ZZ=           -105.9760
   XY=             -7.1949   XZ=              2.2179   YZ=             -0.8760

  Exact polarizability: 254.366   4.479 207.314  15.354   3.241  86.967
 Approx polarizability: 368.948   5.573 398.887  20.938   6.566 140.619

                      1                      2                      3
                      A                      A                      A
 Frequencies --     21.1699                50.4743               109.9039
 Red. masses --     10.1440                 8.2321                 4.7421
 Frc consts  --      0.0027                 0.0124                 0.0337
 IR Inten    --      4.1227                 2.4847                 0.0425

                      4                      5                      6
                      A                      A                      A
 Frequencies --    155.1914               178.7795               191.1854
 Red. masses --      6.8789                 9.8029                 4.7048
 Frc consts  --      0.0976                 0.1846                 0.1013
 IR Inten    --      0.7312                 1.1679                 0.0569

                      7                      8                      9
                      A                      A                      A
 Frequencies --    240.7210               271.3627               331.1202
 Red. masses --      5.9127                 7.4969                 9.5220
 Frc consts  --      0.2019                 0.3253                 0.6151
 IR Inten    --      0.0047                 0.1477                 0.1708

                     10                     11                     12
                      A                      A                      A
 Frequencies --    360.0186               397.7911               407.2509
 Red. masses --      7.9934                 8.8124                10.5571
 Frc consts  --      0.6104                 0.8216                 1.0316
 IR Inten    --      0.2474                13.0709                13.9763

                     13                     14                     15
                      A                      A                      A
 Frequencies --    425.3080               431.0477               461.2824
 Red. masses --      3.3794                 5.0809                 9.6398
 Frc consts  --      0.3602                 0.5562                 1.2085
 IR Inten    --      0.0662                 0.0130                 1.8482

                     16                     17                     18
                      A                      A                      A
 Frequencies --    487.0008               492.0354               523.7116
 Red. masses --     11.6685                 3.8778                 5.0373
 Frc consts  --      1.6305                 0.5531                 0.8140
 IR Inten    --      1.3050                 0.9413                 3.3665

                     19                     20                     21
                      A                      A                      A
 Frequencies --    624.6904               659.3763               662.9031
 Red. masses --      6.6868                 6.9512                 4.6484
 Frc consts  --      1.5374                 1.7807                 1.2035
 IR Inten    --      1.9581                16.2112                 2.3800

                     22                     23                     24
                      A                      A                      A
 Frequencies --    699.0104               725.3005               738.4298
 Red. masses --      7.2725                 3.3549                 2.3922
 Frc consts  --      2.0936                 1.0399                 0.7686
 IR Inten    --      0.6493                26.5764                60.3804

                     25                     26                     27
                      A                      A                      A
 Frequencies --    762.8898               793.8189               812.6040
 Red. masses --      7.2407                 1.6919                 3.0721
 Frc consts  --      2.4829                 0.6282                 1.1952
 IR Inten    --     28.3359                 2.9062                 3.6417

                     28                     29                     30
                      A                      A                      A
 Frequencies --    820.6967               832.8957               917.3555
 Red. masses --      7.5412                 2.0533                 1.3909
 Frc consts  --      2.9927                 0.8392                 0.6896
 IR Inten    --     25.3301                30.1012                 0.0039

                     31                     32                     33
                      A                      A                      A
 Frequencies --    929.0120               951.3199               975.6784
 Red. masses --      6.7055                 1.3717                 7.6879
 Frc consts  --      3.4098                 0.7314                 4.3119
 IR Inten    --      7.4723                 0.0824                69.8159

                     34                     35                     36
                      A                      A                      A
 Frequencies --   1004.7950              1014.0868              1020.2632
 Red. masses --      1.3763                 1.3404                 1.3302
 Frc consts  --      0.8187                 0.8121                 0.8158
 IR Inten    --      1.4732                 0.9553                 0.0148

                     37                     38                     39
                      A                      A                      A
 Frequencies --   1057.4421              1096.6528              1114.0714
 Red. masses --      2.0836                 2.2211                 2.3077
 Frc consts  --      1.3727                 1.5738                 1.6876
 IR Inten    --      1.0467                 0.6027                 0.2669

                     40                     41                     42
                      A                      A                      A
 Frequencies --   1147.6729              1175.4746              1184.2223
 Red. masses --      3.8698                 1.7700                 1.2700
 Frc consts  --      3.0031                 1.4410                 1.0493
 IR Inten    --     68.7103                 3.3729                13.2393

                     43                     44                     45
                      A                      A                      A
 Frequencies --   1195.5567              1212.5031              1258.7545
 Red. masses --      1.5203                 1.6887                 2.1879
 Frc consts  --      1.2803                 1.4627                 2.0425
 IR Inten    --     12.5538                 0.1011                81.2925

                     46                     47                     48
                      A                      A                      A
 Frequencies --   1284.9242              1320.7804              1335.1737
 Red. masses --      3.1105                 2.6689                 8.9893
 Frc consts  --      3.0258                 2.7432                 9.4417
 IR Inten    --    381.6318               107.7479               136.7336

                     49                     50                     51
                      A                      A                      A
 Frequencies --   1361.7896              1446.6323              1469.9464
 Red. masses --      7.7365                 3.4592                 2.2852
 Frc consts  --      8.4530                 4.2652                 2.9092
 IR Inten    --      0.8821                17.7412                 5.3057

                     52                     53                     54
                      A                      A                      A
 Frequencies --   1482.3986              1508.8639              1595.8429
 Red. masses --      2.4373                 2.5828                 6.1033
 Frc consts  --      3.1556                 3.4644                 9.1580
 IR Inten    --      2.8175                 2.6582                 5.1524

                     55                     56                     57
                      A                      A                      A
 Frequencies --   1613.1482              1619.4573              1629.8839
 Red. masses --      5.8915                 7.1958                 5.7300
 Frc consts  --      9.0329                11.1191                 8.9684
 IR Inten    --     90.6615                 7.8123                43.1590

                     58                     59                     60
                      A                      A                      A
 Frequencies --   1720.9717              1732.3637              3171.0599
 Red. masses --     12.4964                12.4024                 1.0871
 Frc consts  --     21.8063                21.9297                 6.4409
 IR Inten    --     22.8275               301.2308                 3.2236

                     61                     62                     63
                      A                      A                      A
 Frequencies --   3179.7998              3185.4976              3201.9036
 Red. masses --      1.0887                 1.0921                 1.0931
 Frc consts  --      6.4854                 6.5294                 6.6026
 IR Inten    --      5.3032                10.3716                 2.1713

                     64                     65                     66
                      A                      A                      A
 Frequencies --   3202.4157              3205.5191              3209.1828
 Red. masses --      1.0930                 1.0940                 1.0943
 Frc consts  --      6.6041                 6.6233                 6.6399
 IR Inten    --      1.2567                 9.0453                 4.2046

 - Thermochemistry -
 -------------------
 Temperature   298.150 Kelvin.  Pressure   1.00000 Atm.
 Atom     1 has atomic number 17 and mass  34.96885

 Molecular mass:   242.01346 amu.
 Principal axes and moments of inertia in atomic units:
                           1         2         3
     Eigenvalues --  2346.047145202.459277548.50639
           X            0.96473  -0.24742  -0.08992
           Y            0.24633   0.96891  -0.02321
           Z            0.09287   0.00024   0.99568
 This molecule is an asymmetric top.
 Rotational symmetry number  1.
 Warning -- assumption of classical behavior for rotation
           may cause significant error
 Rotational temperatures (Kelvin)      0.03692     0.01665     0.01147
 Rotational constants (GHZ):           0.76927     0.34690     0.23909
 Zero-point vibrational energy     445013.1 (Joules/Mol)
                                  106.36069 (Kcal/Mol)
 Warning -- explicit consideration of  18 degrees of freedom as
           vibrations may cause significant error
 Vibrational temperatures:     30.46    72.62   158.13   223.29   257.22
          (Kelvin)            275.07   346.34   390.43   476.41   517.99
                              572.33   585.94   611.92   620.18   663.68
                              700.69   707.93   753.50   898.79   948.70
                              953.77  1005.72  1043.55  1062.44  1097.63
                             1142.13  1169.16  1180.80  1198.35  1319.87
                             1336.64  1368.74  1403.78  1445.68  1459.04
                             1467.93  1521.42  1577.84  1602.90  1651.25
                             1691.25  1703.83  1720.14  1744.52  1811.07
                             1848.72  1900.31  1921.02  1959.31  2081.38
                             2114.92  2132.84  2170.92  2296.06  2320.96
                             2330.04  2345.04  2476.09  2492.48  4562.45
                             4575.02  4583.22  4606.83  4607.56  4612.03
                             4617.30

 Zero-point correction=                           0.169497 (Hartree/Particle)
 Thermal correction to Energy=                    0.182030
 Thermal correction to Enthalpy=                  0.182974
 Thermal correction to Gibbs Free Energy=         0.129048
 Sum of electronic and zero-point Energies=          -1148.394812
 Sum of electronic and thermal Energies=             -1148.382279
 Sum of electronic and thermal Enthalpies=           -1148.381335
 Sum of electronic and thermal Free Energies=        -1148.435261

                     E (Thermal)             CV                S
                      KCal/Mol        Cal/Mol-Kelvin    Cal/Mol-Kelvin
 Total                  114.225             49.490            113.497
 Electronic               0.000              0.000              0.000
 Translational            0.889              2.981             42.353
 Rotational               0.889              2.981             32.888
 Vibrational            112.448             43.529             38.257
 Vibration     1          0.593              1.985              6.521
 Vibration     2          0.595              1.977              4.799
 Vibration     3          0.606              1.941              3.271
 Vibration     4          0.620              1.897              2.608
 Vibration     5          0.629              1.868              2.341
 Vibration     6          0.634              1.852              2.216
 Vibration     7          0.658              1.778              1.798
 Vibration     8          0.675              1.726              1.588
 Vibration     9          0.713              1.613              1.255
 Vibration    10          0.735              1.555              1.122
 Vibration    11          0.764              1.475              0.971
 Vibration    12          0.772              1.454              0.936
 Vibration    13          0.787              1.415              0.874
 Vibration    14          0.792              1.403              0.855
 Vibration    15          0.819              1.336              0.762
 Vibration    16          0.843              1.279              0.691
 Vibration    17          0.848              1.268              0.678
 Vibration    18          0.879              1.197              0.601

                           ! Non-Optimized Parameters !
 Normal termination of Gaussian 16 at Thu Dec 21 06:18:09 2023.
