 Q-Chem 5.4, Q-Chem, Inc., Pleasanton, CA (2021)
 Q-Chem 5.4.0 for Intel X86 EM64T Linux

User input:
--------------------------------------------------------------
$molecule
0 1
C                  0.9245440000      2.1600700000     -1.4316230000
C                  1.0715310000      3.2156450000     -0.5369840000
C                  1.8783500000      3.0658780000      0.5924250000
C                  1.5871640000      0.9535540000     -1.1937170000
C                  2.3995710000      0.7998030000     -0.0582220000
C                  2.5400020000      1.8628590000      0.8320930000
C                  1.4416800000     -0.1740500000     -2.1319370000
C                  2.1753370000     -1.4382350000     -1.8343260000
C                  2.9566380000     -1.6132190000     -0.7402550000
C                  3.1173590000     -0.4928600000      0.2098080000
O                  0.7534800000     -0.1396800000     -3.1457110000
O                  3.8203180000     -0.6095210000      1.2042830000
O                  1.9890270000     -2.4042370000     -2.7479430000
H                  0.3040240000      2.2522460000     -2.3145880000
H                  0.5595420000      4.1535930000     -0.7180540000
H                  1.9917180000      3.8895840000      1.2880900000
H                  3.1694050000      1.7299580000      1.7032240000
H                  1.3832190000     -2.0311550000     -3.4164380000
C                  3.6932860000     -2.8953570000     -0.4704040000
C                  5.1331150000     -2.8673300000     -1.0295910000
C                  5.8993270000     -4.1990920000     -0.8540070000
C                  7.2162210000     -4.1624190000     -1.6159140000
C                  8.2559140000     -3.2991670000     -1.2438800000
C                  7.4225340000     -4.9852510000     -2.7267740000
C                  9.4544230000     -3.2562920000     -1.9493860000
C                  9.6352520000     -4.0974060000     -3.0471310000
C                  8.6202540000     -4.9620110000     -3.4401010000
H                  3.1452920000     -3.7254350000     -0.9241770000
H                  3.7205480000     -3.0506740000      0.6093790000
H                  5.6885850000     -2.0585060000     -0.5439350000
H                  5.0925840000     -2.6286500000     -2.0968620000
H                  5.2897920000     -4.9866650000     -1.3139610000
C                  6.1065520000     -4.5753500000      0.6248910000
H                  8.1317410000     -2.6379510000     -0.3930710000
H                  6.6350380000     -5.6624510000     -3.0420200000
H                  8.7750480000     -5.6019770000     -4.3005170000
O                 10.7729570000     -4.0416200000     -3.8351020000
C                 12.0281210000     -4.0914350000     -3.2637850000
C                 12.3023690000     -4.7891420000     -2.0868130000
C                 13.0536960000     -3.4597000000     -3.9677260000
C                 14.3584330000     -3.5237660000     -3.4876410000
C                 13.6131560000     -4.8397440000     -1.6146140000
C                 14.6454780000     -4.2103410000     -2.3076390000
H                 10.2434940000     -2.5751390000     -1.6539700000
H                  5.1530490000     -4.7211310000      1.1379790000
H                  6.6548370000     -3.7956350000      1.1614940000
H                  6.6758010000     -5.5044340000      0.7094940000
H                 11.5044210000     -5.2868300000     -1.5505090000
H                 12.8123540000     -2.9308110000     -4.8818190000
H                 15.1527650000     -3.0311230000     -4.0371980000
H                 13.8253160000     -5.3832610000     -0.7005570000
H                 15.6616570000     -4.2555870000     -1.9341550000
$end
$rem
MAX_SCF_CYCLES=200
BASIS  =  6-311++G(d,p)
GUI  =  2
JOB_TYPE  =  SP
METHOD  =  B3LYP
SCF_CONVERGENCE = 8
SCF_ALGORITHM = RCA_DIIS
THRESH = 14
scf_guess = GWH
SOLVENT_METHOD = PCM
$end
$pcm
theory = CPCM
$end
$solvent
dielectric 37.219
opticaldielectric 1.43
$end

--------------------------------------------------------------

             Standard Nuclear Orientation (Angstroms)
    I     Atom           X                Y                Z
 ----------------------------------------------------------------
    1      C       0.9245440000     2.1600700000    -1.4316230000
    2      C       1.0715310000     3.2156450000    -0.5369840000
    3      C       1.8783500000     3.0658780000     0.5924250000
    4      C       1.5871640000     0.9535540000    -1.1937170000
    5      C       2.3995710000     0.7998030000    -0.0582220000
    6      C       2.5400020000     1.8628590000     0.8320930000
    7      C       1.4416800000    -0.1740500000    -2.1319370000
    8      C       2.1753370000    -1.4382350000    -1.8343260000
    9      C       2.9566380000    -1.6132190000    -0.7402550000
   10      C       3.1173590000    -0.4928600000     0.2098080000
   11      O       0.7534800000    -0.1396800000    -3.1457110000
   12      O       3.8203180000    -0.6095210000     1.2042830000
   13      O       1.9890270000    -2.4042370000    -2.7479430000
   14      H       0.3040240000     2.2522460000    -2.3145880000
   15      H       0.5595420000     4.1535930000    -0.7180540000
   16      H       1.9917180000     3.8895840000     1.2880900000
   17      H       3.1694050000     1.7299580000     1.7032240000
   18      H       1.3832190000    -2.0311550000    -3.4164380000
   19      C       3.6932860000    -2.8953570000    -0.4704040000
   20      C       5.1331150000    -2.8673300000    -1.0295910000
   21      C       5.8993270000    -4.1990920000    -0.8540070000
   22      C       7.2162210000    -4.1624190000    -1.6159140000
   23      C       8.2559140000    -3.2991670000    -1.2438800000
   24      C       7.4225340000    -4.9852510000    -2.7267740000
   25      C       9.4544230000    -3.2562920000    -1.9493860000
   26      C       9.6352520000    -4.0974060000    -3.0471310000
   27      C       8.6202540000    -4.9620110000    -3.4401010000
   28      H       3.1452920000    -3.7254350000    -0.9241770000
   29      H       3.7205480000    -3.0506740000     0.6093790000
   30      H       5.6885850000    -2.0585060000    -0.5439350000
   31      H       5.0925840000    -2.6286500000    -2.0968620000
   32      H       5.2897920000    -4.9866650000    -1.3139610000
   33      C       6.1065520000    -4.5753500000     0.6248910000
   34      H       8.1317410000    -2.6379510000    -0.3930710000
   35      H       6.6350380000    -5.6624510000    -3.0420200000
   36      H       8.7750480000    -5.6019770000    -4.3005170000
   37      O      10.7729570000    -4.0416200000    -3.8351020000
   38      C      12.0281210000    -4.0914350000    -3.2637850000
   39      C      12.3023690000    -4.7891420000    -2.0868130000
   40      C      13.0536960000    -3.4597000000    -3.9677260000
   41      C      14.3584330000    -3.5237660000    -3.4876410000
   42      C      13.6131560000    -4.8397440000    -1.6146140000
   43      C      14.6454780000    -4.2103410000    -2.3076390000
   44      H      10.2434940000    -2.5751390000    -1.6539700000
   45      H       5.1530490000    -4.7211310000     1.1379790000
   46      H       6.6548370000    -3.7956350000     1.1614940000
   47      H       6.6758010000    -5.5044340000     0.7094940000
   48      H      11.5044210000    -5.2868300000    -1.5505090000
   49      H      12.8123540000    -2.9308110000    -4.8818190000
   50      H      15.1527650000    -3.0311230000    -4.0371980000
   51      H      13.8253160000    -5.3832610000    -0.7005570000
   52      H      15.6616570000    -4.2555870000    -1.9341550000
 ----------------------------------------------------------------

  102   -1305.2884285605      4.75E-09 Convergence criterion met
 Total energy in the final basis set = -1305.28842856

                    Orbital Energies (a.u.)
 --------------------------------------------------------------

 Alpha MOs
 -- Occupied --
-19.1783 -19.1704 -19.1497 -19.1300 -10.2937 -10.2814 -10.2673 -10.2448
-10.2398 -10.2105 -10.2094 -10.2038 -10.2006 -10.1985 -10.1969 -10.1968
-10.1823 -10.1823 -10.1819 -10.1803 -10.1800 -10.1795 -10.1787 -10.1786
-10.1785 -10.1780 -10.1763 -10.1751 -10.1694 -10.1560  -1.1085  -1.0890
 -1.0675  -1.0637  -0.8925  -0.8734  -0.8603  -0.8442  -0.8127  -0.7873
 -0.7797  -0.7651  -0.7586  -0.7551  -0.7395  -0.7174  -0.6938  -0.6648
 -0.6533  -0.6423  -0.6278  -0.6199  -0.6135  -0.6044  -0.5892  -0.5738
 -0.5661  -0.5542  -0.5426  -0.5202  -0.5103  -0.4979  -0.4940  -0.4834
 -0.4807  -0.4738  -0.4704  -0.4677  -0.4586  -0.4522  -0.4513  -0.4480
 -0.4416  -0.4336  -0.4317  -0.4284  -0.4262  -0.4206  -0.4129  -0.4095
 -0.4070  -0.4009  -0.3987  -0.3863  -0.3805  -0.3771  -0.3726  -0.3707
 -0.3694  -0.3621  -0.3597  -0.3477  -0.3404  -0.3325  -0.3300  -0.3238
 -0.3036  -0.2900  -0.2802  -0.2800  -0.2686  -0.2629  -0.2599  -0.2533
 -0.2287

          Ground-State Mulliken Net Atomic Charges

     Atom                 Charge (a.u.)
  ----------------------------------------
      1 C                     0.199666
      2 C                    -0.368671
      3 C                    -0.433522
      4 C                     0.348109
      5 C                     0.074279
      6 C                     0.217930
      7 C                    -0.738866
      8 C                    -0.558823
      9 C                     1.742896
     10 C                    -0.909699
     11 O                    -0.318397
     12 O                    -0.272164
     13 O                    -0.230147
     14 H                     0.206807
     15 H                     0.224000
     16 H                     0.223869
     17 H                     0.201142
     18 H                     0.320991
     19 C                    -0.228301
     20 C                    -1.050420
     21 C                     0.276303
     22 C                     0.740906
     23 C                    -0.259584
     24 C                    -0.220478
     25 C                    -0.002415
     26 C                    -0.584073
     27 C                    -0.187648
     28 H                     0.232076
     29 H                     0.252827
     30 H                     0.192717
     31 H                     0.210878
     32 H                     0.217611
     33 C                    -0.767691
     34 H                     0.206406
     35 H                     0.192262
     36 H                     0.231324
     37 O                    -0.051495
     38 C                    -0.372288
     39 C                     0.210589
     40 C                    -0.162061
     41 C                    -0.246725
     42 C                    -0.136546
     43 C                    -0.356276
     44 H                     0.216413
     45 H                     0.144122
     46 H                     0.175712
     47 H                     0.159967
     48 H                     0.204508
     49 H                     0.210037
     50 H                     0.211865
     51 H                     0.223347
     52 H                     0.186731
  ----------------------------------------
  Sum of atomic charges =     0.000000

                    Cartesian Multipole Moments
 -----------------------------------------------------------------
    Charge (ESU x 10^10)
                -0.0000
    Dipole Moment (Debye)
         X      -2.0326      Y       2.7567      Z       1.3390
       Tot       3.6775
    Quadrupole Moments (Debye-Ang)
        XX    -184.9748     XY       8.7332     YY    -160.4387
        XZ      13.1415     YZ      -4.4021     ZZ    -187.4161

 Total job time:  4678.03s(wall), 29204.40s(cpu)
        *  Thank you very much for using Q-Chem.  Have a nice day.  *
