 Q-Chem 5.4, Q-Chem, Inc., Pleasanton, CA (2021)
 Q-Chem 5.4.0 for Intel X86 EM64T Linux

User input:
--------------------------------------------------------------
$molecule
0 1
C                 -3.0683270000     -1.7240670000     -0.0188160000
O                 -2.3146120000     -0.5301640000      0.2744040000
C                 -0.9848730000     -0.4815580000      0.0982350000
C                 -0.4143650000      0.6999640000     -0.2760500000
O                 -1.2040520000      1.7447690000     -0.6103960000
C                 -1.0186590000      2.9877730000      0.0917310000
C                  1.0533570000      0.8119590000     -0.4729690000
O                  1.5545200000      1.8378040000     -0.9076650000
C                  1.9213050000     -0.3748150000     -0.1616870000
C                  1.3430760000     -1.5168220000      0.2352680000
C                 -0.1158850000     -1.6503840000      0.4328180000
O                 -0.5857700000     -2.6809590000      0.8919360000
C                  3.3966650000     -0.1968560000     -0.3421870000
H                 -3.0239060000     -2.4280530000      0.8092520000
H                 -4.0883330000     -1.3759160000     -0.1761260000
H                 -2.7002130000     -2.2022420000     -0.9288240000
H                 -1.1746170000      2.8378350000      1.1645150000
H                 -1.7870310000      3.6549640000     -0.2949090000
H                 -0.0302480000      3.4042790000     -0.0986940000
H                  1.9158640000     -2.4086130000      0.4662330000
H                  3.7709620000      0.6007720000      0.3057790000
H                  3.9317620000     -1.1198760000     -0.1163360000
H                  3.6233790000      0.1102050000     -1.3665920000
$end
$rem
MAX_SCF_CYCLES=200
BASIS  =  6-311++G(d,p)
GUI  =  2
JOB_TYPE  =  SP
METHOD  =  B3LYP
SOLVENT_METHOD = COSMO
$end
$solvent
dielectric 37.219
opticaldielectric 1.43
$end

--------------------------------------------------------------

             Standard Nuclear Orientation (Angstroms)
    I     Atom           X                Y                Z
 ----------------------------------------------------------------
    1      C       3.3922550419    -0.1962743449     0.4677156043
    2      O       2.2572643993     0.5021606899    -0.0831504288
    3      C       1.0188466988    -0.0106351245    -0.0126811467
    4      C      -0.0395837479     0.8419855409     0.1070095640
    5      O       0.1856008157     2.1595802551     0.3076245562
    6      C      -0.4028138939     3.0967246939    -0.6132121627
    7      C      -1.4312560377     0.3282913280     0.1769690900
    8      O      -2.3707535523     1.0800893858     0.3882201947
    9      C      -1.6705205568    -1.1469280406     0.0184035017
   10      C      -0.6185270326    -1.9638768971    -0.1299414591
   11      C       0.7743902488    -1.4732963497    -0.1973520179
   12      O       1.6911968112    -2.2460491581    -0.4339633155
   13      C      -3.0943494755    -1.6072627582     0.0601161273
   14      H       3.7622757972    -0.9490445391    -0.2248793721
   15      H       4.1402288071     0.5780273211     0.6331241033
   16      H       3.1349832140    -0.6660635061     1.4192318460
   17      H      -0.0505590046     2.8935737467    -1.6292416888
   18      H      -0.0461109087     4.0752163420    -0.2964363342
   19      H      -1.4907323689     3.0621616867    -0.5692346236
   20      H      -0.7274426573    -3.0374767272    -0.2405891131
   21      H      -3.6735860574    -1.1423022935    -0.7426698692
   22      H      -3.1570861091    -2.6916361251    -0.0373616140
   23      H      -3.5690859750    -1.3010735748     0.9960460069
 ----------------------------------------------------------------

    9    -649.9985914771      8.19e-06  Convergence criterion met
 Total energy in the final basis set =     -649.9985914771
    5    -650.0140843383      3.24e-06  Convergence criterion met
 Total energy in the final basis set =     -650.0140843383

                    Orbital Energies (a.u.)
 --------------------------------------------------------------

 Alpha MOs
 -- Occupied --
-19.1735 -19.1628 -19.1435 -19.1414 -10.2918 -10.2881 -10.2652 -10.2558
-10.2221 -10.2203 -10.2186 -10.2014 -10.1755  -1.1014  -1.0846  -1.0691
 -1.0604  -0.8628  -0.8056  -0.7379  -0.7311  -0.6974  -0.6731  -0.6150
 -0.5972  -0.5539  -0.5305  -0.5226  -0.4948  -0.4822  -0.4738  -0.4670
 -0.4558  -0.4511  -0.4439  -0.4258  -0.4180  -0.4103  -0.4047  -0.3958
 -0.3766  -0.3699  -0.3427  -0.3242  -0.2997  -0.2838  -0.2801  -0.2474

          Ground-State Mulliken Net Atomic Charges

     Atom                 Charge (a.u.)
  ----------------------------------------
      1 C                    -0.302313
      2 O                    -0.203310
      3 C                     0.387961
      4 C                    -0.290027
      5 O                    -0.194551
      6 C                    -0.310533
      7 C                    -0.328140
      8 O                    -0.305291
      9 C                     1.239411
     10 C                    -0.881095
     11 C                    -0.060343
     12 O                    -0.306659
     13 C                    -0.341455
     14 H                     0.197364
     15 H                     0.172135
     16 H                     0.187320
     17 H                     0.169446
     18 H                     0.179275
     19 H                     0.179127
     20 H                     0.229211
     21 H                     0.201704
     22 H                     0.183567
     23 H                     0.197198
  ----------------------------------------
  Sum of atomic charges =     0.000000

                    Cartesian Multipole Moments
 -----------------------------------------------------------------
    Charge (ESU x 10^10)
                 0.0000
    Dipole Moment (Debye)
         X      -0.5440      Y      -1.0480      Z      -0.5178
       Tot       1.2893
    Quadrupole Moments (Debye-Ang)
        XX     -73.5601     XY       9.5757     YY     -75.5559
        XZ       6.0386     YZ      -6.5055     ZZ     -75.3275

 Total job time:  70.08s(wall), 204.14s(cpu)
        *  Thank you very much for using Q-Chem.  Have a nice day.  *
