 Gaussian 16, Revision A.03,
 Gaussian 16:  ES64L-G16RevA.03 25-Dec-2016

 ----------------------------------------------------------------------
 #P UB3LYP/6-311++G(d,p) nosym opt freq SCRF=(PCM,Solvent=n,n-DiMethylF
 ormamide)
 ----------------------------------------------------------------------

 --------
 Oxidized
 --------
 Symbolic Z-matrix:
 Charge =  0 Multiplicity = 1

 SCF Done:  E(UB3LYP) =  -613.922828859     A.U. after   14 cycles
 SCF Done:  E(UB3LYP) =  -613.922913887     A.U. after   11 cycles
 SCF Done:  E(UB3LYP) =  -613.922924290     A.U. after   11 cycles
 SCF Done:  E(UB3LYP) =  -613.922926700     A.U. after   10 cycles
 SCF Done:  E(UB3LYP) =  -613.922927614     A.U. after    9 cycles
 Optimization completed.
    -- Stationary point found.
 Normal termination of Gaussian 16 at Sat Feb 10 23:52:52 2024.

 ----------------------------------------------------------------------
 #P Geom=AllCheck Guess=TCheck SCRF=Check GenChk UB3LYP/6-311++G(d,p) F
 req
 ----------------------------------------------------------------------

 Structure from the checkpoint file:  "244.chk"
 --------
 Oxidized
 --------
 Charge =  0 Multiplicity = 1

                          Input orientation:
 ---------------------------------------------------------------------
 Center     Atomic      Atomic             Coordinates (Angstroms)
 Number     Number       Type             X           Y           Z
 ---------------------------------------------------------------------
      1          6           0        5.766809   -5.300587    1.263618
      2          6           0        6.706347   -5.150066    0.233085
      3          6           0        6.588706   -4.163905   -0.739833
      4          6           0        4.668962   -4.406991    1.294564
      5          6           0        4.555950   -3.406557    0.300829
      6          6           0        5.509864   -3.288042   -0.707020
      7          6           0        3.619935   -4.490966    2.350788
      8          6           0        2.478489   -3.515148    2.326598
      9          6           0        2.406480   -2.578558    1.365043
     10          6           0        3.410881   -2.450111    0.302700
     11          8           0        3.649790   -5.328490    3.243733
     12          8           0        3.300329   -1.576069   -0.553010
     13          6           0        5.994314   -6.405374    2.264998
     14          1           0        7.550716   -5.829395    0.199828
     15          6           0        1.455913   -3.648943    3.412031
     16          1           0        1.590189   -1.864462    1.331165
     17          1           0        5.393592   -2.511555   -1.451930
     18          1           0        7.336444   -4.080722   -1.519873
     19          1           0        6.908548   -6.946319    2.015563
     20          1           0        5.161420   -7.111174    2.280526
     21          1           0        6.082764   -6.015000    3.280800
     22          1           0        1.002613   -4.643778    3.392938
     23          1           0        0.672890   -2.898756    3.302241
     24          1           0        1.921691   -3.537617    4.395014
 ---------------------------------------------------------------------

 SCF Done:  E(UB3LYP) =  -613.922927614     A.U. after    1 cycles

 Alpha  occ. eigenvalues --  -19.13390 -19.13207 -10.28383 -10.28112 -10.22026
 Alpha  occ. eigenvalues --  -10.21313 -10.20991 -10.20761 -10.20120 -10.19704
 Alpha  occ. eigenvalues --  -10.19499 -10.19388 -10.17777 -10.17010  -1.06695
 Alpha  occ. eigenvalues --   -1.06171  -0.89087  -0.84822  -0.79686  -0.78536
 Alpha  occ. eigenvalues --   -0.73056  -0.71186  -0.67471  -0.64264  -0.62069
 Alpha  occ. eigenvalues --   -0.57085  -0.54374  -0.52825  -0.50209  -0.47856
 Alpha  occ. eigenvalues --   -0.46536  -0.46199  -0.45928  -0.43099  -0.42894
 Alpha  occ. eigenvalues --   -0.42847  -0.42468  -0.41564  -0.39968  -0.39843
 Alpha  occ. eigenvalues --   -0.39011  -0.37747  -0.37035  -0.36699  -0.29838
 Alpha  occ. eigenvalues --   -0.28552  -0.27835  -0.27355  -0.26928
 Alpha virt. eigenvalues --   -0.12483  -0.05371  -0.03272  -0.00766   0.00324
 Alpha virt. eigenvalues --    0.00799   0.02068   0.02113   0.02383   0.02870
 Alpha virt. eigenvalues --    0.03691   0.04532   0.04983   0.05149   0.05400

  Beta  occ. eigenvalues --  -19.13390 -19.13207 -10.28383 -10.28112 -10.22026
  Beta  occ. eigenvalues --  -10.21313 -10.20991 -10.20761 -10.20120 -10.19704
  Beta  occ. eigenvalues --  -10.19499 -10.19388 -10.17777 -10.17010  -1.06695
  Beta  occ. eigenvalues --   -1.06171  -0.89087  -0.84822  -0.79686  -0.78536
  Beta  occ. eigenvalues --   -0.73056  -0.71186  -0.67471  -0.64264  -0.62069
  Beta  occ. eigenvalues --   -0.57085  -0.54374  -0.52825  -0.50209  -0.47856
  Beta  occ. eigenvalues --   -0.46536  -0.46199  -0.45928  -0.43099  -0.42894
  Beta  occ. eigenvalues --   -0.42847  -0.42468  -0.41564  -0.39968  -0.39843
  Beta  occ. eigenvalues --   -0.39011  -0.37747  -0.37035  -0.36699  -0.29838
  Beta  occ. eigenvalues --   -0.28552  -0.27835  -0.27355  -0.26928
  Beta virt. eigenvalues --   -0.12483  -0.05371  -0.03272  -0.00766   0.00324
  Beta virt. eigenvalues --    0.00799   0.02068   0.02113   0.02383   0.02870
  Beta virt. eigenvalues --    0.03691   0.04532   0.04983   0.05149   0.05400

 Mulliken charges and spin densities:
               1          2
     1  C    0.627099   0.000000
     2  C   -0.515261   0.000000
     3  C   -0.328436  -0.000000
     4  C    0.579552   0.000000
     5  C    0.661763   0.000000
     6  C   -0.060211  -0.000000
     7  C   -0.862454  -0.000000
     8  C    0.597529  -0.000000
     9  C   -0.450415   0.000000
    10  C   -0.794830  -0.000000
    11  O   -0.239517  -0.000000
    12  O   -0.301547  -0.000000
    13  C   -0.460289  -0.000000
    14  H    0.150778   0.000000
    15  C   -0.272710  -0.000000
    16  H    0.197946   0.000000
    17  H    0.180890   0.000000
    18  H    0.219312   0.000000
    19  H    0.165456   0.000000
    20  H    0.172706   0.000000
    21  H    0.172801   0.000000
    22  H    0.191303  -0.000000
    23  H    0.176939  -0.000000
    24  H    0.191597  -0.000000
 Sum of Mulliken charges =  -0.00000  -0.00000

 Dipole moment (field-independent basis, Debye):
    X=              1.4092    Y=             -1.7085    Z=              0.5648  Tot=              2.2855
 Quadrupole moment (field-independent basis, Debye-Ang):
   XX=            -56.8255   YY=            -75.4769   ZZ=            -84.6404
   XY=            -16.5347   XZ=             -4.6729   YZ=              6.0365

  Exact polarizability: 204.179 -42.796 198.630 -43.790 -62.715 214.542
 Approx polarizability: 224.392 -44.940 245.464 -42.756 -91.539 264.120

                      1                      2                      3
                      A                      A                      A
 Frequencies --     37.3397                67.4020               134.9606
 Red. masses --      5.4862                 4.3490                 1.8487
 Frc consts  --      0.0045                 0.0116                 0.0198
 IR Inten    --     13.1882                 0.5824                 0.3382

                      4                      5                      6
                      A                      A                      A
 Frequencies --    164.2872               196.5325               215.8627
 Red. masses --      1.7159                 3.0447                 1.6791
 Frc consts  --      0.0273                 0.0693                 0.0461
 IR Inten    --      2.6976                 0.0921                 3.5369

                      7                      8                      9
                      A                      A                      A
 Frequencies --    233.7654               240.2334               316.0455
 Red. masses --      1.6771                 3.3448                 4.2487
 Frc consts  --      0.0540                 0.1137                 0.2500
 IR Inten    --      0.2479                 1.2469                 0.6374

                     10                     11                     12
                      A                      A                      A
 Frequencies --    360.9859               366.6151               386.3428
 Red. masses --      3.7207                 4.0350                 8.0152
 Frc consts  --      0.2857                 0.3195                 0.7049
 IR Inten    --      0.0099                 3.7286                 6.3456

                     13                     14                     15
                      A                      A                      A
 Frequencies --    406.6277               461.5306               483.8528
 Red. masses --      6.7974                 6.0078                 3.8953
 Frc consts  --      0.6622                 0.7540                 0.5373
 IR Inten    --     32.3640                 7.3137                 0.0084

                     16                     17                     18
                      A                      A                      A
 Frequencies --    503.8058               518.7468               563.6089
 Red. masses --      3.5237                 6.8256                 5.1688
 Frc consts  --      0.5270                 1.0822                 0.9674
 IR Inten    --      5.6478                11.2024                 1.2207

                     19                     20                     21
                      A                      A                      A
 Frequencies --    663.1571               697.8330               706.1015
 Red. masses --      4.1977                 4.0168                 3.3696
 Frc consts  --      1.0877                 1.1525                 0.9898
 IR Inten    --      1.3501                 0.4757                28.9995

                     22                     23                     24
                      A                      A                      A
 Frequencies --    706.3985               784.0400               794.0022
 Red. masses --      4.9157                 4.8666                 2.5070
 Frc consts  --      1.4452                 1.7626                 0.9312
 IR Inten    --     19.6587                 5.5519                20.2316

                     25                     26                     27
                      A                      A                      A
 Frequencies --    815.0994               882.3496               912.2779
 Red. masses --      1.9581                 4.9623                 1.5218
 Frc consts  --      0.7665                 2.2762                 0.7462
 IR Inten    --     37.5643                15.0910                28.1329

                     28                     29                     30
                      A                      A                      A
 Frequencies --    947.5467               960.8128              1017.8343
 Red. masses --      1.3535                 3.3117                 1.3437
 Frc consts  --      0.7160                 1.8012                 0.8202
 IR Inten    --      0.1784                53.5868                 0.1991

                     31                     32                     33
                      A                      A                      A
 Frequencies --   1028.3936              1037.0443              1054.4601
 Red. masses --      1.8000                 1.6115                 1.5440
 Frc consts  --      1.1216                 1.0211                 1.0115
 IR Inten    --     31.6860                12.2301                12.0223

                     34                     35                     36
                      A                      A                      A
 Frequencies --   1057.1266              1098.1701              1166.7431
 Red. masses --      1.5742                 2.4285                 2.3051
 Frc consts  --      1.0365                 1.7256                 1.8488
 IR Inten    --      0.4892                 3.3308                 1.7817

                     37                     38                     39
                      A                      A                      A
 Frequencies --   1174.2799              1194.2816              1249.7340
 Red. masses --      2.0801                 1.4396                 3.0518
 Frc consts  --      1.6900                 1.2098                 2.8082
 IR Inten    --     73.4833                14.4980               225.8018

                     40                     41                     42
                      A                      A                      A
 Frequencies --   1262.8473              1311.6814              1345.2314
 Red. masses --      2.2382                 3.2743                 5.4885
 Frc consts  --      2.1030                 3.3191                 5.8519
 IR Inten    --     31.7411               298.8102                81.5696

                     43                     44                     45
                      A                      A                      A
 Frequencies --   1364.5933              1406.8584              1410.8552
 Red. masses --      2.7022                 1.2913                 1.2298
 Frc consts  --      2.9647                 1.5058                 1.4423
 IR Inten    --     36.4640                24.0776                 7.9680

                     46                     47                     48
                      A                      A                      A
 Frequencies --   1446.8679              1457.8046              1467.2517
 Red. masses --      2.2675                 1.0438                 1.0447
 Frc consts  --      2.7968                 1.3070                 1.3251
 IR Inten    --     37.0272                13.9746                11.1374

                     49                     50                     51
                      A                      A                      A
 Frequencies --   1468.8747              1484.0375              1493.1402
 Red. masses --      1.0739                 1.5893                 1.8341
 Frc consts  --      1.3652                 2.0622                 2.4093
 IR Inten    --     24.0962                 3.9649                 2.2612

                     52                     53                     54
                      A                      A                      A
 Frequencies --   1598.7280              1618.5858              1671.1375
 Red. masses --      6.0677                 6.0068                10.2569
 Frc consts  --      9.1374                 9.2719                16.8768
 IR Inten    --     91.4396               189.8148               129.1580

                     55                     56                     57
                      A                      A                      A
 Frequencies --   1684.7652              1699.5317              3037.0917
 Red. masses --     10.4895                 8.8964                 1.0364
 Frc consts  --     17.5422                15.1399                 5.6325
 IR Inten    --    984.2125                17.2655                11.5442

                     58                     59                     60
                      A                      A                      A
 Frequencies --   3041.2523              3087.5690              3098.0551
 Red. masses --      1.0352                 1.0990                 1.0993
 Frc consts  --      5.6414                 6.1729                 6.2167
 IR Inten    --     23.0014                11.0825                13.9343

                     61                     62                     63
                      A                      A                      A
 Frequencies --   3112.5935              3126.4597              3172.4709
 Red. masses --      1.1038                 1.1027                 1.0881
 Frc consts  --      6.3009                 6.3507                 6.4522
 IR Inten    --     39.9977                18.6203                12.1704

                     64                     65                     66
                      A                      A                      A
 Frequencies --   3173.5619              3187.9420              3205.7309
 Red. masses --      1.0921                 1.0928                 1.0940
 Frc consts  --      6.4805                 6.5434                 6.6240
 IR Inten    --     10.9176                19.0147                 9.1130

 - Thermochemistry -
 -------------------
 Temperature   298.150 Kelvin.  Pressure   1.00000 Atm.
 Atom     1 has atomic number  6 and mass  12.00000

 Molecular mass:   186.06808 amu.
 Principal axes and moments of inertia in atomic units:
                           1         2         3
     Eigenvalues --  1872.768692477.978844328.70762
           X            0.84712   0.07192   0.52651
           Y           -0.33068  -0.70423   0.62825
           Z           -0.41597   0.70631   0.57279
 This molecule is an asymmetric top.
 Rotational symmetry number  1.
 Warning -- assumption of classical behavior for rotation
           may cause significant error
 Rotational temperatures (Kelvin)      0.04625     0.03495     0.02001
 Rotational constants (GHZ):           0.96368     0.72831     0.41692
 Zero-point vibrational energy     490718.6 (Joules/Mol)
                                  117.28457 (Kcal/Mol)
 Warning -- explicit consideration of  18 degrees of freedom as
           vibrations may cause significant error
 Vibrational temperatures:     53.72    96.98   194.18   236.37   282.77
          (Kelvin)            310.58   336.34   345.64   454.72   519.38
                              527.48   555.86   585.05   664.04   696.16
                              724.86   746.36   810.91   954.14  1004.03
                             1015.92  1016.35  1128.06  1142.39  1172.75
                             1269.50  1312.56  1363.31  1382.40  1464.44
                             1479.63  1492.08  1517.13  1520.97  1580.02
                             1678.68  1689.53  1718.30  1798.09  1816.96
                             1887.22  1935.49  1963.35  2024.16  2029.91
                             2081.72  2097.46  2111.05  2113.38  2135.20
                             2148.30  2300.21  2328.78  2404.39  2424.00
                             2445.25  4369.70  4375.68  4442.32  4457.41
                             4478.33  4498.28  4564.48  4566.05  4586.74
                             4612.33

 Zero-point correction=                           0.186905 (Hartree/Particle)
 Thermal correction to Energy=                    0.198873
 Thermal correction to Enthalpy=                  0.199818
 Thermal correction to Gibbs Free Energy=         0.148617
 Sum of electronic and zero-point Energies=           -613.736023
 Sum of electronic and thermal Energies=              -613.724054
 Sum of electronic and thermal Enthalpies=            -613.723110
 Sum of electronic and thermal Free Energies=         -613.774310

                     E (Thermal)             CV                S
                      KCal/Mol        Cal/Mol-Kelvin    Cal/Mol-Kelvin
 Total                  124.795             46.302            107.760
 Electronic               0.000              0.000              0.000
 Translational            0.889              2.981             41.569
 Rotational               0.889              2.981             31.375
 Vibrational            123.017             40.341             34.817
 Vibration     1          0.594              1.982              5.395
 Vibration     2          0.598              1.970              4.228
 Vibration     3          0.613              1.918              2.874
 Vibration     4          0.623              1.886              2.500
 Vibration     5          0.636              1.845              2.165
 Vibration     6          0.645              1.817              1.994
 Vibration     7          0.654              1.789              1.850
 Vibration     8          0.657              1.779              1.801
 Vibration     9          0.703              1.643              1.330
 Vibration    10          0.735              1.553              1.118
 Vibration    11          0.740              1.541              1.094
 Vibration    12          0.755              1.499              1.014
 Vibration    13          0.771              1.456              0.939
 Vibration    14          0.819              1.335              0.762
 Vibration    15          0.840              1.286              0.700
 Vibration    16          0.859              1.242              0.649
 Vibration    17          0.874              1.208              0.613
 Vibration    18          0.919              1.110              0.517

                           ! Non-Optimized Parameters !
 Normal termination of Gaussian 16 at Sun Feb 11 00:10:01 2024.
