 Q-Chem 5.4, Q-Chem, Inc., Pleasanton, CA (2021)
 Q-Chem 5.4.0 for Intel X86 EM64T Linux

User input:
--------------------------------------------------------------
$molecule
0 1
C                  3.0300810000     -1.1152990000     -0.1381190000
C                  1.7403840000     -0.3660440000     -0.0005070000
C                  1.6543660000      0.9222000000      0.3641780000
C                  0.3634010000      1.6281120000      0.4893180000
O                  0.3380090000      2.8038300000      0.8253130000
C                 -0.8968120000      0.8771360000      0.1981010000
C                 -0.8379060000     -0.4231020000     -0.1724290000
C                 -2.0668790000     -1.2331390000     -0.4789440000
C                  0.4793940000     -1.1206110000     -0.2930380000
O                  0.5409780000     -2.2944030000     -0.6261080000
C                 -2.1909340000      1.6273640000      0.3361130000
H                  3.1435890000     -1.5033730000     -1.1540360000
H                  3.8806640000     -0.4743660000      0.0968960000
H                  3.0428140000     -1.9850790000      0.5243700000
H                  2.5322050000      1.5194890000      0.5883510000
H                 -2.7291230000     -1.2826940000      0.3914310000
H                 -1.7956080000     -2.2469310000     -0.7675920000
H                 -2.6421990000     -0.7784760000     -1.2915990000
H                 -2.8451210000      1.1481040000      1.0714560000
H                 -2.0045200000      2.6530940000      0.6496100000
H                 -2.7367830000      1.6441890000     -0.6127660000
$end
$rem
MAX_SCF_CYCLES=200
BASIS  =  6-311++G(d,p)
GUI  =  2
JOB_TYPE  =  SP
METHOD  =  B3LYP
SOLVENT_METHOD = PCM
$end
$pcm
theory = CPCM
$end
$solvent
dielectric 37.219
opticaldielectric 1.43
$end

--------------------------------------------------------------

             Standard Nuclear Orientation (Angstroms)
    I     Atom           X                Y                Z
 ----------------------------------------------------------------
    1      C       3.0300810000    -1.1152990000    -0.1381190000
    2      C       1.7403840000    -0.3660440000    -0.0005070000
    3      C       1.6543660000     0.9222000000     0.3641780000
    4      C       0.3634010000     1.6281120000     0.4893180000
    5      O       0.3380090000     2.8038300000     0.8253130000
    6      C      -0.8968120000     0.8771360000     0.1981010000
    7      C      -0.8379060000    -0.4231020000    -0.1724290000
    8      C      -2.0668790000    -1.2331390000    -0.4789440000
    9      C       0.4793940000    -1.1206110000    -0.2930380000
   10      O       0.5409780000    -2.2944030000    -0.6261080000
   11      C      -2.1909340000     1.6273640000     0.3361130000
   12      H       3.1435890000    -1.5033730000    -1.1540360000
   13      H       3.8806640000    -0.4743660000     0.0968960000
   14      H       3.0428140000    -1.9850790000     0.5243700000
   15      H       2.5322050000     1.5194890000     0.5883510000
   16      H      -2.7291230000    -1.2826940000     0.3914310000
   17      H      -1.7956080000    -2.2469310000    -0.7675920000
   18      H      -2.6421990000    -0.7784760000    -1.2915990000
   19      H      -2.8451210000     1.1481040000     1.0714560000
   20      H      -2.0045200000     2.6530940000     0.6496100000
   21      H      -2.7367830000     1.6441890000    -0.6127660000
 ----------------------------------------------------------------

    9    -499.5653793042      2.15e-06  Convergence criterion met
 Total energy in the final basis set =     -499.5653793042

                    Orbital Energies (a.u.)
 --------------------------------------------------------------

 Alpha MOs
 -- Occupied --
-19.1388 -19.1362 -10.2819 -10.2798 -10.2154 -10.2085 -10.2077 -10.1971
-10.1735 -10.1692 -10.1691  -1.0706  -1.0668  -0.8647  -0.8211  -0.7463
 -0.7325  -0.6889  -0.6600  -0.5948  -0.5762  -0.5349  -0.4919  -0.4700
 -0.4644  -0.4415  -0.4337  -0.4267  -0.4213  -0.4202  -0.4087  -0.4031
 -0.3946  -0.3918  -0.3801  -0.3716  -0.2981  -0.2907  -0.2737  -0.2705

          Ground-State Mulliken Net Atomic Charges

     Atom                 Charge (a.u.)
  ----------------------------------------
      1 C                    -0.296334
      2 C                     1.030688
      3 C                    -0.548839
      4 C                    -0.815755
      5 O                    -0.313098
      6 C                     0.983236
      7 C                     0.306417
      8 C                    -0.600861
      9 C                    -0.870121
     10 O                    -0.290198
     11 C                    -0.486465
     12 H                     0.192977
     13 H                     0.182385
     14 H                     0.192953
     15 H                     0.217691
     16 H                     0.182367
     17 H                     0.195066
     18 H                     0.180692
     19 H                     0.182795
     20 H                     0.190588
     21 H                     0.183816
  ----------------------------------------
  Sum of atomic charges =     0.000000

                    Cartesian Multipole Moments
 -----------------------------------------------------------------
    Charge (ESU x 10^10)
                 0.0000
    Dipole Moment (Debye)
         X      -0.6026      Y      -0.8033      Z      -0.2683
       Tot       1.0394
    Quadrupole Moments (Debye-Ang)
        XX     -52.2113     XY      -0.8680     YY     -85.0733
        XZ       0.4830     YZ      -5.9624     ZZ     -66.1913

 Total job time:  79.72s(wall), 137.38s(cpu)
        *  Thank you very much for using Q-Chem.  Have a nice day.  *
