 Gaussian 16, Revision A.03,
 Gaussian 16:  ES64L-G16RevA.03 25-Dec-2016

 --------------------------------------
 #P UB3LYP/6-311++G(d,p) nosym opt freq
 --------------------------------------

 --------
 Oxidized
 --------
 Symbolic Z-matrix:
 Charge =  0 Multiplicity = 1

 SCF Done:  E(UB3LYP) =  -499.554060038     A.U. after   15 cycles
 Optimization completed.
    -- Stationary point found.
 Normal termination of Gaussian 16 at Sat Jan  6 05:39:03 2024.

 ----------------------------------------------------------------------
 #P Geom=AllCheck Guess=TCheck SCRF=Check GenChk UB3LYP/6-311++G(d,p) F
 req
 ----------------------------------------------------------------------

 Structure from the checkpoint file:  "049.chk"
 --------
 Oxidized
 --------
 Charge =  0 Multiplicity = 1

                          Input orientation:
 ---------------------------------------------------------------------
 Center     Atomic      Atomic             Coordinates (Angstroms)
 Number     Number       Type             X           Y           Z
 ---------------------------------------------------------------------
      1          6           0        3.030081   -1.115299   -0.138119
      2          6           0        1.740384   -0.366044   -0.000507
      3          6           0        1.654366    0.922200    0.364178
      4          6           0        0.363401    1.628112    0.489318
      5          8           0        0.338009    2.803830    0.825313
      6          6           0       -0.896812    0.877136    0.198101
      7          6           0       -0.837906   -0.423102   -0.172429
      8          6           0       -2.066879   -1.233139   -0.478944
      9          6           0        0.479394   -1.120611   -0.293038
     10          8           0        0.540978   -2.294403   -0.626108
     11          6           0       -2.190934    1.627364    0.336113
     12          1           0        3.143589   -1.503373   -1.154036
     13          1           0        3.880664   -0.474366    0.096896
     14          1           0        3.042814   -1.985079    0.524370
     15          1           0        2.532205    1.519489    0.588351
     16          1           0       -2.729123   -1.282694    0.391431
     17          1           0       -1.795608   -2.246931   -0.767592
     18          1           0       -2.642199   -0.778476   -1.291599
     19          1           0       -2.845121    1.148104    1.071456
     20          1           0       -2.004520    2.653094    0.649610
     21          1           0       -2.736783    1.644189   -0.612766
 ---------------------------------------------------------------------

 SCF Done:  E(UB3LYP) =  -499.554060038     A.U. after    1 cycles

 Alpha  occ. eigenvalues --  -19.13696 -19.13283 -10.28158 -10.27821 -10.22018
 Alpha  occ. eigenvalues --  -10.21382 -10.21307 -10.20339 -10.18450 -10.17992
 Alpha  occ. eigenvalues --  -10.17965  -1.06855  -1.06268  -0.86985  -0.82826
 Alpha  occ. eigenvalues --   -0.75377  -0.74050  -0.69603  -0.66589  -0.60032
 Alpha  occ. eigenvalues --   -0.58040  -0.53838  -0.49222  -0.47010  -0.46583
 Alpha  occ. eigenvalues --   -0.44578  -0.44258  -0.43423  -0.42704  -0.42553
 Alpha  occ. eigenvalues --   -0.41470  -0.40980  -0.40131  -0.39996  -0.38588
 Alpha  occ. eigenvalues --   -0.37880  -0.30017  -0.28727  -0.27798  -0.27191
 Alpha virt. eigenvalues --   -0.12861  -0.02586  -0.01503  -0.00373   0.00240
 Alpha virt. eigenvalues --    0.01409   0.02169   0.02310   0.02731   0.03602
 Alpha virt. eigenvalues --    0.03941   0.05677   0.05827   0.06013   0.06820

  Beta  occ. eigenvalues --  -19.13696 -19.13283 -10.28158 -10.27821 -10.22018
  Beta  occ. eigenvalues --  -10.21382 -10.21307 -10.20339 -10.18450 -10.17992
  Beta  occ. eigenvalues --  -10.17965  -1.06855  -1.06268  -0.86985  -0.82826
  Beta  occ. eigenvalues --   -0.75377  -0.74050  -0.69603  -0.66589  -0.60032
  Beta  occ. eigenvalues --   -0.58040  -0.53838  -0.49222  -0.47010  -0.46583
  Beta  occ. eigenvalues --   -0.44578  -0.44258  -0.43423  -0.42704  -0.42553
  Beta  occ. eigenvalues --   -0.41470  -0.40980  -0.40131  -0.39996  -0.38588
  Beta  occ. eigenvalues --   -0.37880  -0.30017  -0.28727  -0.27798  -0.27191
  Beta virt. eigenvalues --   -0.12861  -0.02586  -0.01503  -0.00373   0.00240
  Beta virt. eigenvalues --    0.01409   0.02169   0.02310   0.02731   0.03602
  Beta virt. eigenvalues --    0.03941   0.05677   0.05827   0.06013   0.06820

 Mulliken charges and spin densities:
               1          2
     1  C   -0.236553  -0.000000
     2  C    1.049088  -0.000000
     3  C   -0.473295   0.000000
     4  C   -0.921461  -0.000000
     5  O   -0.231015   0.000000
     6  C    0.958072   0.000000
     7  C    0.293159   0.000000
     8  C   -0.548703  -0.000000
     9  C   -0.969938  -0.000000
    10  O   -0.220002  -0.000000
    11  C   -0.450225  -0.000000
    12  H    0.182257  -0.000000
    13  H    0.156780   0.000000
    14  H    0.182332   0.000000
    15  H    0.183751   0.000000
    16  H    0.156684  -0.000000
    17  H    0.210896   0.000000
    18  H    0.154754  -0.000000
    19  H    0.157411  -0.000000
    20  H    0.207631   0.000000
    21  H    0.158376   0.000000
 Sum of Mulliken charges =  -0.00000   0.00000

 Dipole moment (field-independent basis, Debye):
    X=             -0.4167    Y=             -0.6165    Z=             -0.2015  Tot=              0.7709
 Quadrupole moment (field-independent basis, Debye-Ang):
   XX=            -55.2888   YY=            -81.0699   ZZ=            -66.1441
   XY=             -0.9103   XZ=              0.3085   YZ=             -4.7248

  Exact polarizability: 118.963  -8.640 145.136   0.599  21.716  73.874
 Approx polarizability: 146.352 -12.141 286.701  -1.038  51.243 120.123

                      1                      2                      3
                      A                      A                      A
 Frequencies --     31.9849                63.0772                78.5663
 Red. masses --      1.0291                 3.3091                 1.2186
 Frc consts  --      0.0006                 0.0078                 0.0044
 IR Inten    --      0.0001                 9.9058                 0.5024

                      4                      5                      6
                      A                      A                      A
 Frequencies --    106.2108               134.1530               168.3202
 Red. masses --      3.5274                 1.4233                 1.9485
 Frc consts  --      0.0234                 0.0151                 0.0325
 IR Inten    --      0.0015                 0.0191                 1.0488

                      7                      8                      9
                      A                      A                      A
 Frequencies --    253.2836               278.4530               306.3978
 Red. masses --      3.3129                 2.7239                 2.5605
 Frc consts  --      0.1252                 0.1244                 0.1416
 IR Inten    --      0.2279                 0.8522                 0.3297

                     10                     11                     12
                      A                      A                      A
 Frequencies --    339.3579               361.7577               410.9029
 Red. masses --      4.1736                 3.7080                 6.2214
 Frc consts  --      0.2832                 0.2859                 0.6189
 IR Inten    --      0.3664                 0.3714                 8.2908

                     13                     14                     15
                      A                      A                      A
 Frequencies --    419.5781               469.8771               500.6847
 Red. masses --      7.5279                 7.8896                 3.4295
 Frc consts  --      0.7808                 1.0263                 0.5065
 IR Inten    --     17.7141                 1.2317                 0.0456

                     16                     17                     18
                      A                      A                      A
 Frequencies --    559.7358               648.1928               685.5458
 Red. masses --      5.7775                 3.4505                 3.4532
 Frc consts  --      1.0665                 0.8542                 0.9562
 IR Inten    --      1.5143                 0.4784                 7.4154

                     19                     20                     21
                      A                      A                      A
 Frequencies --    702.0185               782.9338               823.2531
 Red. masses --      5.6722                 6.5857                 2.3736
 Frc consts  --      1.6470                 2.3785                 0.9478
 IR Inten    --      5.6452                 0.4970                 3.5962

                     22                     23                     24
                      A                      A                      A
 Frequencies --    901.0662               931.2266              1005.6331
 Red. masses --      1.4093                 3.2229                 1.6653
 Frc consts  --      0.6741                 1.6467                 0.9922
 IR Inten    --     23.4959                11.1956                33.0387

                     25                     26                     27
                      A                      A                      A
 Frequencies --   1022.0229              1043.8939              1056.2706
 Red. masses --      1.4426                 1.6611                 1.5331
 Frc consts  --      0.8878                 1.0665                 1.0078
 IR Inten    --      0.2166                 8.4338                 0.0110

                     28                     29                     30
                      A                      A                      A
 Frequencies --   1058.4138              1109.2967              1124.8562
 Red. masses --      1.5274                 3.6403                 2.1315
 Frc consts  --      1.0081                 2.6392                 1.5890
 IR Inten    --      2.2830                25.1817                 0.4384

                     31                     32                     33
                      A                      A                      A
 Frequencies --   1204.9036              1270.8385              1316.3019
 Red. masses --      2.3150                 4.1141                 3.7656
 Frc consts  --      1.9802                 3.9148                 3.8441
 IR Inten    --     29.6135                93.5309                73.3813

                     34                     35                     36
                      A                      A                      A
 Frequencies --   1364.8423              1403.0770              1408.3745
 Red. masses --      2.5617                 1.3320                 1.2078
 Frc consts  --      2.8115                 1.5450                 1.4115
 IR Inten    --      6.9698                15.3259                19.8835

                     37                     38                     39
                      A                      A                      A
 Frequencies --   1416.1235              1467.7216              1479.2758
 Red. masses --      1.2970                 1.0433                 1.0646
 Frc consts  --      1.5324                 1.3242                 1.3726
 IR Inten    --      8.5820                 8.8051                 0.4503

                     40                     41                     42
                      A                      A                      A
 Frequencies --   1479.9235              1482.0413              1487.9972
 Red. masses --      1.0665                 1.1072                 1.0446
 Frc consts  --      1.3762                 1.4329                 1.3628
 IR Inten    --     13.5512                31.3397                 0.0459

                     43                     44                     45
                      A                      A                      A
 Frequencies --   1501.2884              1653.6144              1692.4792
 Red. masses --      1.0448                 8.7067                10.6298
 Frc consts  --      1.3875                14.0272                17.9399
 IR Inten    --     23.1194                48.5513                 5.8455

                     46                     47                     48
                      A                      A                      A
 Frequencies --   1706.7609              1714.0981              3022.9215
 Red. masses --     12.1238                 8.6898                 1.0397
 Frc consts  --     20.8082                15.0429                 5.5977
 IR Inten    --    470.8082                 7.4853                29.2461

                     49                     50                     51
                      A                      A                      A
 Frequencies --   3026.1860              3036.5771              3064.8435
 Red. masses --      1.0407                 1.0356                 1.0992
 Frc consts  --      5.6154                 5.6261                 6.0833
 IR Inten    --      1.0648                 9.0623                24.4041

                     52                     53                     54
                      A                      A                      A
 Frequencies --   3072.2489              3087.7209              3120.5595
 Red. masses --      1.0994                 1.0988                 1.1033
 Frc consts  --      6.1136                 6.1722                 6.3303
 IR Inten    --      0.0785                 6.5083                11.5781

                     55                     56                     57
                      A                      A                      A
 Frequencies --   3137.6994              3139.5303              3172.2982
 Red. masses --      1.0970                 1.0969                 1.0922
 Frc consts  --      6.3633                 6.3702                 6.4758
 IR Inten    --      3.1311                 4.0072                 5.6635

 - Thermochemistry -
 -------------------
 Temperature   298.150 Kelvin.  Pressure   1.00000 Atm.
 Atom     1 has atomic number  6 and mass  12.00000

 Molecular mass:   150.06808 amu.
 Principal axes and moments of inertia in atomic units:
                           1         2         3
     Eigenvalues --  1202.679311653.409022822.80456
           X           -0.68762   0.72378  -0.05769
           Y            0.70779   0.65046  -0.27556
           Z            0.16192   0.23032   0.95955
 This molecule is an asymmetric top.
 Rotational symmetry number  1.
 Warning -- assumption of classical behavior for rotation
           may cause significant error
 Rotational temperatures (Kelvin)      0.07202     0.05239     0.03068
 Rotational constants (GHZ):           1.50060     1.09153     0.63934
 Zero-point vibrational energy     438474.5 (Joules/Mol)
                                  104.79792 (Kcal/Mol)
 Warning -- explicit consideration of  16 degrees of freedom as
           vibrations may cause significant error
 Vibrational temperatures:     46.02    90.75   113.04   152.81   193.02
          (Kelvin)            242.18   364.42   400.63   440.84   488.26
                              520.49   591.20   603.68   676.05   720.37
                              805.33   932.60   986.35  1010.05  1126.47
                             1184.48  1296.43  1339.83  1446.88  1470.46
                             1501.93  1519.74  1522.82  1596.03  1618.42
                             1733.59  1828.45  1893.86  1963.70  2018.71
                             2026.34  2037.49  2111.72  2128.35  2129.28
                             2132.33  2140.90  2160.02  2379.18  2435.10
                             2455.65  2466.20  4349.31  4354.01  4368.96
                             4409.63  4420.28  4442.54  4489.79  4514.45
                             4517.08  4564.23

 Zero-point correction=                           0.167006 (Hartree/Particle)
 Thermal correction to Energy=                    0.178550
 Thermal correction to Enthalpy=                  0.179494
 Thermal correction to Gibbs Free Energy=         0.128722
 Sum of electronic and zero-point Energies=           -499.387054
 Sum of electronic and thermal Energies=              -499.375510
 Sum of electronic and thermal Enthalpies=            -499.374566
 Sum of electronic and thermal Free Energies=         -499.425338

                     E (Thermal)             CV                S
                      KCal/Mol        Cal/Mol-Kelvin    Cal/Mol-Kelvin
 Total                  112.042             41.114            106.858
 Electronic               0.000              0.000              0.000
 Translational            0.889              2.981             40.928
 Rotational               0.889              2.981             30.108
 Vibrational            110.264             35.153             35.823
 Vibration     1          0.594              1.983              5.702
 Vibration     2          0.597              1.972              4.359
 Vibration     3          0.600              1.964              3.926
 Vibration     4          0.605              1.944              3.337
 Vibration     5          0.613              1.919              2.886
 Vibration     6          0.625              1.881              2.454
 Vibration     7          0.664              1.757              1.708
 Vibration     8          0.679              1.713              1.543
 Vibration     9          0.697              1.662              1.382
 Vibration    10          0.719              1.597              1.215
 Vibration    11          0.736              1.551              1.115
 Vibration    12          0.775              1.447              0.923
 Vibration    13          0.782              1.428              0.893
 Vibration    14          0.827              1.317              0.738
 Vibration    15          0.856              1.248              0.656
 Vibration    16          0.915              1.118              0.524

 Optimization completed.
    -- Stationary point found.
 Normal termination of Gaussian 16 at Sat Jan  6 05:52:18 2024.
