 Q-Chem 5.4, Q-Chem, Inc., Pleasanton, CA (2021)
 Q-Chem 5.4.0 for Intel X86 EM64T Linux

User input:
--------------------------------------------------------------
$molecule
0 1
O                 -0.0181840000     -2.3786060000     -0.6984580000
C                 -0.0199320000     -1.2495210000     -0.2421530000
C                  1.2717800000     -0.5681050000      0.0936640000
C                  2.4321050000     -1.3497400000      0.1558760000
C                  3.6470730000     -0.7865320000      0.5273290000
C                  3.7237310000      0.5686200000      0.8512440000
C                  2.5844380000      1.3668690000      0.7922170000
C                  1.3758860000      0.7920060000      0.4139010000
S                 -0.0208250000      1.8977530000      0.1862830000
O                 -0.0141180000      2.3605310000     -1.2050800000
C                 -1.4204020000      0.7929990000      0.4007510000
C                 -2.6320480000      1.3687260000      0.7676820000
C                 -3.7724180000      0.5712940000      0.8159800000
C                 -3.6936850000     -0.7839130000      0.4927920000
C                 -2.4756790000     -1.3479900000      0.1327850000
C                 -1.3142610000     -0.5671870000      0.0814990000
H                  2.3507770000     -2.4023530000     -0.0846990000
H                  4.5356810000     -1.4051700000      0.5723380000
H                  4.6690330000      1.0053050000      1.1515470000
H                  2.6256720000      2.4203000000      1.0406710000
H                 -2.6748640000      2.4221870000      1.0157420000
H                 -4.7201910000      1.0086550000      1.1073770000
H                 -4.5831210000     -1.4019140000      0.5294300000
H                 -2.3928480000     -2.4006620000     -0.1070220000
O                 -0.0255480000      2.8902340000      1.2653860000
$end

$rem
BASIS  =  6-311++G(d,p)
GUI  =  2
JOB_TYPE  =  SP
METHOD  =  B3LYP
SCF_CONVERGENCE  = 8
SOLVENT_METHOD = sm12
$end

$smx
solvent dimethylformamide
charges CM5
$end

--------------------------------------------------------------

             Standard Nuclear Orientation (Angstroms)
    I     Atom           X                Y                Z
 ----------------------------------------------------------------
    1      O      -0.0181840000    -2.3786060000    -0.6984580000
    2      C      -0.0199320000    -1.2495210000    -0.2421530000
    3      C       1.2717800000    -0.5681050000     0.0936640000
    4      C       2.4321050000    -1.3497400000     0.1558760000
    5      C       3.6470730000    -0.7865320000     0.5273290000
    6      C       3.7237310000     0.5686200000     0.8512440000
    7      C       2.5844380000     1.3668690000     0.7922170000
    8      C       1.3758860000     0.7920060000     0.4139010000
    9      S      -0.0208250000     1.8977530000     0.1862830000
   10      O      -0.0141180000     2.3605310000    -1.2050800000
   11      C      -1.4204020000     0.7929990000     0.4007510000
   12      C      -2.6320480000     1.3687260000     0.7676820000
   13      C      -3.7724180000     0.5712940000     0.8159800000
   14      C      -3.6936850000    -0.7839130000     0.4927920000
   15      C      -2.4756790000    -1.3479900000     0.1327850000
   16      C      -1.3142610000    -0.5671870000     0.0814990000
   17      H       2.3507770000    -2.4023530000    -0.0846990000
   18      H       4.5356810000    -1.4051700000     0.5723380000
   19      H       4.6690330000     1.0053050000     1.1515470000
   20      H       2.6256720000     2.4203000000     1.0406710000
   21      H      -2.6748640000     2.4221870000     1.0157420000
   22      H      -4.7201910000     1.0086550000     1.1073770000
   23      H      -4.5831210000    -1.4019140000     0.5294300000
   24      H      -2.3928480000    -2.4006620000    -0.1070220000
   25      O      -0.0255480000     2.8902340000     1.2653860000
 ----------------------------------------------------------------

   15   -1124.2078007456      6.60e-09  Convergence criterion met
 Total energy in the final basis set =    -1124.2365619871

                    Orbital Energies (a.u.)
 --------------------------------------------------------------

 Alpha MOs
 -- Occupied --
-89.0685 -19.1359 -19.1339 -19.1316 -10.2923 -10.2364 -10.2364 -10.2219
-10.2219 -10.2100 -10.2100 -10.2051 -10.2051 -10.2046 -10.2046 -10.2012
-10.2012  -8.1331  -6.0954  -6.0946  -6.0945  -1.1295  -1.0726  -1.0232
 -0.9045  -0.8941  -0.8200  -0.7937  -0.7883  -0.7817  -0.7139  -0.6798
 -0.6546  -0.6298  -0.6125  -0.5775  -0.5763  -0.5259  -0.5064  -0.4975
 -0.4975  -0.4899  -0.4761  -0.4655  -0.4596  -0.4579  -0.4545  -0.4433
 -0.4063  -0.4058  -0.3917  -0.3886  -0.3842  -0.3837  -0.3498  -0.3482
 -0.3344  -0.3172  -0.2917  -0.2894  -0.2857  -0.2833  -0.2816

          Ground-State Mulliken Net Atomic Charges

     Atom                 Charge (a.u.)
  ----------------------------------------
      1 O                    -0.236849
      2 C                    -1.109981
      3 C                     1.284410
      4 C                     0.429666
      5 C                     0.287876
      6 C                     0.765028
      7 C                    -0.284546
      8 C                    -2.833506
      9 S                     0.054197
     10 O                    -0.109134
     11 C                    -2.833988
     12 C                    -0.284363
     13 C                     0.764850
     14 C                     0.287779
     15 C                     0.429635
     16 C                     1.284525
     17 H                     0.228045
     18 H                     0.341162
     19 H                     0.347379
     20 H                     0.238903
     21 H                     0.238893
     22 H                     0.347365
     23 H                     0.341149
     24 H                     0.228044
     25 O                    -0.206538
  ----------------------------------------
  Sum of atomic charges =     0.000000

                    Cartesian Multipole Moments
 -----------------------------------------------------------------
    Charge (ESU x 10^10)
                 0.0000
    Dipole Moment (Debye)
         X      -0.0138      Y      -2.8819      Z       2.7751
       Tot       4.0008
    Quadrupole Moments (Debye-Ang)
        XX     -64.8580     XY       0.0409     YY    -118.4051
        XZ       0.1703     YZ      -0.0959     ZZ    -113.1434

 Total job time:  506.30s(wall), 3655.91s(cpu)
        *  Thank you very much for using Q-Chem.  Have a nice day.  *
