 Gaussian 16, Revision A.03,
 Gaussian 16:  ES64L-G16RevA.03 25-Dec-2016

 ----------------------------------------------------------------
 #P UB3LYP/6-311++G(d,p) SCRF=(PCM,Solvent=n,n-DiMethylFormamide)
 ----------------------------------------------------------------

 ------------------
 Quinone PCM in DMF
 ------------------
 Symbolic Z-matrix:
 Charge =  0 Multiplicity = 1

                         Standard orientation:
 ---------------------------------------------------------------------
 Center     Atomic      Atomic             Coordinates (Angstroms)
 Number     Number       Type             X           Y           Z
 ---------------------------------------------------------------------
      1          6           0        2.947707    3.490036    0.211698
      2          8           0        1.737739    2.767692    0.029826
      3          6           0        1.769530    1.415802    0.007228
      4          6           0        2.958742    0.693715    0.134998
      5          6           0        2.959196   -0.692229    0.134562
      6          6           0        1.770456   -1.415086    0.006620
      7          8           0        1.739703   -2.766985    0.028333
      8          6           0        2.950246   -3.488625    0.209139
      9          6           0        0.548324   -0.710173   -0.125670
     10          6           0       -0.741817   -1.461745   -0.259184
     11          8           0       -0.793956   -2.647895   -0.532667
     12          6           0       -2.003987   -0.699265   -0.029962
     13          6           0       -3.204846   -1.397145    0.139982
     14          6           0       -4.390457   -0.700156    0.333409
     15          6           0       -4.390722    0.699032    0.332558
     16          6           0       -3.205357    1.396196    0.138293
     17          6           0       -2.004272    0.698505   -0.030740
     18          6           0       -0.742369    1.461035   -0.260885
     19          8           0       -0.794764    2.646608   -0.536809
     20          6           0        0.547963    0.710126   -0.125733
     21          1           0        2.659210    4.539490    0.209608
     22          1           0        3.652022    3.308208   -0.607329
     23          1           0        3.424086    3.246261    1.167827
     24          1           0        3.902641    1.210057    0.238293
     25          1           0        3.903453   -1.207977    0.237499
     26          1           0        3.654266   -3.305408   -0.609835
     27          1           0        2.662498   -4.538282    0.205979
     28          1           0        3.426653   -3.245591    1.165448
     29          1           0       -3.183215   -2.479501    0.115540
     30          1           0       -5.318437   -1.241597    0.479263
     31          1           0       -5.318900    1.240302    0.477787
     32          1           0       -3.184054    2.478529    0.112587
 ---------------------------------------------------------------------

 SCF Done:  E(UB3LYP) =  -918.060198099     A.U. after   15 cycles

 The electronic state is 1-A.
 Alpha  occ. eigenvalues --  -19.16805 -19.16804 -19.12359 -19.12357 -10.27972
 Alpha  occ. eigenvalues --  -10.27971 -10.26079 -10.26077 -10.22747 -10.22747
 Alpha  occ. eigenvalues --  -10.21234 -10.21189 -10.20411 -10.20358 -10.19952
 Alpha  occ. eigenvalues --  -10.19894 -10.19620 -10.19571 -10.19478 -10.19476
 Alpha  occ. eigenvalues --   -1.08976  -1.08863  -1.06011  -1.05849  -0.89119
 Alpha  occ. eigenvalues --   -0.87865  -0.81263  -0.78653  -0.77526  -0.77422
 Alpha  occ. eigenvalues --   -0.73173  -0.69876  -0.68977  -0.66071  -0.64579
 Alpha  occ. eigenvalues --   -0.60707  -0.58318  -0.56441  -0.56246  -0.53107
 Alpha  occ. eigenvalues --   -0.52543  -0.50876  -0.49089  -0.48826  -0.48633
 Alpha  occ. eigenvalues --   -0.47951  -0.45940  -0.45723  -0.45138  -0.45085
 Alpha  occ. eigenvalues --   -0.44777  -0.44138  -0.42716  -0.41671  -0.41569
 Alpha  occ. eigenvalues --   -0.40831  -0.39965  -0.38035  -0.37266  -0.36777
 Alpha  occ. eigenvalues --   -0.36373  -0.35588  -0.34901  -0.31504  -0.28962
 Alpha  occ. eigenvalues --   -0.27800  -0.27709  -0.27263  -0.26149  -0.22942
 Alpha virt. eigenvalues --   -0.11188  -0.06462  -0.03624  -0.01347  -0.00826
 Alpha virt. eigenvalues --   -0.00077   0.00283   0.01401   0.01618   0.02406
 Alpha virt. eigenvalues --    0.02800   0.03132   0.03501   0.03533   0.03670

  Beta  occ. eigenvalues --  -19.16805 -19.16804 -19.12359 -19.12357 -10.27972
  Beta  occ. eigenvalues --  -10.27971 -10.26079 -10.26077 -10.22747 -10.22747
  Beta  occ. eigenvalues --  -10.21234 -10.21189 -10.20411 -10.20358 -10.19952
  Beta  occ. eigenvalues --  -10.19894 -10.19620 -10.19571 -10.19478 -10.19476
  Beta  occ. eigenvalues --   -1.08976  -1.08863  -1.06011  -1.05849  -0.89119
  Beta  occ. eigenvalues --   -0.87865  -0.81263  -0.78653  -0.77526  -0.77422
  Beta  occ. eigenvalues --   -0.73173  -0.69876  -0.68977  -0.66071  -0.64579
  Beta  occ. eigenvalues --   -0.60707  -0.58318  -0.56441  -0.56246  -0.53107
  Beta  occ. eigenvalues --   -0.52543  -0.50876  -0.49089  -0.48826  -0.48633
  Beta  occ. eigenvalues --   -0.47951  -0.45940  -0.45723  -0.45138  -0.45085
  Beta  occ. eigenvalues --   -0.44777  -0.44138  -0.42716  -0.41671  -0.41569
  Beta  occ. eigenvalues --   -0.40831  -0.39965  -0.38035  -0.37266  -0.36777
  Beta  occ. eigenvalues --   -0.36373  -0.35588  -0.34901  -0.31504  -0.28962
  Beta  occ. eigenvalues --   -0.27800  -0.27709  -0.27263  -0.26149  -0.22942
  Beta virt. eigenvalues --   -0.11188  -0.06462  -0.03624  -0.01347  -0.00826
  Beta virt. eigenvalues --   -0.00077   0.00283   0.01401   0.01618   0.02406
  Beta virt. eigenvalues --    0.02800   0.03132   0.03501   0.03533   0.03670

 Mulliken charges and spin densities:
               1          2
     1  C   -0.318107  -0.000000
     2  O   -0.137771   0.000000
     3  C   -0.410679  -0.000000
     4  C    0.010224   0.000000
     5  C    0.009352   0.000000
     6  C   -0.408770  -0.000000
     7  O   -0.137745   0.000000
     8  C   -0.318078  -0.000000
     9  C    0.092220   0.000000
    10  C   -0.349540  -0.000000
    11  O   -0.292457   0.000000
    12  C    0.450431   0.000000
    13  C    0.176803   0.000000
    14  C   -0.379342   0.000000
    15  C   -0.378831   0.000000
    16  C    0.175333  -0.000000
    17  C    0.450526  -0.000000
    18  C   -0.353016   0.000000
    19  O   -0.292496  -0.000000
    20  C    0.091858  -0.000000
    21  H    0.206674   0.000000
    22  H    0.168531   0.000000
    23  H    0.164533   0.000000
    24  H    0.227360  -0.000000
    25  H    0.227351  -0.000000
    26  H    0.168465   0.000000
    27  H    0.206734   0.000000
    28  H    0.164538   0.000000
    29  H    0.187008  -0.000000
    30  H    0.205907  -0.000000
    31  H    0.205955  -0.000000
    32  H    0.187029   0.000000
 Sum of Mulliken charges =  -0.00000   0.00000

 Dipole moment (field-independent basis, Debye):
    X=              5.0345    Y=              0.0027    Z=              2.5555  Tot=              5.6460
 Quadrupole moment (field-independent basis, Debye-Ang):
   XX=            -70.7011   YY=           -119.4895   ZZ=           -118.4306
   XY=              0.0032   XZ=             -0.8788   YZ=              0.0238

 Normal termination of Gaussian 16 at Sun Jan 14 01:09:04 2024.
