 Q-Chem 5.4, Q-Chem, Inc., Pleasanton, CA (2021)
 Q-Chem 5.4.0 for Intel X86 EM64T Linux

User input:
--------------------------------------------------------------
$molecule
-1 2
C                 -3.5472230000      0.1628460000      0.3583190000
O                 -2.6841630000      0.6479940000     -0.6729560000
C                 -1.3580800000      0.3274340000     -0.5530460000
C                 -0.4197790000      1.3295800000     -0.4989850000
Cl                -0.9394520000      3.0109310000     -0.4913790000
C                  1.0122210000      1.0941500000     -0.4688870000
O                  1.8670420000      2.0117050000     -0.4641950000
C                  1.3995320000     -0.3171740000     -0.4372610000
C                  0.4611850000     -1.3193310000     -0.4896430000
Cl                 0.9797830000     -3.0009500000     -0.4737810000
C                 -0.9681050000     -1.0832160000     -0.5817540000
O                 -1.8190070000     -1.9997690000     -0.6737370000
O                  2.7312930000     -0.6362860000     -0.4458780000
C                  3.4991040000     -0.1747400000      0.6683370000
H                 -3.2574440000      0.5881740000      1.3275610000
H                 -4.5477640000      0.5137910000      0.0990680000
H                 -3.5272830000     -0.9267570000      0.4011770000
H                  3.4758660000      0.9137710000      0.7320450000
H                  3.1237360000     -0.6193710000      1.5987690000
H                  4.5185370000     -0.5227810000      0.4921310000
$end
$rem
MAX_SCF_CYCLES=200
BASIS  =  6-311++G(d,p)
GUI  =  2
JOB_TYPE  =  SP
METHOD  =  B3LYP
SOLVENT_METHOD = COSMO
$end
$solvent
dielectric 37.219
opticaldielectric 1.43
$end

--------------------------------------------------------------

             Standard Nuclear Orientation (Angstroms)
    I     Atom           X                Y                Z
 ----------------------------------------------------------------
    1      C      -3.0011350813    -1.8594303717     0.8629142609
    2      O      -2.5967412156    -1.0070474249    -0.2111798619
    3      C      -1.3196240426    -0.5166777025    -0.1468175567
    4      C      -1.1134181683     0.8416691902    -0.1459119687
    5      Cl     -2.4939568582     1.9330142909    -0.1341705793
    6      C       0.1999364202     1.4589972109    -0.1769444399
    7      O       0.3838570966     2.6987182430    -0.2206832355
    8      C       1.3196476201     0.5165670148    -0.1466524946
    9      C       1.1134609593    -0.8417569823    -0.1458786826
   10      Cl      2.4939772398    -1.9331206350    -0.1341259529
   11      C      -0.1999288325    -1.4591289863    -0.1769221513
   12      O      -0.3838345671    -2.6988217734    -0.2205680238
   13      O       2.5967262763     1.0069035632    -0.2109506866
   14      C       3.0010562262     1.8600452791     0.8626879921
   15      H      -2.9742490645    -1.3116070959     1.8134260345
   16      H      -4.0316636829    -2.1453860705     0.6445203366
   17      H      -2.3658876843    -2.7442967376     0.9171486457
   18      H       2.3669399745     2.7458262924     0.9150662968
   19      H       2.9721781071     1.3134987288     1.8138738261
   20      H       4.0323045354     2.1440439561     0.6452106145
 ----------------------------------------------------------------

    9   -1529.9980312030      6.46e-06  Convergence criterion met
 Total energy in the final basis set =    -1529.9980312030
    4   -1530.0808721242      8.39e-06  Convergence criterion met
 Total energy in the final basis set =    -1530.0808721242

                    Orbital Energies (a.u.)
 --------------------------------------------------------------

 Alpha MOs
 -- Occupied --
********-101.5543 -19.1502 -19.1502 -19.0961 -19.0961 -10.2473 -10.2473
-10.2418 -10.2418 -10.2303 -10.2303 -10.2090 -10.2090  -9.4687  -9.4687
 -7.2332  -7.2332  -7.2239  -7.2239  -7.2229  -7.2229  -1.0702  -1.0679
 -1.0200  -1.0199  -0.8815  -0.8678  -0.8100  -0.7523  -0.7064  -0.6968
 -0.6633  -0.5943  -0.5870  -0.5376  -0.5132  -0.5063  -0.4765  -0.4637
 -0.4541  -0.4487  -0.4400  -0.4345  -0.4251  -0.4200  -0.4002  -0.3958
 -0.3674  -0.3618  -0.3471  -0.3441  -0.3210  -0.3183  -0.3093  -0.2963
 -0.2762  -0.2612  -0.2584  -0.2370  -0.1772

 Beta MOs
 -- Occupied --
********-101.5543 -19.1499 -19.1499 -19.0895 -19.0895 -10.2457 -10.2457
-10.2402 -10.2402 -10.2297 -10.2297 -10.2089 -10.2089  -9.4687  -9.4687
 -7.2332  -7.2332  -7.2238  -7.2238  -7.2229  -7.2229  -1.0683  -1.0664
 -1.0091  -1.0088  -0.8788  -0.8668  -0.8063  -0.7497  -0.7051  -0.6899
 -0.6595  -0.5907  -0.5835  -0.5357  -0.5120  -0.5038  -0.4703  -0.4610
 -0.4526  -0.4465  -0.4365  -0.4320  -0.4200  -0.4089  -0.3929  -0.3812
 -0.3623  -0.3581  -0.3414  -0.3356  -0.3187  -0.3176  -0.3057  -0.2918
 -0.2554  -0.2547  -0.2529  -0.2315

          Ground-State Mulliken Net Atomic Charges

     Atom                 Charge (a.u.)    Spin (a.u.)
  --------------------------------------------------------
      1 C                    -0.314835       0.004594
      2 O                    -0.179180       0.002624
      3 C                    -1.647205       0.143419
      4 C                     1.926205       0.013637
      5 Cl                    0.249295       0.003006
      6 C                    -0.587235       0.092114
      7 O                    -0.452557       0.239753
      8 C                    -1.645733       0.143223
      9 C                     1.926596       0.013829
     10 Cl                    0.249011       0.003000
     11 C                    -0.586902       0.091883
     12 O                    -0.451981       0.239788
     13 O                    -0.179295       0.002634
     14 C                    -0.314485       0.004586
     15 H                     0.148941       0.000832
     16 H                     0.173273       0.000630
     17 H                     0.181966      -0.000508
     18 H                     0.181959      -0.000506
     19 H                     0.148917       0.000835
     20 H                     0.173246       0.000626
  --------------------------------------------------------
  Sum of atomic charges =    -1.000000

                    Cartesian Multipole Moments
 -----------------------------------------------------------------
    Charge (ESU x 10^10)
                -4.8032
    Dipole Moment (Debye)
         X      -0.0003      Y      -0.0020      Z       4.2096
       Tot       4.2096
    Quadrupole Moments (Debye-Ang)
        XX    -104.5571     XY       7.6609     YY    -133.1298
        XZ      -0.0019     YZ       0.0015     ZZ     -96.1180

 Total job time:  72.51s(wall), 303.79s(cpu)
        *  Thank you very much for using Q-Chem.  Have a nice day.  *
