 Gaussian 16, Revision A.03,
 Gaussian 16:  ES64L-G16RevA.03 25-Dec-2016

 ----------------------------------------------------------------------
 #P UB3LYP/6-311++G(d,p) nosym opt freq SCRF=(PCM,Solvent=n,n-DiMethylF
 ormamide)
 ----------------------------------------------------------------------

 -------
 Radical
 -------
 Symbolic Z-matrix:
 Charge = -1 Multiplicity = 2

 SCF Done:  E(UB3LYP) =  -460.380696876     A.U. after   17 cycles
 SCF Done:  E(UB3LYP) =  -460.380942297     A.U. after   13 cycles
 SCF Done:  E(UB3LYP) =  -460.380973073     A.U. after   12 cycles
 Optimization completed.
    -- Stationary point found.
 Normal termination of Gaussian 16 at Sat Feb 10 10:07:15 2024.

 ----------------------------------------------------------------------
 #P Geom=AllCheck Guess=TCheck SCRF=Check GenChk UB3LYP/6-311++G(d,p) F
 req
 ----------------------------------------------------------------------

 Structure from the checkpoint file:  "038-rad.chk"
 -------
 Radical
 -------
 Charge = -1 Multiplicity = 2

                          Input orientation:
 ---------------------------------------------------------------------
 Center     Atomic      Atomic             Coordinates (Angstroms)
 Number     Number       Type             X           Y           Z
 ---------------------------------------------------------------------
      1          6           0        2.925899    0.257659   -0.078052
      2          6           0        1.428621    0.111288   -0.030031
      3          6           0        0.823701   -0.963532    0.572305
      4          6           0       -0.606832   -1.145933    0.643574
      5          8           0       -1.122958   -2.160659    1.213620
      6          6           0       -1.428624   -0.111284    0.030021
      7          6           0       -0.823705    0.963533   -0.572311
      8          6           0        0.606835    1.145921   -0.643596
      9          8           0        1.122954    2.160668   -1.213617
     10          6           0       -2.925900   -0.257662    0.078056
     11          1           0        3.417825   -0.584090    0.413362
     12          1           0        3.250286    1.181388    0.412054
     13          1           0        3.286178    0.313610   -1.110331
     14          1           0        1.431098   -1.739627    1.031755
     15          1           0       -1.431091    1.739643   -1.031749
     16          1           0       -3.286159   -0.313668    1.110339
     17          1           0       -3.417838    0.584111   -0.413306
     18          1           0       -3.250289   -1.181367   -0.412093
 ---------------------------------------------------------------------

 SCF Done:  E(UB3LYP) =  -460.380973073     A.U. after    1 cycles

 Alpha  occ. eigenvalues --  -19.07206 -19.07206 -10.21289 -10.21288 -10.16831
 Alpha  occ. eigenvalues --  -10.16829 -10.15634 -10.15633 -10.15433 -10.15431
 Alpha  occ. eigenvalues --   -0.99042  -0.98775  -0.82375  -0.77567  -0.70814
 Alpha  occ. eigenvalues --   -0.68935  -0.63595  -0.58616  -0.53702  -0.48100
 Alpha  occ. eigenvalues --   -0.45313  -0.43274  -0.42632  -0.40963  -0.39919
 Alpha  occ. eigenvalues --   -0.39801  -0.38967  -0.37209  -0.36897  -0.36208
 Alpha  occ. eigenvalues --   -0.35468  -0.34537  -0.27276  -0.24273  -0.23841
 Alpha  occ. eigenvalues --   -0.23316  -0.15711
 Alpha virt. eigenvalues --   -0.00211  -0.00186   0.00778   0.01662   0.03010
 Alpha virt. eigenvalues --    0.03096   0.03747   0.03931   0.04587   0.05683
 Alpha virt. eigenvalues --    0.06128   0.06551   0.07768   0.08428   0.09127

  Beta  occ. eigenvalues --  -19.06521 -19.06520 -10.21130 -10.21129 -10.16696
  Beta  occ. eigenvalues --  -10.16695 -10.15643 -10.15643 -10.15357 -10.15356
  Beta  occ. eigenvalues --   -0.97838  -0.97539  -0.81781  -0.77329  -0.70650
  Beta  occ. eigenvalues --   -0.68281  -0.63032  -0.58218  -0.53271  -0.47896
  Beta  occ. eigenvalues --   -0.44884  -0.42931  -0.41795  -0.40623  -0.39779
  Beta  occ. eigenvalues --   -0.39419  -0.38644  -0.36818  -0.35790  -0.35167
  Beta  occ. eigenvalues --   -0.34300  -0.33399  -0.24046  -0.23517  -0.23199
  Beta  occ. eigenvalues --   -0.22698
  Beta virt. eigenvalues --   -0.08476  -0.00161   0.00787   0.00990   0.01690
  Beta virt. eigenvalues --    0.03109   0.03770   0.04175   0.04656   0.05265
  Beta virt. eigenvalues --    0.05744   0.06127   0.06579   0.07894   0.08434

 Mulliken charges and spin densities:
               1          2
     1  C   -0.412543   0.004392
     2  C    1.156530   0.106343
     3  C   -0.577397   0.031989
     4  C   -0.779641   0.109564
     5  O   -0.509920   0.245112
     6  C    1.156516   0.106340
     7  C   -0.577416   0.031983
     8  C   -0.779649   0.109564
     9  O   -0.509923   0.245114
    10  C   -0.412535   0.004393
    11  H    0.147370  -0.000227
    12  H    0.162725   0.004884
    13  H    0.162527   0.004833
    14  H    0.150365  -0.006888
    15  H    0.150367  -0.006887
    16  H    0.162525   0.004833
    17  H    0.147370  -0.000227
    18  H    0.162727   0.004884
 Sum of Mulliken charges =  -1.00000   1.00000

 Dipole moment (field-independent basis, Debye):
    X=             -0.0000    Y=             -0.0000    Z=              0.0000  Tot=              0.0000
 Quadrupole moment (field-independent basis, Debye-Ang):
   XX=            -65.9182   YY=            -89.8617   ZZ=            -71.7753
   XY=            -14.2912   XZ=              8.1472   YZ=             14.8122

  Exact polarizability: 187.744  38.735 194.806 -19.933 -58.722 124.131
 Approx polarizability: 190.041  46.790 220.782 -24.735 -67.300 139.613

                      1                      2                      3
                      A                      A                      A
 Frequencies --     96.8625               128.3497               132.7162
 Red. masses --      3.7923                 1.1496                 1.0428
 Frc consts  --      0.0210                 0.0112                 0.0108
 IR Inten    --     21.2150                 1.5120                 0.0000

                      4                      5                      6
                      A                      A                      A
 Frequencies --    170.3850               230.8649               278.2871
 Red. masses --      3.5182                 3.8130                 2.6256
 Frc consts  --      0.0602                 0.1197                 0.1198
 IR Inten    --      2.7963                 0.0000                11.0574

                      7                      8                      9
                      A                      A                      A
 Frequencies --    284.7450               366.0752               379.4847
 Red. masses --      3.6043                 4.7643                 9.7902
 Frc consts  --      0.1722                 0.3762                 0.8307
 IR Inten    --      0.0000                 0.0000                28.4368

                     10                     11                     12
                      A                      A                      A
 Frequencies --    422.6444               429.8194               510.4850
 Red. masses --      5.5543                 2.8904                 8.8283
 Frc consts  --      0.5846                 0.3146                 1.3555
 IR Inten    --      0.0000                 3.9905                 0.0000

                     13                     14                     15
                      A                      A                      A
 Frequencies --    618.4554               666.1640               705.3047
 Red. masses --      3.6652                 3.4559                 5.2236
 Frc consts  --      0.8260                 0.9036                 1.5310
 IR Inten    --      0.0000                 3.0057                48.4571

                     16                     17                     18
                      A                      A                      A
 Frequencies --    709.7174               745.3274               838.6455
 Red. masses --      6.3247                 4.0881                 2.7254
 Frc consts  --      1.8770                 1.3380                 1.1294
 IR Inten    --      0.0000                 0.0000                 9.8485

                     19                     20                     21
                      A                      A                      A
 Frequencies --    849.6539               889.9724              1004.1052
 Red. masses --      1.3392                 1.5451                 1.6721
 Frc consts  --      0.5696                 0.7210                 0.9933
 IR Inten    --      0.0000                72.1319               124.7443

                     22                     23                     24
                      A                      A                      A
 Frequencies --   1019.3558              1042.1681              1049.9521
 Red. masses --      1.4722                 1.4879                 1.5205
 Frc consts  --      0.9013                 0.9521                 0.9876
 IR Inten    --      0.0000                 0.0000                 5.1312

                     25                     26                     27
                      A                      A                      A
 Frequencies --   1120.4187              1164.6383              1216.6806
 Red. masses --      5.2138                 2.4434                 5.7479
 Frc consts  --      3.8562                 1.9527                 5.0132
 IR Inten    --      0.0000                68.7601                55.5228

                     28                     29                     30
                      A                      A                      A
 Frequencies --   1247.9071              1329.9103              1397.1194
 Red. masses --      1.3232                 2.2897                 1.3001
 Frc consts  --      1.2141                 2.3860                 1.4952
 IR Inten    --      0.0000                50.3659                40.2149

                     31                     32                     33
                      A                      A                      A
 Frequencies --   1398.0733              1440.0273              1459.2243
 Red. masses --      1.2726                 3.6649                 1.0473
 Frc consts  --      1.4655                 4.4777                 1.3139
 IR Inten    --      0.0000                 0.0000                 0.0000

                     34                     35                     36
                      A                      A                      A
 Frequencies --   1459.4465              1463.2301              1471.8851
 Red. masses --      1.0469                 1.5863                 2.2973
 Frc consts  --      1.3138                 2.0011                 2.9323
 IR Inten    --     18.2559               226.5300                 0.0000

                     37                     38                     39
                      A                      A                      A
 Frequencies --   1486.2911              1496.2016              1541.0827
 Red. masses --      2.0475                 2.6023                 4.1635
 Frc consts  --      2.6649                 3.4323                 5.8259
 IR Inten    --      0.0001              1208.4705                93.6981

                     40                     41                     42
                      A                      A                      A
 Frequencies --   1648.4116              3016.9042              3017.4972
 Red. masses --      6.6720                 1.0366                 1.0366
 Frc consts  --     10.6816                 5.5587                 5.5611
 IR Inten    --      0.0000               138.4332                 0.0003

                     43                     44                     45
                      A                      A                      A
 Frequencies --   3059.7376              3059.8259              3098.0084
 Red. masses --      1.0994                 1.0993                 1.1009
 Frc consts  --      6.0642                 6.0639                 6.2256
 IR Inten    --      0.0455                73.8903                67.1085

                     46                     47                     48
                      A                      A                      A
 Frequencies --   3098.0843              3135.5386              3138.6676
 Red. masses --      1.1010                 1.0891                 1.0896
 Frc consts  --      6.2263                 6.3089                 6.3241
 IR Inten    --      0.0067                95.2596                 0.0000

 - Thermochemistry -
 -------------------
 Temperature   298.150 Kelvin.  Pressure   1.00000 Atm.
 Atom     1 has atomic number  6 and mass  12.00000

 Molecular mass:   136.05243 amu.
 Principal axes and moments of inertia in atomic units:
                           1         2         3
     Eigenvalues --   779.298191645.350912402.53685
           X            0.85092  -0.52488  -0.02063
           Y            0.46406   0.73275   0.49772
           Z           -0.24613  -0.43310   0.86709
 This molecule is an asymmetric top.
 Rotational symmetry number  1.
 Warning -- assumption of classical behavior for rotation
           may cause significant error
 Rotational temperatures (Kelvin)      0.11114     0.05264     0.03605
 Rotational constants (GHZ):           2.31585     1.09687     0.75118
 Zero-point vibrational energy     362075.8 (Joules/Mol)
                                   86.53820 (Kcal/Mol)
 Warning -- explicit consideration of  13 degrees of freedom as
           vibrations may cause significant error
 Vibrational temperatures:    139.36   184.67   190.95   245.15   332.16
          (Kelvin)            400.39   409.68   526.70   545.99   608.09
                              618.41   734.47   889.82   958.46  1014.78
                             1021.13  1072.36  1206.62  1222.46  1280.47
                             1444.68  1466.63  1499.45  1510.65  1612.03
                             1675.65  1750.53  1795.46  1913.44  2010.14
                             2011.52  2071.88  2099.50  2099.82  2105.26
                             2117.71  2138.44  2152.70  2217.27  2371.70
                             4340.65  4341.51  4402.28  4402.41  4457.34
                             4457.45  4511.34  4515.84

 Zero-point correction=                           0.137907 (Hartree/Particle)
 Thermal correction to Energy=                    0.147362
 Thermal correction to Enthalpy=                  0.148307
 Thermal correction to Gibbs Free Energy=         0.102894
 Sum of electronic and zero-point Energies=           -460.243066
 Sum of electronic and thermal Energies=              -460.233611
 Sum of electronic and thermal Enthalpies=            -460.232666
 Sum of electronic and thermal Free Energies=         -460.278079

                     E (Thermal)             CV                S
                      KCal/Mol        Cal/Mol-Kelvin    Cal/Mol-Kelvin
 Total                   92.471             35.189             95.578
 Electronic               0.000              0.000              1.377
 Translational            0.889              2.981             40.636
 Rotational               0.889              2.981             29.511
 Vibrational             90.694             29.228             24.054
 Vibration     1          0.603              1.951              3.516
 Vibration     2          0.611              1.925              2.971
 Vibration     3          0.613              1.921              2.906
 Vibration     4          0.625              1.879              2.431
 Vibration     5          0.653              1.794              1.872
 Vibration     6          0.679              1.714              1.544
 Vibration     7          0.683              1.702              1.505
 Vibration     8          0.739              1.542              1.096
 Vibration     9          0.749              1.514              1.041
 Vibration    10          0.785              1.421              0.883
 Vibration    11          0.791              1.405              0.859
 Vibration    12          0.866              1.227              0.632
 Vibration    13          0.978              0.993              0.419

                           ! Non-Optimized Parameters !
 Normal termination of Gaussian 16 at Sat Feb 10 10:20:46 2024.
