 Gaussian 16, Revision A.03,
 Gaussian 16:  ES64L-G16RevA.03 25-Dec-2016

 ----------------------------------------------------------------------
 #P UB3LYP/6-311++G(d,p) nosym opt freq SCRF=(PCM,Solvent=n,n-DiMethylF
 ormamide)
 ----------------------------------------------------------------------

 -------
 Radical
 -------
 Symbolic Z-matrix:
 Charge = -1 Multiplicity = 2

 SCF Done:  E(UB3LYP) =  -649.958874778     A.U. after   19 cycles
 SCF Done:  E(UB3LYP) =  -649.959275810     A.U. after   14 cycles
 SCF Done:  E(UB3LYP) =  -649.959359849     A.U. after   14 cycles
 SCF Done:  E(UB3LYP) =  -649.959367271     A.U. after   13 cycles
 SCF Done:  E(UB3LYP) =  -649.959371294     A.U. after   12 cycles
 Optimization completed.
    -- Stationary point found.
 Normal termination of Gaussian 16 at Sun Feb 11 01:30:42 2024.

 ----------------------------------------------------------------------
 #P Geom=AllCheck Guess=TCheck SCRF=Check GenChk UB3LYP/6-311++G(d,p) F
 req
 ----------------------------------------------------------------------

 Structure from the checkpoint file:  "258-rad.chk"
 -------
 Radical
 -------
 Charge = -1 Multiplicity = 2

                          Input orientation:
 ---------------------------------------------------------------------
 Center     Atomic      Atomic             Coordinates (Angstroms)
 Number     Number       Type             X           Y           Z
 ---------------------------------------------------------------------
      1          6           0        3.332861   -0.937569   -0.100416
      2          8           0        1.936608   -1.152465    0.095417
      3          6           0        1.075914   -0.112918   -0.085011
      4          6           0        1.529762    1.150229   -0.457723
      5          6           0        0.627147    2.208100   -0.635104
      6          6           0       -0.722713    2.008790   -0.441126
      7          6           0       -1.213386    0.742940   -0.064837
      8          6           0       -2.671073    0.606366    0.125225
      9          8           0       -3.453851    1.591917   -0.042195
     10          6           0       -3.143727   -0.686757    0.506189
     11          6           0       -2.292694   -1.749092    0.685520
     12          6           0       -0.864653   -1.677433    0.513591
     13          8           0       -0.160405   -2.712493    0.698857
     14          6           0       -0.320269   -0.358690    0.122499
     15          1           0        3.806511   -1.896774    0.102006
     16          1           0        3.552430   -0.634997   -1.128989
     17          1           0        3.724830   -0.186660    0.592567
     18          1           0        2.584004    1.328286   -0.613687
     19          1           0        1.004280    3.182795   -0.925708
     20          1           0       -1.435834    2.812253   -0.571592
     21          1           0       -4.213757   -0.804786    0.650603
     22          1           0       -2.681984   -2.721044    0.973913
 ---------------------------------------------------------------------

 SCF Done:  E(UB3LYP) =  -649.959371294     A.U. after    1 cycles

 Alpha  occ. eigenvalues --  -19.15146 -19.07271 -19.07059 -10.23904 -10.22254
 Alpha  occ. eigenvalues --  -10.21840 -10.21837 -10.17851 -10.17536 -10.17370
 Alpha  occ. eigenvalues --  -10.16869 -10.16183 -10.16021 -10.15926  -1.06762
 Alpha  occ. eigenvalues --   -0.99377  -0.99123  -0.85517  -0.80181  -0.75835
 Alpha  occ. eigenvalues --   -0.74198  -0.69804  -0.67270  -0.61635  -0.60871
 Alpha  occ. eigenvalues --   -0.55963  -0.51768  -0.50495  -0.48599  -0.47015
 Alpha  occ. eigenvalues --   -0.46884  -0.45421  -0.43459  -0.41515  -0.41304
 Alpha  occ. eigenvalues --   -0.40995  -0.39316  -0.38493  -0.37478  -0.36363
 Alpha  occ. eigenvalues --   -0.35749  -0.35070  -0.33361  -0.32095  -0.27489
 Alpha  occ. eigenvalues --   -0.25313  -0.23960  -0.23008  -0.22997  -0.15131
 Alpha virt. eigenvalues --   -0.02446  -0.01770  -0.00245   0.00785   0.01181
 Alpha virt. eigenvalues --    0.02551   0.02813   0.03548   0.03711   0.04888
 Alpha virt. eigenvalues --    0.05098   0.05893   0.06177   0.06601   0.07109

  Beta  occ. eigenvalues --  -19.15142 -19.06638 -19.06401 -10.23905 -10.22134
  Beta  occ. eigenvalues --  -10.21840 -10.21668 -10.17823 -10.17482 -10.17338
  Beta  occ. eigenvalues --  -10.16816 -10.16165 -10.15854 -10.15789  -1.06747
  Beta  occ. eigenvalues --   -0.98261  -0.97972  -0.85323  -0.79636  -0.75723
  Beta  occ. eigenvalues --   -0.73979  -0.69687  -0.66355  -0.61328  -0.60659
  Beta  occ. eigenvalues --   -0.55807  -0.51566  -0.50239  -0.48456  -0.46841
  Beta  occ. eigenvalues --   -0.46832  -0.45232  -0.43265  -0.41215  -0.40808
  Beta  occ. eigenvalues --   -0.40103  -0.38886  -0.38298  -0.35877  -0.35546
  Beta  occ. eigenvalues --   -0.34895  -0.34564  -0.33293  -0.31554  -0.24735
  Beta  occ. eigenvalues --   -0.24462  -0.23370  -0.22414  -0.22373
  Beta virt. eigenvalues --   -0.08466  -0.01568  -0.00588  -0.00234   0.00803
  Beta virt. eigenvalues --    0.01191   0.02570   0.02838   0.03573   0.03726
  Beta virt. eigenvalues --    0.04898   0.05864   0.06204   0.06368   0.06657

 Mulliken charges and spin densities:
               1          2
     1  C   -0.278713  -0.000507
     2  O   -0.161408  -0.000740
     3  C    0.213996   0.036853
     4  C   -0.020064   0.047129
     5  C   -0.414812   0.022946
     6  C   -0.025716   0.041456
     7  C    0.044239   0.016720
     8  C   -0.403210   0.107733
     9  O   -0.510520   0.227318
    10  C   -0.156408   0.067385
    11  C   -0.043218   0.134467
    12  C   -0.350333   0.054505
    13  O   -0.499822   0.240435
    14  C    0.199347   0.031289
    15  H    0.193887  -0.000167
    16  H    0.161008   0.000406
    17  H    0.160509   0.000404
    18  H    0.183088  -0.002890
    19  H    0.193856  -0.001941
    20  H    0.157634  -0.003013
    21  H    0.179244  -0.007671
    22  H    0.177415  -0.012117
 Sum of Mulliken charges =  -1.00000   1.00000

 Dipole moment (field-independent basis, Debye):
    X=             10.6625    Y=              3.0311    Z=             -1.8663  Tot=             11.2410
 Quadrupole moment (field-independent basis, Debye-Ang):
   XX=           -102.8408   YY=           -109.7801   ZZ=            -87.6840
   XY=             15.7896   XZ=             -2.3121   YZ=              4.0837

  Exact polarizability: 298.364 -18.638 281.813 -14.982 -41.354 124.097
 Approx polarizability: 318.768 -32.477 325.040 -12.139 -47.273 139.514

                      1                      2                      3
                      A                      A                      A
 Frequencies --     56.2706                86.1091               119.0848
 Red. masses --      4.3147                 6.2826                 4.6963
 Frc consts  --      0.0080                 0.0274                 0.0392
 IR Inten    --      4.1123                21.2878                 0.8814

                      4                      5                      6
                      A                      A                      A
 Frequencies --    175.8307               201.9026               243.0613
 Red. masses --      3.5101                 4.6822                 1.9651
 Frc consts  --      0.0639                 0.1125                 0.0684
 IR Inten    --      0.6335                 7.8435                 0.0042

                      7                      8                      9
                      A                      A                      A
 Frequencies --    289.6299               323.4892               325.3271
 Red. masses --      1.7802                 5.0278                 4.9241
 Frc consts  --      0.0880                 0.3100                 0.3071
 IR Inten    --      0.0925                 0.6214                 0.0550

                     10                     11                     12
                      A                      A                      A
 Frequencies --    341.9029               378.0259               457.8197
 Red. masses --      6.2528                 9.4236                11.0114
 Frc consts  --      0.4307                 0.7934                 1.3598
 IR Inten    --     11.1484                14.1801                 5.1201

                     13                     14                     15
                      A                      A                      A
 Frequencies --    476.0749               507.6627               527.1058
 Red. masses --      4.1680                 6.0304                 7.3548
 Frc consts  --      0.5566                 0.9157                 1.2040
 IR Inten    --      0.2277                 0.4844                 8.6249

                     16                     17                     18
                      A                      A                      A
 Frequencies --    533.0879               623.6047               645.6767
 Red. masses --      3.6816                 4.9981                 2.6124
 Frc consts  --      0.6164                 1.1452                 0.6417
 IR Inten    --      0.0270                 0.0132                 0.0844

                     19                     20                     21
                      A                      A                      A
 Frequencies --    659.3681               695.4181               758.8932
 Red. masses --      5.3168                 3.8187                 1.6362
 Frc consts  --      1.3619                 1.0881                 0.5552
 IR Inten    --     15.2631                 5.4273                97.1116

                     22                     23                     24
                      A                      A                      A
 Frequencies --    762.9254               788.2663               812.4860
 Red. masses --      6.3070                 5.6775                 3.6830
 Frc consts  --      2.1629                 2.0785                 1.4325
 IR Inten    --     58.9647                 9.1614                36.6540

                     25                     26                     27
                      A                      A                      A
 Frequencies --    829.9549               885.5920               898.9167
 Red. masses --      1.9980                 1.4509                 6.4536
 Frc consts  --      0.8109                 0.6705                 3.0725
 IR Inten    --     57.3418                 0.8069                52.5469

                     28                     29                     30
                      A                      A                      A
 Frequencies --    939.6557               983.5907              1042.8846
 Red. masses --      1.2888                 1.2877                 4.6754
 Frc consts  --      0.6705                 0.7340                 2.9960
 IR Inten    --      0.0619                 1.0421               177.4489

                     31                     32                     33
                      A                      A                      A
 Frequencies --   1073.3540              1111.8192              1132.8344
 Red. masses --      4.6451                 1.7931                 1.8740
 Frc consts  --      3.1530                 1.3059                 1.4170
 IR Inten    --     83.8772                14.7343                45.6301

                     34                     35                     36
                      A                      A                      A
 Frequencies --   1162.7412              1176.8158              1179.6627
 Red. masses --      1.2758                 2.0973                 1.4083
 Frc consts  --      1.0162                 1.7113                 1.1547
 IR Inten    --      1.2986               125.3300                49.7054

                     37                     38                     39
                      A                      A                      A
 Frequencies --   1202.8300              1240.0511              1265.8024
 Red. masses --      1.4036                 2.3677                 3.4306
 Frc consts  --      1.1964                 2.1451                 3.2386
 IR Inten    --     19.5772                 5.5458               258.8385

                     40                     41                     42
                      A                      A                      A
 Frequencies --   1304.5845              1339.1351              1417.8756
 Red. masses --      2.6831                 4.8148                 3.9912
 Frc consts  --      2.6904                 5.0872                 4.7275
 IR Inten    --      5.5458                12.2439               308.8495

                     43                     44                     45
                      A                      A                      A
 Frequencies --   1424.3715              1448.3201              1474.9596
 Red. masses --      3.7605                 2.1331                 1.4551
 Frc consts  --      4.4952                 2.6362                 1.8651
 IR Inten    --    227.4544               194.1852               111.3477

                     46                     47                     48
                      A                      A                      A
 Frequencies --   1478.8981              1484.6931              1496.9460
 Red. masses --      5.3545                 1.0454                 1.0767
 Frc consts  --      6.9000                 1.3577                 1.4215
 IR Inten    --     24.9711                12.3183               146.9014

                     49                     50                     51
                      A                      A                      A
 Frequencies --   1525.5130              1555.6836              1619.2953
 Red. masses --      3.8608                 4.6991                 5.9296
 Frc consts  --      5.2937                 6.7006                 9.1607
 IR Inten    --   1242.2397               212.0726                42.5157

                     52                     53                     54
                      A                      A                      A
 Frequencies --   1623.2385              3010.6949              3072.7441
 Red. masses --      7.0031                 1.0333                 1.1065
 Frc consts  --     10.8718                 5.5186                 6.1552
 IR Inten    --     12.2241                96.5351                55.0464

                     55                     56                     57
                      A                      A                      A
 Frequencies --   3131.3097              3143.2761              3162.4964
 Red. masses --      1.1005                 1.0856                 1.0946
 Frc consts  --      6.3577                 6.3195                 6.4502
 IR Inten    --     32.8262                41.2516                44.6135

                     58                     59                     60
                      A                      A                      A
 Frequencies --   3165.3313              3200.3308              3215.7620
 Red. masses --      1.0886                 1.0916                 1.0910
 Frc consts  --      6.4260                 6.5874                 6.6470
 IR Inten    --     22.0758                14.8602                12.0851

 - Thermochemistry -
 -------------------
 Temperature   298.150 Kelvin.  Pressure   1.00000 Atm.
 Atom     1 has atomic number  6 and mass  12.00000

 Molecular mass:   188.04734 amu.
 Principal axes and moments of inertia in atomic units:
                           1         2         3
     Eigenvalues --  1594.637232850.742674433.85353
           X            0.97940   0.17514   0.10052
           Y           -0.19502   0.94947   0.24593
           Z           -0.05237  -0.26046   0.96406
 This molecule is an asymmetric top.
 Rotational symmetry number  1.
 Warning -- assumption of classical behavior for rotation
           may cause significant error
 Rotational temperatures (Kelvin)      0.05432     0.03038     0.01953
 Rotational constants (GHZ):           1.13176     0.63308     0.40704
 Zero-point vibrational energy     425936.3 (Joules/Mol)
                                  101.80122 (Kcal/Mol)
 Warning -- explicit consideration of  16 degrees of freedom as
           vibrations may cause significant error
 Vibrational temperatures:     80.96   123.89   171.34   252.98   290.49
          (Kelvin)            349.71   416.71   465.43   468.07   491.92
                              543.90   658.70   684.97   730.41   758.39
                              766.99   897.23   928.98   948.68  1000.55
                             1091.88  1097.68  1134.14  1168.99  1194.12
                             1274.17  1293.34  1351.95  1415.17  1500.48
                             1544.32  1599.66  1629.90  1672.93  1693.18
                             1697.27  1730.60  1784.16  1821.21  1877.01
                             1926.72  2040.01  2049.35  2083.81  2122.14
                             2127.80  2136.14  2153.77  2194.87  2238.28
                             2329.80  2335.48  4331.72  4420.99  4505.26
                             4522.47  4550.13  4554.21  4604.56  4626.76

 Zero-point correction=                           0.162231 (Hartree/Particle)
 Thermal correction to Energy=                    0.173452
 Thermal correction to Enthalpy=                  0.174396
 Thermal correction to Gibbs Free Energy=         0.124310
 Sum of electronic and zero-point Energies=           -649.797141
 Sum of electronic and thermal Energies=              -649.785920
 Sum of electronic and thermal Enthalpies=            -649.784975
 Sum of electronic and thermal Free Energies=         -649.835062

                     E (Thermal)             CV                S
                      KCal/Mol        Cal/Mol-Kelvin    Cal/Mol-Kelvin
 Total                  108.843             43.968            105.415
 Electronic               0.000              0.000              1.377
 Translational            0.889              2.981             41.600
 Rotational               0.889              2.981             31.378
 Vibrational            107.065             38.007             31.059
 Vibration     1          0.596              1.975              4.584
 Vibration     2          0.601              1.959              3.747
 Vibration     3          0.609              1.933              3.115
 Vibration     4          0.628              1.872              2.372
 Vibration     5          0.639              1.837              2.116
 Vibration     6          0.659              1.774              1.780
 Vibration     7          0.686              1.693              1.476
 Vibration     8          0.708              1.628              1.292
 Vibration     9          0.709              1.625              1.283
 Vibration    10          0.721              1.592              1.203
 Vibration    11          0.748              1.517              1.047
 Vibration    12          0.816              1.344              0.772
 Vibration    13          0.833              1.303              0.721
 Vibration    14          0.863              1.233              0.639
 Vibration    15          0.882              1.190              0.594
 Vibration    16          0.888              1.177              0.580

                           ! Non-Optimized Parameters !
 Normal termination of Gaussian 16 at Sun Feb 11 02:01:38 2024.
