 Q-Chem 5.4, Q-Chem, Inc., Pleasanton, CA (2021)
 Q-Chem 5.4.0 for Intel X86 EM64T Linux

User input:
--------------------------------------------------------------
$molecule
0 1
C                  0.0805730000      1.8262940000     -2.1014110000
C                 -1.3630410000      1.8894910000     -1.7620660000
C                 -2.0704220000      0.7856540000     -1.4900340000
C                 -1.4379250000     -0.5565930000     -1.5203250000
C                  0.0011540000     -0.6260160000     -1.8742530000
C                  0.7247190000      0.4761720000     -2.1278400000
O                  0.7113500000      2.8358310000     -2.3619320000
O                 -2.0749820000     -1.5642160000     -1.2620920000
C                  3.2377370000      0.8373100000     -1.6081940000
C                  4.5619150000      0.8955960000     -2.0665720000
C                  2.9520350000      1.1817490000     -0.2814030000
C                  3.9743760000      1.5771240000      0.5763640000
C                  5.5791830000      1.2975000000     -1.2115010000
C                  5.2868970000      1.6377840000      0.1114320000
H                 -1.7990770000      2.8824960000     -1.7564320000
H                 -3.1256500000      0.8109130000     -1.2415440000
H                  0.4327180000     -1.6207680000     -1.9110720000
H                  4.7679130000      0.6248200000     -3.0947700000
H                  1.9345330000      1.1335130000      0.0883660000
H                  3.7481000000      1.8385280000      1.6034820000
H                  6.6004550000      1.3473510000     -1.5711920000
H                  6.0826390000      1.9503240000      0.7783040000
C                  2.1803350000      0.3839490000     -2.5499750000
O                  2.4299850000     -0.0799070000     -3.6451790000
$end
$rem
MAX_SCF_CYCLES=200
BASIS  =  6-311++G(d,p)
GUI  =  2
JOB_TYPE  =  SP
METHOD  =  B3LYP
SOLVENT_METHOD = COSMO
$end
$solvent
dielectric 37.219
opticaldielectric 1.43
$end

--------------------------------------------------------------

             Standard Nuclear Orientation (Angstroms)
    I     Atom           X                Y                Z
 ----------------------------------------------------------------
    1      C      -1.3056784304    -0.8389314256     1.0271240198
    2      C      -2.6558607847    -1.4064726540     0.7861368103
    3      C      -3.5101970430    -0.8456996954    -0.0790155794
    4      C      -3.1424468827     0.3770442210    -0.8354903927
    5      C      -1.7997455953     0.9567703277    -0.5862839634
    6      C      -0.9275020988     0.3904811204     0.2629385515
    7      O      -0.5416362479    -1.3487838548     1.8278772985
    8      O      -3.9125617763     0.8852651649    -1.6332776679
    9      C       1.6555218543     0.3752496188     0.0544503082
   10      C       2.8957235920     0.8872174614     0.4627928142
   11      C       1.6153367278    -0.7146812665    -0.8236579062
   12      C       2.7968858017    -1.2844139541    -1.2890751254
   13      C       4.0731627176     0.3127009458     0.0033634911
   14      C       4.0252955274    -0.7732318423    -0.8740387774
   15      H      -2.8990715955    -2.2943719917     1.3594616160
   16      H      -4.5008853475    -1.2442186157    -0.2677237741
   17      H      -1.5653338208     1.8627405538    -1.1352864550
   18      H       2.9111516298     1.7314441472     1.1410178684
   19      H       0.6640546869    -1.1153044685    -1.1537028631
   20      H       2.7598501171    -2.1251687707    -1.9719103630
   21      H       5.0297448068     0.7071754668     0.3261634207
   22      H       4.9457294809    -1.2200471662    -1.2328733493
   23      C       0.4181395009     1.0306885544     0.5543216429
   24      O       0.4320668643     2.0756964868     1.1745826867
 ----------------------------------------------------------------

    9    -726.0266730408      6.25e-06  Convergence criterion met
 Total energy in the final basis set =     -726.0266730408
    5    -726.0472323867      5.84e-06  Convergence criterion met
 Total energy in the final basis set =     -726.0472323867

                    Orbital Energies (a.u.)
 --------------------------------------------------------------

 Alpha MOs
 -- Occupied --
-19.1549 -19.1527 -19.1429 -10.3014 -10.2965 -10.2949 -10.2320 -10.2235
-10.2176 -10.2166 -10.2025 -10.1980 -10.1935 -10.1934 -10.1892 -10.1887
 -1.0878  -1.0820  -1.0773  -0.8810  -0.8742  -0.8127  -0.7801  -0.7663
 -0.7250  -0.6798  -0.6418  -0.6282  -0.6182  -0.5731  -0.5398  -0.5362
 -0.5165  -0.5001  -0.4842  -0.4801  -0.4638  -0.4623  -0.4535  -0.4499
 -0.4463  -0.4388  -0.4306  -0.4242  -0.4157  -0.3808  -0.3759  -0.3603
 -0.3255  -0.3142  -0.3041  -0.3017  -0.2791  -0.2762  -0.2741

          Ground-State Mulliken Net Atomic Charges

     Atom                 Charge (a.u.)
  ----------------------------------------
      1 C                    -0.639394
      2 C                    -0.145734
      3 C                     0.245934
      4 C                    -0.583808
      5 C                     0.304763
      6 C                     0.914603
      7 O                    -0.272394
      8 O                    -0.302980
      9 C                     0.838525
     10 C                     0.372511
     11 C                    -0.801413
     12 C                    -0.327076
     13 C                    -0.482314
     14 C                    -0.281015
     15 H                     0.272839
     16 H                     0.274536
     17 H                     0.302914
     18 H                     0.231489
     19 H                     0.184020
     20 H                     0.238341
     21 H                     0.223293
     22 H                     0.208554
     23 C                    -0.502507
     24 O                    -0.273686
  ----------------------------------------
  Sum of atomic charges =     0.000000

                    Cartesian Multipole Moments
 -----------------------------------------------------------------
    Charge (ESU x 10^10)
                 0.0000
    Dipole Moment (Debye)
         X       1.6117      Y      -3.8475      Z      -2.3742
       Tot       4.7998
    Quadrupole Moments (Debye-Ang)
        XX     -78.0938     XY       8.4131     YY     -94.8366
        XZ     -12.2987     YZ       3.9736     ZZ    -100.7163

 Total job time:  46.10s(wall), 328.20s(cpu)
        *  Thank you very much for using Q-Chem.  Have a nice day.  *
