 Q-Chem 5.4, Q-Chem, Inc., Pleasanton, CA (2021)
 Q-Chem 5.4.0 for Intel X86 EM64T Linux

User input:
--------------------------------------------------------------
$molecule
-2 1
C                  5.0647390000     -2.2622240000      0.6670290000
C                  5.8839250000     -1.4354870000     -0.0745640000
C                  5.3105280000     -0.5478580000     -1.0264250000
C                  3.6555720000     -2.2612800000      0.5163560000
C                  3.0728350000     -1.3594660000     -0.4521850000
C                  3.9413280000     -0.5239210000     -1.1976490000
C                  2.8557210000     -3.1614880000      1.3287750000
C                  1.4242180000     -3.0818030000      1.0977750000
C                  0.8442840000     -2.1813010000      0.1296080000
C                  1.6418130000     -1.2837170000     -0.6858030000
C                  0.5549950000     -3.9205180000      1.8412220000
C                 -0.5635770000     -2.1950730000     -0.0262120000
C                 -1.3762210000     -3.0319880000      0.7084000000
O                  3.3751220000     -3.9621170000      2.1787600000
O                  1.1262780000     -0.4879410000     -1.5435110000
H                  5.4715010000     -2.9509120000      1.4009840000
H                  6.9626900000     -1.4608810000      0.0672780000
H                  5.9491170000      0.1079140000     -1.6152110000
H                 -2.4529240000     -3.0263890000      0.5461960000
H                  3.4728370000      0.1416220000     -1.9160420000
H                  1.0274020000     -4.5841590000      2.5603010000
H                 -0.9771460000     -1.5176350000     -0.7666190000
C                 -0.8162730000     -3.9234640000      1.6719330000
C                 -1.7221610000     -4.8187950000      2.4944610000
C                 -2.3819780000     -4.0692360000      3.6503280000
O                 -3.3131890000     -4.9400670000      4.3196710000
H                 -1.1544270000     -5.6614440000      2.9020350000
H                 -2.5183760000     -5.2404370000      1.8672260000
H                 -2.9037320000     -3.1843140000      3.2645760000
H                 -1.6109730000     -3.7238620000      4.3517260000
H                 -3.7661580000     -4.4373190000      5.0140040000
$end
$rem
MAX_SCF_CYCLES=200
BASIS  =  6-311++G(d,p)
GUI  =  2
JOB_TYPE  =  SP
METHOD  =  B3LYP
SOLVENT_METHOD = COSMO
$end
$solvent
dielectric 37.219
opticaldielectric 1.43
$end

--------------------------------------------------------------

             Standard Nuclear Orientation (Angstroms)
    I     Atom           X                Y                Z
 ----------------------------------------------------------------
    1      C       3.2819290119    -1.7518256019     0.0587883256
    2      C       4.5860268086    -1.3233926355     0.2012456084
    3      C       4.8629078374     0.0688813940     0.2885304701
    4      C       2.1927228596    -0.8473126290    -0.0039899950
    5      C       2.4745135537     0.5682499273     0.0837552292
    6      C       3.8240135774     0.9754116035     0.2293614408
    7      C       0.8460837874    -1.3697799673    -0.1581061417
    8      C      -0.1969564009    -0.3607397533    -0.2111773238
    9      C       0.0864694871     1.0523034068    -0.1242668529
   10      C       1.4314890336     1.5766647267     0.0259738462
   11      C      -1.5473982215    -0.7678229909    -0.3604925724
   12      C      -1.0050711703     1.9517969728    -0.2016777925
   13      C      -2.3046984819     1.5188443305    -0.3565733670
   14      O       0.6018254639    -2.6213773146    -0.2423714748
   15      O       1.6803744869     2.8284847183     0.1014823310
   16      H       3.0378399741    -2.8072834236    -0.0109666467
   17      H       5.3990846305    -2.0454149343     0.2472750749
   18      H       5.8883930077     0.4154850344     0.4014369032
   19      H      -3.1148850524     2.2425201864    -0.4308822708
   20      H       4.0020477418     2.0444349196     0.2927080303
   21      H      -1.7217939509    -1.8385524920    -0.4220297476
   22      H      -0.7680805254     3.0094993766    -0.1445363337
   23      C      -2.5990656080     0.1248522326    -0.4390420851
   24      C      -4.0350276754    -0.3407778057    -0.5804796587
   25      C      -4.7852059892    -0.3156149409     0.7498680467
   26      O      -6.1668931673    -0.6563407133     0.5299428351
   27      H      -4.0660478428    -1.3591886368    -0.9809455447
   28      H      -4.5790087137     0.2996210400    -1.2869766480
   29      H      -4.7097644578     0.6842123201     1.1957074928
   30      H      -4.3227474146    -1.0280790201     1.4457258389
   31      H      -6.6438861223    -0.5818175103     1.3707512523
 ----------------------------------------------------------------

   21    -842.8258305333      6.32e-06  Convergence criterion met
 Total energy in the final basis set =     -842.8258305333
    6    -843.0980715063      3.39e-06  Convergence criterion met
 Total energy in the final basis set =     -843.0980715063

                    Orbital Energies (a.u.)
 --------------------------------------------------------------

 Alpha MOs
 -- Occupied --
-19.1237 -19.0268 -19.0263 -10.2091 -10.1777 -10.1770 -10.1603 -10.1586
-10.1496 -10.1491 -10.1486 -10.1475 -10.1471 -10.1469 -10.1449 -10.1379
-10.1378 -10.1375 -10.1371  -1.0172  -0.9494  -0.9464  -0.8336  -0.8248
 -0.7738  -0.7419  -0.7245  -0.7197  -0.6985  -0.6378  -0.6187  -0.6011
 -0.5746  -0.5602  -0.5272  -0.5157  -0.5042  -0.4843  -0.4655  -0.4403
 -0.4335  -0.4283  -0.4159  -0.4120  -0.3998  -0.3978  -0.3835  -0.3797
 -0.3756  -0.3688  -0.3522  -0.3495  -0.3425  -0.3338  -0.3320  -0.3175
 -0.3154  -0.3025  -0.3014  -0.2796  -0.2364  -0.2298  -0.2279  -0.2160
 -0.2098  -0.2014  -0.1081

          Ground-State Mulliken Net Atomic Charges

     Atom                 Charge (a.u.)
  ----------------------------------------
      1 C                    -0.021223
      2 C                    -0.522266
      3 C                    -0.524836
      4 C                     0.319419
      5 C                     0.145801
      6 C                     0.023744
      7 C                    -0.554480
      8 C                     0.130176
      9 C                     0.039660
     10 C                    -0.613226
     11 C                    -0.359438
     12 C                     0.007590
     13 C                    -0.549865
     14 O                    -0.689450
     15 O                    -0.691334
     16 H                     0.152825
     17 H                     0.178876
     18 H                     0.177372
     19 H                     0.178001
     20 H                     0.156196
     21 H                     0.148517
     22 H                     0.163083
     23 C                     0.602577
     24 C                     0.035532
     25 C                    -0.529574
     26 O                    -0.390133
     27 H                     0.171406
     28 H                     0.173515
     29 H                     0.169610
     30 H                     0.170988
     31 H                     0.300929
  ----------------------------------------
  Sum of atomic charges =    -2.000007

                    Cartesian Multipole Moments
 -----------------------------------------------------------------
    Charge (ESU x 10^10)
                -9.6064
    Dipole Moment (Debye)
         X     -10.1562      Y      -0.2946      Z       2.5478
       Tot      10.4750
    Quadrupole Moments (Debye-Ang)
        XX    -157.6007     XY     -13.1129     YY    -173.2003
        XZ     -12.9299     YZ      -3.6520     ZZ    -120.7253

 Total job time:  140.08s(wall), 1077.66s(cpu)
        *  Thank you very much for using Q-Chem.  Have a nice day.  *
