 Gaussian 16, Revision A.03,
 Gaussian 16:  ES64L-G16RevA.03 25-Dec-2016

 ----------------------------------------------------------------
 #P UB3LYP/6-311++G(d,p) SCRF=(PCM,Solvent=n,n-DiMethylFormamide)
 ----------------------------------------------------------------

 -------
 Reduced
 -------
 Symbolic Z-matrix:
 Charge = -2 Multiplicity = 1

                         Standard orientation:
 ---------------------------------------------------------------------
 Center     Atomic      Atomic             Coordinates (Angstroms)
 Number     Number       Type             X           Y           Z
 ---------------------------------------------------------------------
      1          6           0       -5.037955   -0.059896   -1.556601
      2          6           0       -5.871265   -1.148607   -1.369675
      3          6           0       -5.577884   -2.090402   -0.355143
      4          6           0       -3.890554    0.142145   -0.758496
      5          6           0       -3.592524   -0.813343    0.265999
      6          6           0       -4.458310   -1.914997    0.438891
      7          6           0       -3.042663    1.310777   -0.990098
      8          6           0       -1.890678    1.424975   -0.133904
      9          6           0       -1.607206    0.491848    0.878244
     10          6           0       -2.423543   -0.664721    1.129381
     11          8           0       -3.324540    2.165864   -1.899382
     12          8           0       -2.158443   -1.508943    2.053731
     13          1           0       -6.748149   -1.281540   -1.999830
     14          1           0       -6.228754   -2.948704   -0.202695
     15          6           0       -0.995243    2.619020   -0.368412
     16          1           0       -5.235888    0.680608   -2.324739
     17          1           0       -4.203860   -2.619462    1.224162
     18          1           0       -1.072490    3.362006    0.440333
     19          1           0       -1.302826    3.107338   -1.294906
     20          1           0        0.061447    2.335703   -0.440417
     21          6           0       -0.419747    0.670171    1.811858
     22          6           0        0.833796   -0.032185    1.347959
     23          6           0        2.096969    0.420914    1.303194
     24          6           0        3.228897   -0.481829    0.845706
     25          6           0        2.514936    1.810786    1.726481
     26          6           0        3.959861   -0.018701   -0.440459
     27          6           0        5.038545   -0.976175   -0.869332
     28          6           0        6.358373   -0.767398   -0.983431
     29          6           0        7.056951    0.539918   -0.698328
     30          6           0        7.291532   -1.873503   -1.417518
     31          1           0       -0.709615    0.202724    2.762455
     32          1           0       -0.230833    1.730568    1.996556
     33          1           0        0.655566   -1.060485    1.038234
     34          1           0        2.837100   -1.491277    0.683888
     35          1           0        3.980178   -0.563457    1.645287
     36          1           0        1.683582    2.386251    2.133017
     37          1           0        2.933299    2.383494    0.889076
     38          1           0        3.300288    1.762487    2.493443
     39          1           0        4.366685    0.983961   -0.293735
     40          1           0        3.211673    0.063874   -1.239533
     41          1           0        4.680382   -1.979269   -1.103710
     42          1           0        6.382873    1.331252   -0.367345
     43          1           0        7.585443    0.896739   -1.591996
     44          1           0        7.826595    0.404304    0.073451
     45          1           0        6.760131   -2.806624   -1.625260
     46          1           0        8.048853   -2.077504   -0.647858
     47          1           0        7.848458   -1.591154   -2.320561
 ---------------------------------------------------------------------

 SCF Done:  E(UB3LYP) =  -965.613518997     A.U. after   18 cycles

 The electronic state is 1-A.
 Alpha  occ. eigenvalues --  -19.00822 -19.00678 -10.17451 -10.16257 -10.16055
 Alpha  occ. eigenvalues --  -10.16031 -10.15971 -10.15915 -10.15864 -10.15848
 Alpha  occ. eigenvalues --  -10.15744 -10.15335 -10.14750 -10.14413 -10.14366
 Alpha  occ. eigenvalues --  -10.14032 -10.14000 -10.13959 -10.12959 -10.12721
 Alpha  occ. eigenvalues --  -10.12680 -10.11822 -10.11737  -0.93130  -0.92783
 Alpha  occ. eigenvalues --   -0.81967  -0.81831  -0.80175  -0.77365  -0.74664
 Alpha  occ. eigenvalues --   -0.72146  -0.71620  -0.70561  -0.68875  -0.67661
 Alpha  occ. eigenvalues --   -0.66058  -0.63269  -0.61311  -0.59534  -0.56408
 Alpha  occ. eigenvalues --   -0.54819  -0.51757  -0.51354  -0.50046  -0.47498
 Alpha  occ. eigenvalues --   -0.46653  -0.46080  -0.44750  -0.43626  -0.43031
 Alpha  occ. eigenvalues --   -0.42522  -0.42395  -0.40821  -0.40612  -0.39576
 Alpha  occ. eigenvalues --   -0.39513  -0.38352  -0.38092  -0.37846  -0.36755
 Alpha  occ. eigenvalues --   -0.36703  -0.36424  -0.36396  -0.36297  -0.35752
 Alpha  occ. eigenvalues --   -0.35418  -0.34463  -0.34186  -0.33061  -0.32729
 Alpha  occ. eigenvalues --   -0.32464  -0.31299  -0.30741  -0.30374  -0.29725
 Alpha  occ. eigenvalues --   -0.29543  -0.23808  -0.22476  -0.22363  -0.21627
 Alpha  occ. eigenvalues --   -0.19731  -0.19226  -0.18187  -0.09855
 Alpha virt. eigenvalues --   -0.00603  -0.00119   0.00146   0.00623   0.00934
 Alpha virt. eigenvalues --    0.01402   0.01434   0.01666   0.02003   0.02146
 Alpha virt. eigenvalues --    0.02709   0.03038   0.03789   0.03866   0.04191

  Beta  occ. eigenvalues --  -19.00822 -19.00678 -10.17451 -10.16257 -10.16055
  Beta  occ. eigenvalues --  -10.16031 -10.15971 -10.15915 -10.15864 -10.15848
  Beta  occ. eigenvalues --  -10.15744 -10.15335 -10.14750 -10.14413 -10.14366
  Beta  occ. eigenvalues --  -10.14032 -10.14000 -10.13959 -10.12959 -10.12721
  Beta  occ. eigenvalues --  -10.12680 -10.11822 -10.11737  -0.93130  -0.92783
  Beta  occ. eigenvalues --   -0.81967  -0.81831  -0.80175  -0.77365  -0.74664
  Beta  occ. eigenvalues --   -0.72146  -0.71620  -0.70561  -0.68875  -0.67661
  Beta  occ. eigenvalues --   -0.66058  -0.63269  -0.61311  -0.59534  -0.56408
  Beta  occ. eigenvalues --   -0.54819  -0.51757  -0.51354  -0.50046  -0.47498
  Beta  occ. eigenvalues --   -0.46653  -0.46080  -0.44750  -0.43626  -0.43031
  Beta  occ. eigenvalues --   -0.42522  -0.42395  -0.40821  -0.40612  -0.39576
  Beta  occ. eigenvalues --   -0.39513  -0.38352  -0.38092  -0.37846  -0.36755
  Beta  occ. eigenvalues --   -0.36703  -0.36424  -0.36396  -0.36297  -0.35752
  Beta  occ. eigenvalues --   -0.35418  -0.34463  -0.34186  -0.33061  -0.32729
  Beta  occ. eigenvalues --   -0.32464  -0.31299  -0.30741  -0.30374  -0.29725
  Beta  occ. eigenvalues --   -0.29543  -0.23808  -0.22476  -0.22363  -0.21627
  Beta  occ. eigenvalues --   -0.19731  -0.19226  -0.18187  -0.09855
  Beta virt. eigenvalues --   -0.00603  -0.00119   0.00146   0.00623   0.00934
  Beta virt. eigenvalues --    0.01402   0.01434   0.01666   0.02003   0.02146
  Beta virt. eigenvalues --    0.02709   0.03038   0.03789   0.03866   0.04191

 Mulliken charges and spin densities:
               1          2
     1  C    0.028513  -0.000000
     2  C   -0.514421   0.000000
     3  C   -0.464565  -0.000000
     4  C    0.053611  -0.000000
     5  C    0.163719   0.000000
     6  C   -0.091056   0.000000
     7  C   -0.711274  -0.000000
     8  C    0.610374   0.000000
     9  C    0.910355  -0.000000
    10  C   -0.923502  -0.000000
    11  O   -0.684648  -0.000000
    12  O   -0.661997   0.000000
    13  H    0.147001   0.000000
    14  H    0.150810   0.000000
    15  C   -0.524074   0.000000
    16  H    0.144171   0.000000
    17  H    0.141322   0.000000
    18  H    0.145602  -0.000000
    19  H    0.160745   0.000000
    20  H    0.146214   0.000000
    21  C   -0.074522   0.000000
    22  C   -0.727611  -0.000000
    23  C    0.921364   0.000000
    24  C   -0.908648  -0.000000
    25  C   -0.822426  -0.000000
    26  C   -0.256178   0.000000
    27  C   -0.056690  -0.000000
    28  C    0.393878   0.000000
    29  C   -0.672308   0.000000
    30  C   -0.625166   0.000000
    31  H    0.166985  -0.000000
    32  H    0.170740   0.000000
    33  H    0.210630  -0.000000
    34  H    0.126105   0.000000
    35  H    0.161347   0.000000
    36  H    0.114525  -0.000000
    37  H    0.158135  -0.000000
    38  H    0.154429   0.000000
    39  H    0.115547   0.000000
    40  H    0.162901  -0.000000
    41  H    0.171365   0.000000
    42  H    0.139532   0.000000
    43  H    0.146093  -0.000000
    44  H    0.150321  -0.000000
    45  H    0.155894   0.000000
    46  H    0.152452  -0.000000
    47  H    0.144401  -0.000000
 Sum of Mulliken charges =  -2.00000  -0.00000

 Dipole moment (field-independent basis, Debye):
    X=             28.1742    Y=             -1.2953    Z=              0.1366  Tot=             28.2043
 Quadrupole moment (field-independent basis, Debye-Ang):
   XX=           -241.0307   YY=           -178.3618   ZZ=           -182.8831
   XY=             10.3905   XZ=            -11.2008   YZ=             26.2180

 Normal termination of Gaussian 16 at Sun Jan 21 09:01:45 2024.
