 Gaussian 16, Revision A.03,
 Gaussian 16:  ES64L-G16RevA.03 25-Dec-2016

 ----------------------------------------------------------------------
 #P UB3LYP/6-311++G(d,p) nosym opt freq SCRF=(PCM,Solvent=n,n-DiMethylF
 ormamide)
 ----------------------------------------------------------------------

 --------
 Oxidized
 --------
 Symbolic Z-matrix:
 Charge =  0 Multiplicity = 1

 SCF Done:  E(UB3LYP) =  -538.880023104     A.U. after   14 cycles
 SCF Done:  E(UB3LYP) =  -538.880098284     A.U. after   11 cycles
 SCF Done:  E(UB3LYP) =  -538.880109230     A.U. after   10 cycles
 SCF Done:  E(UB3LYP) =  -538.880109523     A.U. after    9 cycles
 SCF Done:  E(UB3LYP) =  -538.880110136     A.U. after    8 cycles
 Optimization completed.
    -- Stationary point found.
 Normal termination of Gaussian 16 at Sat Feb 10 10:10:29 2024.

 ----------------------------------------------------------------------
 #P Geom=AllCheck Guess=TCheck SCRF=Check GenChk UB3LYP/6-311++G(d,p) F
 req
 ----------------------------------------------------------------------

 Structure from the checkpoint file:  "034.chk"
 --------
 Oxidized
 --------
 Charge =  0 Multiplicity = 1

                          Input orientation:
 ---------------------------------------------------------------------
 Center     Atomic      Atomic             Coordinates (Angstroms)
 Number     Number       Type             X           Y           Z
 ---------------------------------------------------------------------
      1          6           0       -2.491372    1.403575    0.360514
      2          6           0       -2.005109   -0.057807    0.430480
      3          6           0       -2.774756   -0.961967   -0.552980
      4          6           0       -0.503390   -0.174127    0.265845
      5          6           0        0.280348   -0.648077    1.251974
      6          6           0        1.745603   -0.780975    1.140241
      7          8           0        2.405299   -1.219268    2.076097
      8          6           0        2.406433   -0.369279   -0.137154
      9          6           0        1.630361    0.105321   -1.126240
     10          6           0        0.162525    0.240060   -1.014928
     11          8           0       -0.480024    0.683315   -1.959754
     12          6           0        3.892890   -0.511744   -0.232771
     13          1           0       -2.349744    1.822049   -0.636778
     14          1           0       -3.556840    1.444900    0.602763
     15          1           0       -1.958619    2.031715    1.079410
     16          1           0       -2.218194   -0.422402    1.440722
     17          1           0       -2.644141   -0.629777   -1.583695
     18          1           0       -2.441254   -2.000419   -0.478157
     19          1           0       -3.841629   -0.933562   -0.315092
     20          1           0       -0.138770   -0.963808    2.202039
     21          1           0        2.049417    0.420837   -2.076099
     22          1           0        4.386422    0.075658    0.546637
     23          1           0        4.254422   -0.182638   -1.207018
     24          1           0        4.190121   -1.552473   -0.076058
 ---------------------------------------------------------------------

 SCF Done:  E(UB3LYP) =  -538.880110136     A.U. after    1 cycles

 Alpha  occ. eigenvalues --  -19.14104 -19.14003 -10.28596 -10.28470 -10.21981
 Alpha  occ. eigenvalues --  -10.21706 -10.20290 -10.20274 -10.19317 -10.17912
 Alpha  occ. eigenvalues --  -10.16238 -10.16236  -1.07009  -1.06820  -0.86954
 Alpha  occ. eigenvalues --   -0.82939  -0.77830  -0.72945  -0.69032  -0.68981
 Alpha  occ. eigenvalues --   -0.62945  -0.61698  -0.56367  -0.53098  -0.49563
 Alpha  occ. eigenvalues --   -0.48460  -0.46022  -0.45932  -0.44870  -0.44365
 Alpha  occ. eigenvalues --   -0.43186  -0.42273  -0.41402  -0.40901  -0.40732
 Alpha  occ. eigenvalues --   -0.39126  -0.38589  -0.36124  -0.35298  -0.34621
 Alpha  occ. eigenvalues --   -0.30401  -0.28757  -0.28539  -0.27612
 Alpha virt. eigenvalues --   -0.13369  -0.02558  -0.00682  -0.00554   0.00173
 Alpha virt. eigenvalues --    0.01064   0.01863   0.02432   0.02678   0.03886
 Alpha virt. eigenvalues --    0.04000   0.04787   0.05035   0.05147   0.06138

  Beta  occ. eigenvalues --  -19.14104 -19.14003 -10.28596 -10.28470 -10.21981
  Beta  occ. eigenvalues --  -10.21706 -10.20290 -10.20274 -10.19317 -10.17912
  Beta  occ. eigenvalues --  -10.16238 -10.16236  -1.07009  -1.06820  -0.86954
  Beta  occ. eigenvalues --   -0.82939  -0.77830  -0.72945  -0.69032  -0.68981
  Beta  occ. eigenvalues --   -0.62945  -0.61698  -0.56367  -0.53098  -0.49563
  Beta  occ. eigenvalues --   -0.48460  -0.46022  -0.45932  -0.44870  -0.44365
  Beta  occ. eigenvalues --   -0.43186  -0.42273  -0.41402  -0.40901  -0.40732
  Beta  occ. eigenvalues --   -0.39126  -0.38589  -0.36124  -0.35298  -0.34621
  Beta  occ. eigenvalues --   -0.30401  -0.28757  -0.28539  -0.27612
  Beta virt. eigenvalues --   -0.13369  -0.02558  -0.00682  -0.00554   0.00173
  Beta virt. eigenvalues --    0.01064   0.01863   0.02432   0.02678   0.03886
  Beta virt. eigenvalues --    0.04000   0.04787   0.05035   0.05147   0.06138

 Mulliken charges and spin densities:
               1          2
     1  C   -0.689688   0.000000
     2  C    0.151019   0.000000
     3  C   -0.689883  -0.000000
     4  C    1.292450  -0.000000
     5  C   -0.154201   0.000000
     6  C   -0.889676   0.000000
     7  O   -0.283607   0.000000
     8  C    1.189280   0.000000
     9  C   -0.749657   0.000000
    10  C   -0.733213  -0.000000
    11  O   -0.254490   0.000000
    12  C   -0.333446  -0.000000
    13  H    0.179211  -0.000000
    14  H    0.163073  -0.000000
    15  H    0.137439  -0.000000
    16  H    0.201495  -0.000000
    17  H    0.179182  -0.000000
    18  H    0.137403   0.000000
    19  H    0.163031   0.000000
    20  H    0.224700   0.000000
    21  H    0.209788  -0.000000
    22  H    0.190694  -0.000000
    23  H    0.168648   0.000000
    24  H    0.190447  -0.000000
 Sum of Mulliken charges =  -0.00000   0.00000

 Dipole moment (field-independent basis, Debye):
    X=             -0.2043    Y=              0.0448    Z=             -0.0757  Tot=              0.2225
 Quadrupole moment (field-independent basis, Debye-Ang):
   XX=            -66.6985   YY=            -74.6878   ZZ=            -82.7863
   XY=              4.4016   XZ=            -12.9990   YZ=              5.7539

  Exact polarizability: 201.737 -25.983 127.244  39.301 -32.340 183.295
 Approx polarizability: 219.121 -38.167 147.981  69.254 -51.229 234.992

                      1                      2                      3
                      A                      A                      A
 Frequencies --     51.5406                61.5358               128.7372
 Red. masses --      4.3687                 3.2923                 3.5835
 Frc consts  --      0.0068                 0.0073                 0.0350
 IR Inten    --     10.8534                 0.4199                 7.0604

                      4                      5                      6
                      A                      A                      A
 Frequencies --    133.8987               176.0552               184.8314
 Red. masses --      1.3372                 2.1611                 3.2845
 Frc consts  --      0.0141                 0.0395                 0.0661
 IR Inten    --      0.0236                 0.7765                 1.2982

                      7                      8                      9
                      A                      A                      A
 Frequencies --    214.8204               231.3379               240.9487
 Red. masses --      1.2254                 1.1054                 2.8306
 Frc consts  --      0.0333                 0.0349                 0.0968
 IR Inten    --      0.8131                 0.2491                 0.0120

                     10                     11                     12
                      A                      A                      A
 Frequencies --    267.1853               291.4829               382.8317
 Red. masses --      3.0437                 3.2949                 3.2036
 Frc consts  --      0.1280                 0.1649                 0.2766
 IR Inten    --      0.2790                 1.0369                 1.5226

                     13                     14                     15
                      A                      A                      A
 Frequencies --    399.0557               415.6997               447.0583
 Red. masses --      7.8590                 3.4106                 3.3347
 Frc consts  --      0.7374                 0.3472                 0.3927
 IR Inten    --     30.3996                12.1020                 0.4647

                     16                     17                     18
                      A                      A                      A
 Frequencies --    484.5021               496.6216               642.4532
 Red. masses --      3.7858                 7.4188                 4.0591
 Frc consts  --      0.5236                 1.0780                 0.9871
 IR Inten    --      0.0175                 0.0499                 0.3121

                     19                     20                     21
                      A                      A                      A
 Frequencies --    648.2647               706.6824               711.0250
 Red. masses --      5.2892                 3.8139                 4.1152
 Frc consts  --      1.3096                 1.1222                 1.2258
 IR Inten    --      3.2977                16.2235                10.2950

                     22                     23                     24
                      A                      A                      A
 Frequencies --    797.8670               801.1984               882.7632
 Red. masses --      3.9179                 3.6653                 1.5907
 Frc consts  --      1.4695                 1.3862                 0.7303
 IR Inten    --      0.6998                 4.1215                 1.8446

                     25                     26                     27
                      A                      A                      A
 Frequencies --    883.1745               932.3226               938.2892
 Red. masses --      2.1824                 1.3366                 1.3174
 Frc consts  --      1.0030                 0.6845                 0.6834
 IR Inten    --      1.6936                23.8918                48.4133

                     28                     29                     30
                      A                      A                      A
 Frequencies --    966.3487              1015.1638              1020.3577
 Red. masses --      1.5357                 2.1033                 1.7843
 Frc consts  --      0.8450                 1.2771                 1.0945
 IR Inten    --      0.1552               123.7684                 5.2003

                     31                     32                     33
                      A                      A                      A
 Frequencies --   1056.0453              1111.5972              1119.5373
 Red. masses --      1.5394                 2.3637                 2.6961
 Frc consts  --      1.0115                 1.7208                 1.9909
 IR Inten    --      4.4555                 1.8143                49.7951

                     34                     35                     36
                      A                      A                      A
 Frequencies --   1172.1785              1197.5546              1240.0543
 Red. masses --      1.9537                 2.2487                 1.4941
 Frc consts  --      1.5816                 1.9001                 1.3537
 IR Inten    --     26.2521                46.3577                10.5758

                     37                     38                     39
                      A                      A                      A
 Frequencies --   1255.7555              1338.9130              1341.1582
 Red. masses --      2.9679                 2.4753                 1.3115
 Frc consts  --      2.7575                 2.6145                 1.3899
 IR Inten    --    114.7830                63.4995                 1.7996

                     40                     41                     42
                      A                      A                      A
 Frequencies --   1368.9794              1387.4401              1396.0214
 Red. masses --      2.4380                 1.2074                 1.3757
 Frc consts  --      2.6920                 1.3694                 1.5796
 IR Inten    --     30.3925                 6.1377                 6.1865

                     43                     44                     45
                      A                      A                      A
 Frequencies --   1406.8124              1409.5877              1459.0312
 Red. masses --      1.2557                 1.3579                 1.0430
 Frc consts  --      1.4642                 1.5896                 1.3081
 IR Inten    --     22.1618                 3.5140                14.1948

                     46                     47                     48
                      A                      A                      A
 Frequencies --   1470.1812              1478.7658              1488.5340
 Red. masses --      1.0706                 1.0407                 1.0478
 Frc consts  --      1.3634                 1.3408                 1.3679
 IR Inten    --     23.9714                 1.7229                 3.5807

                     49                     50                     51
                      A                      A                      A
 Frequencies --   1489.6694              1504.0523              1648.1094
 Red. masses --      1.0449                 1.0608                 7.8798
 Frc consts  --      1.3661                 1.4139                12.6106
 IR Inten    --     28.4347                10.3597               220.2085

                     52                     53                     54
                      A                      A                      A
 Frequencies --   1675.4450              1681.9666              1708.2535
 Red. masses --     11.0795                11.6932                 7.8232
 Frc consts  --     18.3245                19.4903                13.4506
 IR Inten    --    197.0222               963.1876                 4.5045

                     55                     56                     57
                      A                      A                      A
 Frequencies --   3027.0170              3028.0433              3032.3062
 Red. masses --      1.0763                 1.0355                 1.0435
 Frc consts  --      5.8104                 5.5942                 5.6532
 IR Inten    --     21.8454                56.8302                39.6696

                     58                     59                     60
                      A                      A                      A
 Frequencies --   3035.0133              3085.3447              3088.2155
 Red. masses --      1.0365                 1.0992                 1.1025
 Frc consts  --      5.6255                 6.1648                 6.1952
 IR Inten    --      9.8215                11.0407                26.7320

                     61                     62                     63
                      A                      A                      A
 Frequencies --   3089.1421              3114.0391              3117.5668
 Red. masses --      1.1019                 1.1014                 1.1005
 Frc consts  --      6.1956                 6.2926                 6.3022
 IR Inten    --     68.7590                 1.7059                53.8404

                     64                     65                     66
                      A                      A                      A
 Frequencies --   3124.7316              3169.9617              3174.3573
 Red. masses --      1.1026                 1.0918                 1.0923
 Frc consts  --      6.3429                 6.4637                 6.4848
 IR Inten    --     15.6894                12.5860                 4.1785

 - Thermochemistry -
 -------------------
 Temperature   298.150 Kelvin.  Pressure   1.00000 Atm.
 Atom     1 has atomic number  6 and mass  12.00000

 Molecular mass:   164.08373 amu.
 Principal axes and moments of inertia in atomic units:
                           1         2         3
     Eigenvalues --  1022.206552925.601663540.79604
           X            0.97318  -0.20120   0.11150
           Y           -0.17466  -0.33088   0.92737
           Z            0.14969   0.92198   0.35714
 This molecule is an asymmetric top.
 Rotational symmetry number  1.
 Warning -- assumption of classical behavior for rotation
           may cause significant error
 Rotational temperatures (Kelvin)      0.08473     0.02961     0.02446
 Rotational constants (GHZ):           1.76553     0.61688     0.50970
 Zero-point vibrational energy     514666.0 (Joules/Mol)
                                  123.00813 (Kcal/Mol)
 Warning -- explicit consideration of  17 degrees of freedom as
           vibrations may cause significant error
 Vibrational temperatures:     74.16    88.54   185.22   192.65   253.30
          (Kelvin)            265.93   309.08   332.84   346.67   384.42
                              419.38   550.81   574.15   598.10   643.22
                              697.09   714.53   924.35   932.71  1016.76
                             1023.01  1147.95  1152.75  1270.10  1270.69
                             1341.40  1349.99  1390.36  1460.59  1468.07
                             1519.41  1599.34  1610.76  1686.50  1723.01
                             1784.16  1806.75  1926.40  1929.63  1969.66
                             1996.22  2008.56  2024.09  2028.08  2099.22
                             2115.26  2127.61  2141.67  2143.30  2164.00
                             2371.26  2410.59  2419.97  2457.80  4355.20
                             4356.68  4362.81  4366.71  4439.12  4443.25
                             4444.59  4480.41  4485.48  4495.79  4560.87
                             4567.19

 Zero-point correction=                           0.196026 (Hartree/Particle)
 Thermal correction to Energy=                    0.208349
 Thermal correction to Enthalpy=                  0.209294
 Thermal correction to Gibbs Free Energy=         0.157700
 Sum of electronic and zero-point Energies=           -538.684084
 Sum of electronic and thermal Energies=              -538.671761
 Sum of electronic and thermal Enthalpies=            -538.670817
 Sum of electronic and thermal Free Energies=         -538.722410

                     E (Thermal)             CV                S
                      KCal/Mol        Cal/Mol-Kelvin    Cal/Mol-Kelvin
 Total                  130.741             45.589            108.587
 Electronic               0.000              0.000              0.000
 Translational            0.889              2.981             41.194
 Rotational               0.889              2.981             30.738
 Vibrational            128.964             39.627             36.654
 Vibration     1          0.596              1.977              4.757
 Vibration     2          0.597              1.973              4.407
 Vibration     3          0.611              1.925              2.965
 Vibration     4          0.613              1.919              2.889
 Vibration     5          0.628              1.872              2.370
 Vibration     6          0.631              1.861              2.279
 Vibration     7          0.645              1.818              2.002
 Vibration     8          0.653              1.793              1.869
 Vibration     9          0.658              1.778              1.796
 Vibration    10          0.672              1.733              1.614
 Vibration    11          0.687              1.690              1.465
 Vibration    12          0.752              1.507              1.028
 Vibration    13          0.765              1.472              0.966
 Vibration    14          0.779              1.436              0.907
 Vibration    15          0.806              1.367              0.805
 Vibration    16          0.841              1.284              0.698
 Vibration    17          0.852              1.258              0.667

                           ! Non-Optimized Parameters !
 Normal termination of Gaussian 16 at Sat Feb 10 10:23:04 2024.
