 Q-Chem 5.4, Q-Chem, Inc., Pleasanton, CA (2021)
 Q-Chem 5.4.0 for Intel X86 EM64T Linux

User input:
--------------------------------------------------------------
$molecule
-1 2
C                  1.1984260000      4.2487950000      5.3430360000
C                  1.4567570000      4.0030820000      3.9374910000
C                  0.9755860000      2.9123800000      3.2861320000
C                  0.1608760000      1.9022530000      3.9385210000
C                 -0.0875850000      2.1342340000      5.3564710000
C                  0.4007750000      3.2391910000      6.0321680000
O                  1.6299790000      5.2692360000      5.9359020000
O                 -0.3043540000      0.9233970000      3.3085790000
H                  2.0572540000      4.7495740000      3.4263930000
H                  1.1728370000      2.7457690000      2.2315530000
S                 -1.0857910000      0.8926350000      6.2053020000
C                  0.2338510000      3.5102970000      7.5028350000
O                  1.0108020000      3.1658090000      8.3562440000
O                 -0.8490080000      4.2822440000      7.7420170000
C                 -1.0707190000      4.6046760000      9.1194620000
H                 -1.9622550000      5.2307430000      9.1344630000
H                 -0.2166120000      5.1472270000      9.5297200000
H                 -1.2324090000      3.6928430000      9.6979490000
C                 -2.6804680000      0.8885330000      5.3371590000
C                 -2.9116430000     -0.0254480000      4.3133100000
C                 -3.6626990000      1.7865980000      5.7485500000
C                 -4.1595870000     -0.0386070000      3.6929950000
C                 -4.9041350000      1.7702650000      5.1151640000
C                 -5.1528300000      0.8569750000      4.0902180000
O                 -0.4983430000     -0.4450680000      6.0651840000
O                 -1.3778810000      1.4026610000      7.5586170000
H                 -2.1150560000     -0.6897120000      4.0096210000
H                 -3.4511190000      2.4761250000      6.5563720000
H                 -4.3524820000     -0.7446670000      2.8925090000
H                 -5.6762980000      2.4659030000      5.4258020000
H                 -6.1204470000      0.8452850000      3.5990190000
$end
$rem
MAX_SCF_CYCLES=200
BASIS  =  6-311++G(d,p)
GUI  =  2
JOB_TYPE  =  SP
METHOD  =  B3LYP
SOLVENT_METHOD = COSMO
$end
$solvent
dielectric 37.219
opticaldielectric 1.43
$end

--------------------------------------------------------------

             Standard Nuclear Orientation (Angstroms)
    I     Atom           X                Y                Z
 ----------------------------------------------------------------
    1      C       2.6667912674     1.2780826227     0.7640913822
    2      C       2.1826689741     2.6245878500     0.9990718260
    3      C       0.9508869582     3.0376181855     0.6021537763
    4      C       0.0138600622     2.1681072018    -0.0875212145
    5      C       0.5015416394     0.8178801783    -0.3428326318
    6      C       1.7559613280     0.3866077269     0.0526761731
    7      O       3.7997468396     0.8957289729     1.1504141464
    8      O      -1.1324002776     2.5593162697    -0.4107357616
    9      H       2.8632149904     3.2907182752     1.5207954071
   10      H       0.6005956438     4.0477714227     0.7910730233
   11      S      -0.6304327991    -0.2887054932    -1.2103574925
   12      C       2.3447334075    -0.9691540695    -0.2292473974
   13      O       3.0145918507    -1.2390069206    -1.1931461808
   14      O       2.1158722643    -1.8274101365     0.7889436036
   15      C       2.6610874361    -3.1392846865     0.6095042773
   16      H       2.3992832532    -3.6917395237     1.5113210993
   17      H       3.7456221547    -3.0922795430     0.4922569230
   18      H       2.2217030245    -3.6120443400    -0.2712169805
   19      C      -2.0967678396    -0.4007338877    -0.1454654713
   20      C      -3.1839983620     0.4386980155    -0.3698619839
   21      C      -2.1149277569    -1.3645147088     0.8601874423
   22      C      -4.3153869131     0.3023988280     0.4324537667
   23      C      -3.2484077971    -1.4860239050     1.6621016819
   24      C      -4.3481687093    -0.6550080135     1.4466935712
   25      O      -1.0535625320     0.2860450168    -2.4928552911
   26      O      -0.0336036922    -1.6379848059    -1.1983187396
   27      H      -3.1202288376     1.1881129650    -1.1459645545
   28      H      -1.2549189286    -2.0079461685     0.9986458680
   29      H      -5.1690765939     0.9513422240     0.2693788192
   30      H      -3.2735668973    -2.2318022671     2.4493916837
   31      H      -5.2301008153    -0.7519203494     2.0715931888
 ----------------------------------------------------------------

    9   -1389.3387050080      9.27e-06  Convergence criterion met
 Total energy in the final basis set =    -1389.3387050080
    4   -1389.4310959330      9.74e-06  Convergence criterion met
 Total energy in the final basis set =    -1389.4310959330

                    Orbital Energies (a.u.)
 --------------------------------------------------------------

 Alpha MOs
 -- Occupied --
-89.0602 -19.1748 -19.1277 -19.1276 -19.1240 -19.1019 -19.0994 -10.3202
-10.2513 -10.2478 -10.2198 -10.2176 -10.2141 -10.2131 -10.1940 -10.1911
-10.1881 -10.1864 -10.1854 -10.1838 -10.1829  -8.1239  -6.0868  -6.0856
 -6.0848  -1.1221  -1.1174  -1.0361  -1.0284  -1.0260  -1.0156  -0.8771
 -0.8574  -0.7933  -0.7791  -0.7630  -0.7467  -0.7115  -0.6814  -0.6385
 -0.6223  -0.6185  -0.5822  -0.5697  -0.5434  -0.5297  -0.5091  -0.5073
 -0.4939  -0.4877  -0.4849  -0.4733  -0.4659  -0.4553  -0.4543  -0.4411
 -0.4356  -0.4326  -0.4243  -0.4123  -0.4016  -0.3974  -0.3919  -0.3846
 -0.3801  -0.3661  -0.3592  -0.3523  -0.3389  -0.3265  -0.3150  -0.3119
 -0.3097  -0.3008  -0.2865  -0.2741  -0.2717  -0.2662  -0.2558  -0.1879

 Beta MOs
 -- Occupied --
-89.0602 -19.1747 -19.1276 -19.1274 -19.1240 -19.0944 -19.0931 -10.3204
-10.2504 -10.2468 -10.2185 -10.2175 -10.2131 -10.2114 -10.1940 -10.1911
-10.1881 -10.1864 -10.1854 -10.1832 -10.1822  -8.1239  -6.0868  -6.0856
 -6.0848  -1.1219  -1.1171  -1.0356  -1.0183  -1.0148  -1.0129  -0.8770
 -0.8509  -0.7913  -0.7777  -0.7630  -0.7438  -0.7066  -0.6773  -0.6359
 -0.6223  -0.6165  -0.5806  -0.5684  -0.5425  -0.5279  -0.5070  -0.5054
 -0.4929  -0.4874  -0.4845  -0.4726  -0.4640  -0.4546  -0.4541  -0.4383
 -0.4331  -0.4231  -0.4141  -0.4091  -0.3957  -0.3906  -0.3868  -0.3799
 -0.3703  -0.3655  -0.3591  -0.3513  -0.3380  -0.3248  -0.3117  -0.3088
 -0.3070  -0.2840  -0.2753  -0.2689  -0.2683  -0.2602  -0.2508

          Ground-State Mulliken Net Atomic Charges

     Atom                 Charge (a.u.)    Spin (a.u.)
  --------------------------------------------------------
      1 C                    -0.280597       0.077092
      2 C                    -0.222240       0.043095
      3 C                     0.128032       0.048485
      4 C                    -0.252440       0.043907
      5 C                    -0.097829       0.126154
      6 C                     0.622088       0.183632
      7 O                    -0.437652       0.269389
      8 O                    -0.393706       0.233185
      9 H                     0.228337      -0.004301
     10 H                     0.236356      -0.005473
     11 S                     0.357787      -0.032137
     12 C                    -0.614934      -0.018320
     13 O                    -0.216462       0.006384
     14 O                     0.043174      -0.000087
     15 C                    -0.255190       0.001748
     16 H                     0.177305       0.000509
     17 H                     0.184202      -0.000312
     18 H                     0.189067      -0.000062
     19 C                     0.488811      -0.005004
     20 C                    -0.077019       0.023982
     21 C                    -0.268990       0.002633
     22 C                    -0.463112      -0.003329
     23 C                    -0.490894       0.000682
     24 C                    -0.356632       0.002541
     25 O                    -0.191587       0.007430
     26 O                    -0.195980      -0.002289
     27 H                     0.276740      -0.000260
     28 H                     0.200298       0.000784
     29 H                     0.232240       0.000097
     30 H                     0.240473       0.000065
     31 H                     0.210356      -0.000222
  --------------------------------------------------------
  Sum of atomic charges =    -1.000000

                    Cartesian Multipole Moments
 -----------------------------------------------------------------
    Charge (ESU x 10^10)
                -4.8032
    Dipole Moment (Debye)
         X      -8.2606      Y      -3.8237      Z       7.0806
       Tot      11.5323
    Quadrupole Moments (Debye-Ang)
        XX    -157.2352     XY       1.2673     YY    -131.5334
        XZ     -11.1985     YZ      -6.9625     ZZ    -148.0908

 Total job time:  120.90s(wall), 879.07s(cpu)
        *  Thank you very much for using Q-Chem.  Have a nice day.  *
