 Q-Chem 5.4, Q-Chem, Inc., Pleasanton, CA (2021)
 Q-Chem 5.4.0 for Intel X86 EM64T Linux

User input:
--------------------------------------------------------------
$molecule
-2 1
C                 -1.0551280000      2.6136910000      0.6237490000
C                  0.2670920000      2.7303410000      0.0590650000
C                  0.9253500000      1.6548030000     -0.5511250000
C                  0.3340140000      0.3430620000     -0.6398980000
C                 -0.9815020000      0.2286240000     -0.0611140000
C                 -1.6417920000      1.3020160000      0.5291140000
O                 -1.6830220000      3.6117340000      1.1517980000
O                  0.9296400000     -0.6701250000     -1.1801390000
O                 -2.9491070000      1.1048980000      0.9771790000
O                 -1.6029870000     -1.0207480000     -0.0238200000
C                 -3.1226150000      1.3160920000      2.3686860000
C                 -1.8852080000     -1.5662070000     -1.3014500000
C                  2.3120180000      1.8063490000     -1.1329660000
C                  0.8779600000      4.1217020000      0.1062480000
C                  1.7194910000      4.3754080000      1.3336470000
C                  2.9467020000      4.9106750000      1.4336560000
C                  3.7849560000      5.3743550000      0.2665180000
C                  3.6277700000      5.0752430000      2.7741120000
H                 -2.8045730000      2.3258920000      2.6449760000
H                 -2.5582430000      0.5695860000      2.9504360000
H                 -4.1922770000      1.1881560000      2.5757430000
H                 -2.3041760000     -2.5657970000     -1.1319040000
H                 -0.9693710000     -1.6376760000     -1.8961910000
H                 -2.6347250000     -0.9547830000     -1.8301300000
H                  3.0127210000      2.2692010000     -0.4252660000
H                  2.3205050000      2.4299790000     -2.0402640000
H                  2.6801120000      0.8147020000     -1.4063300000
H                  0.0316210000      4.8212130000      0.1475670000
H                  1.4486690000      4.3286770000     -0.8047870000
H                  1.2253210000      4.0798280000      2.2577590000
H                  3.2920930000      5.2207630000     -0.6939310000
H                  4.7481520000      4.8429040000      0.2424190000
H                  4.0287160000      6.4424270000      0.3569090000
H                  2.9916340000      4.7390380000      3.5973900000
H                  3.9028740000      6.1228730000      2.9632930000
H                  4.5690320000      4.5050520000      2.8187150000
$end

$rem
BASIS  =  6-311++G(d,p)
GUI  =  2
JOB_TYPE  =  SP
METHOD  =  B3LYP
SCF_CONVERGENCE  = 8
SOLVENT_METHOD = sm12
$end

$smx
solvent dimethylformamide
charges CM5
$end

--------------------------------------------------------------

             Standard Nuclear Orientation (Angstroms)
    I     Atom           X                Y                Z
 ----------------------------------------------------------------
    1      C      -1.0551280000     2.6136910000     0.6237490000
    2      C       0.2670920000     2.7303410000     0.0590650000
    3      C       0.9253500000     1.6548030000    -0.5511250000
    4      C       0.3340140000     0.3430620000    -0.6398980000
    5      C      -0.9815020000     0.2286240000    -0.0611140000
    6      C      -1.6417920000     1.3020160000     0.5291140000
    7      O      -1.6830220000     3.6117340000     1.1517980000
    8      O       0.9296400000    -0.6701250000    -1.1801390000
    9      O      -2.9491070000     1.1048980000     0.9771790000
   10      O      -1.6029870000    -1.0207480000    -0.0238200000
   11      C      -3.1226150000     1.3160920000     2.3686860000
   12      C      -1.8852080000    -1.5662070000    -1.3014500000
   13      C       2.3120180000     1.8063490000    -1.1329660000
   14      C       0.8779600000     4.1217020000     0.1062480000
   15      C       1.7194910000     4.3754080000     1.3336470000
   16      C       2.9467020000     4.9106750000     1.4336560000
   17      C       3.7849560000     5.3743550000     0.2665180000
   18      C       3.6277700000     5.0752430000     2.7741120000
   19      H      -2.8045730000     2.3258920000     2.6449760000
   20      H      -2.5582430000     0.5695860000     2.9504360000
   21      H      -4.1922770000     1.1881560000     2.5757430000
   22      H      -2.3041760000    -2.5657970000    -1.1319040000
   23      H      -0.9693710000    -1.6376760000    -1.8961910000
   24      H      -2.6347250000    -0.9547830000    -1.8301300000
   25      H       3.0127210000     2.2692010000    -0.4252660000
   26      H       2.3205050000     2.4299790000    -2.0402640000
   27      H       2.6801120000     0.8147020000    -1.4063300000
   28      H       0.0316210000     4.8212130000     0.1475670000
   29      H       1.4486690000     4.3286770000    -0.8047870000
   30      H       1.2253210000     4.0798280000     2.2577590000
   31      H       3.2920930000     5.2207630000    -0.6939310000
   32      H       4.7481520000     4.8429040000     0.2424190000
   33      H       4.0287160000     6.4424270000     0.3569090000
   34      H       2.9916340000     4.7390380000     3.5973900000
   35      H       3.9028740000     6.1228730000     2.9632930000
   36      H       4.5690320000     4.5050520000     2.8187150000
 ----------------------------------------------------------------

   19    -845.3584624410      4.30e-09  Convergence criterion met
 Total energy in the final basis set =     -845.6339466232

                    Orbital Energies (a.u.)
 --------------------------------------------------------------

 Alpha MOs
 -- Occupied --
-19.1137 -19.1133 -19.0079 -19.0075 -10.2015 -10.2011 -10.1768 -10.1726
-10.1721 -10.1702 -10.1697 -10.1655 -10.1650 -10.1646 -10.1597 -10.1560
-10.1292 -10.1275  -1.0321  -1.0151  -0.9233  -0.9206  -0.8180  -0.7881
 -0.7491  -0.7279  -0.6969  -0.6875  -0.6844  -0.6562  -0.6175  -0.6109
 -0.5401  -0.5311  -0.5169  -0.4865  -0.4736  -0.4639  -0.4527  -0.4470
 -0.4376  -0.4339  -0.4310  -0.4257  -0.4139  -0.4077  -0.3921  -0.3871
 -0.3819  -0.3747  -0.3731  -0.3681  -0.3526  -0.3464  -0.3398  -0.3331
 -0.3319  -0.3184  -0.3115  -0.3014  -0.2603  -0.2593  -0.2402  -0.2121
 -0.1918  -0.1873  -0.1837  -0.1087

          Ground-State Mulliken Net Atomic Charges

     Atom                 Charge (a.u.)
  ----------------------------------------
      1 C                    -1.450047
      2 C                    -0.921457
      3 C                    -0.644225
      4 C                    -2.041648
      5 C                    -0.543336
      6 C                    -0.056203
      7 O                    -0.332237
      8 O                    -0.392181
      9 O                    -0.014625
     10 O                    -0.024693
     11 C                     0.264058
     12 C                     0.220009
     13 C                     0.102949
     14 C                    -0.598529
     15 C                    -3.749899
     16 C                     3.440667
     17 C                     1.080887
     18 C                     0.952750
     19 H                     0.100608
     20 H                     0.041226
     21 H                     0.261880
     22 H                     0.251859
     23 H                     0.118439
     24 H                     0.046540
     25 H                     0.069694
     26 H                     0.181548
     27 H                     0.128867
     28 H                     0.116961
     29 H                    -0.303158
     30 H                    -0.050247
     31 H                     0.466979
     32 H                     0.172520
     33 H                     0.270074
     34 H                     0.355230
     35 H                     0.254487
     36 H                     0.224252
  ----------------------------------------
  Sum of atomic charges =    -2.000000

                    Cartesian Multipole Moments
 -----------------------------------------------------------------
    Charge (ESU x 10^10)
                -9.6064
    Dipole Moment (Debye)
         X       3.7812      Y     -13.9986      Z      -0.3216
       Tot      14.5039
    Quadrupole Moments (Debye-Ang)
        XX    -151.7904     XY      14.7433     YY    -186.6940
        XZ      12.1792     YZ     -15.7050     ZZ    -129.8792

 Total job time:  1334.64s(wall), 10501.70s(cpu)
        *  Thank you very much for using Q-Chem.  Have a nice day.  *
