 Gaussian 16, Revision A.03,
 Gaussian 16:  ES64L-G16RevA.03 25-Dec-2016

 ----------------------------------------------------------------
 #P UB3LYP/6-311++G(d,p) SCRF=(PCM,Solvent=n,n-DiMethylFormamide)
 ----------------------------------------------------------------

 -------
 Reduced
 -------
 Symbolic Z-matrix:
 Charge = -2 Multiplicity = 1

                         Standard orientation:
 ---------------------------------------------------------------------
 Center     Atomic      Atomic             Coordinates (Angstroms)
 Number     Number       Type             X           Y           Z
 ---------------------------------------------------------------------
      1          8           0       -2.696517    2.806152   -0.224379
      2          6           0       -2.359672    1.581143   -0.129299
      3          6           0       -3.338020    0.507390   -0.041386
      4          6           0       -4.717036    0.823676   -0.056512
      5          6           0       -5.693341   -0.149530    0.027096
      6          6           0       -5.314671   -1.514773    0.132611
      7          6           0       -3.977054   -1.854553    0.148471
      8          6           0       -2.952521   -0.879561    0.062610
      9          6           0       -1.563231   -1.306425    0.084704
     10          8           0       -1.226499   -2.533252    0.175609
     11          6           0       -0.587298   -0.232088   -0.001317
     12          6           0        0.793245   -0.559607    0.033404
     13          6           0        1.788704    0.398984   -0.055410
     14          6           0        1.394268    1.767685   -0.175263
     15          6           0        0.060884    2.109995   -0.193163
     16          6           0       -0.972695    1.148261   -0.103807
     17          7           0        3.181368    0.087973   -0.078305
     18          6           0        3.581295   -1.303403   -0.233198
     19          6           0        4.990158   -1.393602   -0.863984
     20          6           0        5.881000   -0.201991   -0.458454
     21          6           0        5.458422    0.298185    0.921353
     22          6           0        4.010602    0.824672    0.889344
     23          1           0       -4.972984    1.875446   -0.136816
     24          1           0       -6.745825    0.125699    0.012849
     25          1           0       -6.077145   -2.288162    0.199510
     26          1           0       -3.657233   -2.888630    0.227676
     27          1           0        1.017561   -1.613769    0.138019
     28          1           0        2.150639    2.539560   -0.274222
     29          1           0       -0.243423    3.147332   -0.289082
     30          1           0        3.559212   -1.847873    0.729944
     31          1           0        2.857604   -1.798896   -0.878917
     32          1           0        4.904437   -1.436892   -1.954866
     33          1           0        5.458876   -2.334360   -0.545935
     34          1           0        6.941074   -0.484048   -0.472108
     35          1           0        5.763652    0.610980   -1.183012
     36          1           0        5.544116   -0.526171    1.640068
     37          1           0        6.126341    1.085738    1.286901
     38          1           0        4.018089    1.881552    0.609101
     39          1           0        3.571330    0.766734    1.902376
 ---------------------------------------------------------------------

 SCF Done:  E(UB3LYP) =  -939.947535100     A.U. after   18 cycles

 The electronic state is 1-A.
 Alpha  occ. eigenvalues --  -19.01813 -19.01408 -14.30384 -10.18774 -10.18433
 Alpha  occ. eigenvalues --  -10.18247 -10.17073 -10.16560 -10.16143 -10.15918
 Alpha  occ. eigenvalues --  -10.15872 -10.14545 -10.14522 -10.14435 -10.14417
 Alpha  occ. eigenvalues --  -10.14273 -10.14176 -10.13479 -10.13027 -10.12969
 Alpha  occ. eigenvalues --  -10.12915 -10.12825  -0.94141  -0.93633  -0.92612
 Alpha  occ. eigenvalues --   -0.82378  -0.81794  -0.78569  -0.74739  -0.74188
 Alpha  occ. eigenvalues --   -0.71871  -0.71670  -0.70171  -0.64463  -0.63196
 Alpha  occ. eigenvalues --   -0.61759  -0.59934  -0.57875  -0.55685  -0.53151
 Alpha  occ. eigenvalues --   -0.52381  -0.50880  -0.49894  -0.48423  -0.46607
 Alpha  occ. eigenvalues --   -0.45233  -0.43390  -0.42669  -0.42198  -0.41524
 Alpha  occ. eigenvalues --   -0.40567  -0.40043  -0.39578  -0.39359  -0.37806
 Alpha  occ. eigenvalues --   -0.37417  -0.37030  -0.36678  -0.36383  -0.35494
 Alpha  occ. eigenvalues --   -0.35127  -0.34105  -0.32807  -0.32342  -0.32169
 Alpha  occ. eigenvalues --   -0.31700  -0.30970  -0.30853  -0.30011  -0.29508
 Alpha  occ. eigenvalues --   -0.24547  -0.22909  -0.22144  -0.21769  -0.19934
 Alpha  occ. eigenvalues --   -0.19090  -0.18336  -0.09714
 Alpha virt. eigenvalues --   -0.02189  -0.00402   0.00349   0.00883   0.01082
 Alpha virt. eigenvalues --    0.01429   0.01606   0.01974   0.02470   0.03003
 Alpha virt. eigenvalues --    0.03307   0.03795   0.04091   0.04382   0.04928

  Beta  occ. eigenvalues --  -19.01813 -19.01408 -14.30384 -10.18774 -10.18433
  Beta  occ. eigenvalues --  -10.18247 -10.17073 -10.16560 -10.16143 -10.15918
  Beta  occ. eigenvalues --  -10.15872 -10.14545 -10.14522 -10.14435 -10.14417
  Beta  occ. eigenvalues --  -10.14273 -10.14176 -10.13479 -10.13027 -10.12969
  Beta  occ. eigenvalues --  -10.12915 -10.12825  -0.94141  -0.93633  -0.92612
  Beta  occ. eigenvalues --   -0.82378  -0.81794  -0.78569  -0.74739  -0.74188
  Beta  occ. eigenvalues --   -0.71871  -0.71670  -0.70171  -0.64463  -0.63196
  Beta  occ. eigenvalues --   -0.61759  -0.59934  -0.57875  -0.55685  -0.53151
  Beta  occ. eigenvalues --   -0.52381  -0.50880  -0.49894  -0.48423  -0.46607
  Beta  occ. eigenvalues --   -0.45233  -0.43390  -0.42669  -0.42198  -0.41524
  Beta  occ. eigenvalues --   -0.40567  -0.40043  -0.39578  -0.39359  -0.37806
  Beta  occ. eigenvalues --   -0.37417  -0.37030  -0.36678  -0.36383  -0.35494
  Beta  occ. eigenvalues --   -0.35127  -0.34105  -0.32807  -0.32342  -0.32169
  Beta  occ. eigenvalues --   -0.31700  -0.30970  -0.30853  -0.30011  -0.29508
  Beta  occ. eigenvalues --   -0.24547  -0.22909  -0.22144  -0.21769  -0.19934
  Beta  occ. eigenvalues --   -0.19090  -0.18336  -0.09714
  Beta virt. eigenvalues --   -0.02189  -0.00402   0.00349   0.00883   0.01082
  Beta virt. eigenvalues --    0.01429   0.01606   0.01974   0.02470   0.03003
  Beta virt. eigenvalues --    0.03307   0.03795   0.04091   0.04382   0.04928

 Mulliken charges and spin densities:
               1          2
     1  O   -0.641843  -0.000000
     2  C   -0.696123  -0.000000
     3  C    0.134177  -0.000000
     4  C    0.001805   0.000000
     5  C   -0.501361  -0.000000
     6  C   -0.527400   0.000000
     7  C   -0.047187   0.000000
     8  C    0.408199  -0.000000
     9  C   -0.644850  -0.000000
    10  O   -0.659243   0.000000
    11  C    0.347623   0.000000
    12  C   -0.119317   0.000000
    13  C   -0.258342   0.000000
    14  C   -0.177659   0.000000
    15  C   -0.034346   0.000000
    16  C    0.084534  -0.000000
    17  N    0.268646  -0.000000
    18  C   -0.152700   0.000000
    19  C   -0.448080  -0.000000
    20  C   -0.286715   0.000000
    21  C   -0.456062  -0.000000
    22  C   -0.144107   0.000000
    23  H    0.140645  -0.000000
    24  H    0.151967  -0.000000
    25  H    0.153132   0.000000
    26  H    0.139046  -0.000000
    27  H    0.141450  -0.000000
    28  H    0.163138   0.000000
    29  H    0.156537   0.000000
    30  H    0.148293  -0.000000
    31  H    0.148476  -0.000000
    32  H    0.152194   0.000000
    33  H    0.140229   0.000000
    34  H    0.177545  -0.000000
    35  H    0.142488   0.000000
    36  H    0.151264   0.000000
    37  H    0.172735   0.000000
    38  H    0.128782  -0.000000
    39  H    0.142428  -0.000000
 Sum of Mulliken charges =  -2.00000  -0.00000

 Dipole moment (field-independent basis, Debye):
    X=             20.5685    Y=             -1.1328    Z=              0.6847  Tot=             20.6110
 Quadrupole moment (field-independent basis, Debye-Ang):
   XX=           -194.6944   YY=           -189.1320   ZZ=           -144.5457
   XY=             10.1371   XZ=              1.6188   YZ=              4.2875

 Normal termination of Gaussian 16 at Tue Jan 16 06:38:06 2024.
