 Gaussian 16, Revision A.03,
 Gaussian 16:  ES64L-G16RevA.03 25-Dec-2016

 ----------------------------------------------------------------------
 #P UB3LYP/6-311++G(d,p) nosym opt freq SCRF=(PCM,Solvent=n,n-DiMethylF
 ormamide)
 ----------------------------------------------------------------------

 --------
 Oxidized
 --------
 Symbolic Z-matrix:
 Charge =  0 Multiplicity = 1

 SCF Done:  E(UB3LYP) =  -954.033170178     A.U. after   15 cycles
 SCF Done:  E(UB3LYP) =  -954.033404242     A.U. after   12 cycles
 SCF Done:  E(UB3LYP) =  -954.033411772     A.U. after   12 cycles
 SCF Done:  E(UB3LYP) =  -954.033456720     A.U. after   12 cycles
 SCF Done:  E(UB3LYP) =  -954.033458242     A.U. after   12 cycles
 SCF Done:  E(UB3LYP) =  -954.033508413     A.U. after   11 cycles
 SCF Done:  E(UB3LYP) =  -954.033510019     A.U. after   11 cycles
 SCF Done:  E(UB3LYP) =  -954.033510681     A.U. after   11 cycles
 SCF Done:  E(UB3LYP) =  -954.033511287     A.U. after   10 cycles
 SCF Done:  E(UB3LYP) =  -954.033512319     A.U. after   11 cycles
 SCF Done:  E(UB3LYP) =  -954.033514167     A.U. after   11 cycles
 SCF Done:  E(UB3LYP) =  -954.033516753     A.U. after   11 cycles
 SCF Done:  E(UB3LYP) =  -954.033520339     A.U. after   11 cycles
 SCF Done:  E(UB3LYP) =  -954.033523684     A.U. after   11 cycles
 SCF Done:  E(UB3LYP) =  -954.033523828     A.U. after   11 cycles
 SCF Done:  E(UB3LYP) =  -954.033524080     A.U. after   10 cycles
 SCF Done:  E(UB3LYP) =  -954.033525499     A.U. after   11 cycles
 SCF Done:  E(UB3LYP) =  -954.033525590     A.U. after   11 cycles
 SCF Done:  E(UB3LYP) =  -954.033525509     A.U. after   10 cycles
 Optimization completed.
    -- Stationary point found.
 Normal termination of Gaussian 16 at Sat Feb 10 23:22:06 2024.

 ----------------------------------------------------------------------
 #P Geom=AllCheck Guess=TCheck SCRF=Check GenChk UB3LYP/6-311++G(d,p) F
 req
 ----------------------------------------------------------------------

 Structure from the checkpoint file:  "203.chk"
 --------
 Oxidized
 --------
 Charge =  0 Multiplicity = 1

                          Input orientation:
 ---------------------------------------------------------------------
 Center     Atomic      Atomic             Coordinates (Angstroms)
 Number     Number       Type             X           Y           Z
 ---------------------------------------------------------------------
      1          6           0        4.625466    1.202812   -0.695237
      2          6           0        3.328693    0.565870   -0.267886
      3          6           0        3.306382   -0.690120    0.329309
      4          6           0        2.111153   -1.306121    0.723811
      5          8           0        2.151421   -2.536524    1.294214
      6          6           0        0.873983   -0.659326    0.511557
      7          6           0       -0.422336   -1.252664    0.952086
      8          8           0       -0.455422   -2.193144    1.736851
      9          6           0       -1.669932   -0.645470    0.416768
     10          6           0       -2.933519   -1.277144    0.538689
     11          8           0       -3.023849   -2.503217    1.108282
     12          6           0       -4.086561   -0.657238    0.055712
     13          6           0       -4.022184    0.598894   -0.539161
     14          8           0       -5.189611    1.140274   -0.972268
     15          6           0       -2.793354    1.244490   -0.673201
     16          6           0       -1.641497    0.620096   -0.208770
     17          6           0       -0.351663    1.345610   -0.396650
     18          8           0       -0.335890    2.499686   -0.806318
     19          6           0        0.909411    0.610612   -0.109627
     20          6           0        2.107108    1.212994   -0.479379
     21          1           0        5.484914    0.700674   -0.248804
     22          1           0        4.654406    2.258005   -0.413586
     23          1           0        4.735436    1.154504   -1.783382
     24          1           0        4.239508   -1.218400    0.502529
     25          1           0        3.066397   -2.845145    1.316680
     26          1           0       -3.939561   -2.807978    1.068861
     27          1           0       -5.047340   -1.152336    0.144022
     28          1           0       -5.035016    2.011140   -1.359721
     29          1           0       -2.717393    2.220383   -1.136119
     30          1           0        2.075050    2.191780   -0.940867
 ---------------------------------------------------------------------

 SCF Done:  E(UB3LYP) =  -954.033525509     A.U. after    2 cycles

 Alpha  occ. eigenvalues --  -19.17747 -19.17372 -19.17186 -19.13057 -19.11523
 Alpha  occ. eigenvalues --  -10.28341 -10.27776 -10.27107 -10.26716 -10.26624
 Alpha  occ. eigenvalues --  -10.21356 -10.20942 -10.20815 -10.20535 -10.20458
 Alpha  occ. eigenvalues --  -10.19526 -10.19430 -10.19333 -10.18835 -10.17529
 Alpha  occ. eigenvalues --   -1.09158  -1.08940  -1.08763  -1.06416  -1.04884
 Alpha  occ. eigenvalues --   -0.89174  -0.87983  -0.81943  -0.78543  -0.77334
 Alpha  occ. eigenvalues --   -0.77046  -0.72004  -0.69235  -0.67224  -0.64762
 Alpha  occ. eigenvalues --   -0.63314  -0.60848  -0.59424  -0.57028  -0.53494
 Alpha  occ. eigenvalues --   -0.53080  -0.52782  -0.51214  -0.49574  -0.47837
 Alpha  occ. eigenvalues --   -0.47120  -0.46436  -0.45315  -0.44755  -0.44396
 Alpha  occ. eigenvalues --   -0.43850  -0.42711  -0.42479  -0.41927  -0.41813
 Alpha  occ. eigenvalues --   -0.41035  -0.39877  -0.39498  -0.39345  -0.38536
 Alpha  occ. eigenvalues --   -0.37534  -0.37162  -0.34962  -0.33692  -0.28490
 Alpha  occ. eigenvalues --   -0.27810  -0.26550  -0.26136  -0.25188  -0.24639
 Alpha virt. eigenvalues --   -0.11303  -0.06218  -0.03284  -0.01477  -0.01041
 Alpha virt. eigenvalues --   -0.00466   0.00109   0.00728   0.01599   0.02349
 Alpha virt. eigenvalues --    0.03159   0.03418   0.03542   0.03839   0.04373

  Beta  occ. eigenvalues --  -19.17747 -19.17372 -19.17186 -19.13057 -19.11523
  Beta  occ. eigenvalues --  -10.28341 -10.27776 -10.27107 -10.26716 -10.26624
  Beta  occ. eigenvalues --  -10.21356 -10.20942 -10.20815 -10.20535 -10.20458
  Beta  occ. eigenvalues --  -10.19526 -10.19430 -10.19333 -10.18835 -10.17529
  Beta  occ. eigenvalues --   -1.09158  -1.08940  -1.08763  -1.06416  -1.04884
  Beta  occ. eigenvalues --   -0.89174  -0.87983  -0.81943  -0.78543  -0.77334
  Beta  occ. eigenvalues --   -0.77046  -0.72004  -0.69235  -0.67224  -0.64762
  Beta  occ. eigenvalues --   -0.63314  -0.60848  -0.59424  -0.57028  -0.53494
  Beta  occ. eigenvalues --   -0.53080  -0.52782  -0.51214  -0.49574  -0.47837
  Beta  occ. eigenvalues --   -0.47120  -0.46436  -0.45315  -0.44755  -0.44396
  Beta  occ. eigenvalues --   -0.43850  -0.42711  -0.42479  -0.41927  -0.41813
  Beta  occ. eigenvalues --   -0.41035  -0.39877  -0.39498  -0.39345  -0.38536
  Beta  occ. eigenvalues --   -0.37534  -0.37162  -0.34962  -0.33692  -0.28490
  Beta  occ. eigenvalues --   -0.27810  -0.26550  -0.26136  -0.25188  -0.24639
  Beta virt. eigenvalues --   -0.11303  -0.06218  -0.03284  -0.01477  -0.01041
  Beta virt. eigenvalues --   -0.00466   0.00109   0.00728   0.01599   0.02349
  Beta virt. eigenvalues --    0.03159   0.03418   0.03542   0.03839   0.04373

 Mulliken charges and spin densities:
               1          2
     1  C   -0.360645  -0.000000
     2  C    0.598505  -0.000000
     3  C   -0.760885  -0.000000
     4  C   -0.164819   0.000000
     5  O   -0.214890  -0.000000
     6  C   -0.032577   0.000000
     7  C   -0.335580  -0.000000
     8  O   -0.314639   0.000000
     9  C   -0.463037  -0.000000
    10  C   -0.070308   0.000000
    11  O   -0.212435  -0.000000
    12  C    0.314677  -0.000000
    13  C   -0.874757   0.000000
    14  O   -0.250540  -0.000000
    15  C    0.404515  -0.000000
    16  C    0.809708   0.000000
    17  C   -0.675050   0.000000
    18  O   -0.266368  -0.000000
    19  C    0.530610  -0.000000
    20  C    0.176356  -0.000000
    21  H    0.171472  -0.000000
    22  H    0.165975  -0.000000
    23  H    0.194152   0.000000
    24  H    0.143210  -0.000000
    25  H    0.306821  -0.000000
    26  H    0.312347  -0.000000
    27  H    0.206238  -0.000000
    28  H    0.314511   0.000000
    29  H    0.178290  -0.000000
    30  H    0.169139   0.000000
 Sum of Mulliken charges =  -0.00000   0.00000

 Dipole moment (field-independent basis, Debye):
    X=              1.5919    Y=              1.0039    Z=             -2.8926  Tot=              3.4510
 Quadrupole moment (field-independent basis, Debye-Ang):
   XX=            -66.5180   YY=           -119.3152   ZZ=           -120.8881
   XY=             -4.7938   XZ=              3.7048   YZ=              3.6882

  Exact polarizability: 404.600  -1.675 288.658   9.117 -79.267 175.016
 Approx polarizability: 425.050  -5.893 367.075  11.863-107.376 215.052

                      1                      2                      3
                      A                      A                      A
 Frequencies --     24.9786                26.9040                47.9157
 Red. masses --      1.0924                 5.3102                 5.8900
 Frc consts  --      0.0004                 0.0023                 0.0080
 IR Inten    --      0.5709                13.0013                 0.2296

                      4                      5                      6
                      A                      A                      A
 Frequencies --     64.7670               130.0731               159.0410
 Red. masses --      8.9433                 7.1726                 5.4352
 Frc consts  --      0.0221                 0.0715                 0.0810
 IR Inten    --      2.1427                 1.0210                 1.2290

                      7                      8                      9
                      A                      A                      A
 Frequencies --    164.5695               209.5030               216.1655
 Red. masses --      5.5098                 4.1644                 4.6539
 Frc consts  --      0.0879                 0.1077                 0.1281
 IR Inten    --      2.9677                 0.3889                 3.2326

                     10                     11                     12
                      A                      A                      A
 Frequencies --    245.6037               250.8010               275.0814
 Red. masses --      5.0394                 5.3303                 5.7334
 Frc consts  --      0.1791                 0.1975                 0.2556
 IR Inten    --      2.1936                 0.8900                 9.1923

                     13                     14                     15
                      A                      A                      A
 Frequencies --    308.0420               330.8123               355.1405
 Red. masses --      4.4156                 4.9432                 6.3921
 Frc consts  --      0.2469                 0.3187                 0.4750
 IR Inten    --      0.9265                 1.6387                 3.5702

                     16                     17                     18
                      A                      A                      A
 Frequencies --    368.3169               375.9855               396.4204
 Red. masses --      1.1453                 5.1852                 6.1817
 Frc consts  --      0.0915                 0.4319                 0.5724
 IR Inten    --    133.0571                33.5534                39.6364

                     19                     20                     21
                      A                      A                      A
 Frequencies --    408.3612               421.4636               430.8237
 Red. masses --      1.1938                 1.3818                 5.1000
 Frc consts  --      0.1173                 0.1446                 0.5577
 IR Inten    --    281.1107                33.9414                20.8722

                     22                     23                     24
                      A                      A                      A
 Frequencies --    469.9443               473.7682               511.8820
 Red. masses --     10.4323                 5.8689                 4.5223
 Frc consts  --      1.3575                 0.7761                 0.6982
 IR Inten    --      3.5681                15.7071                28.6266

                     25                     26                     27
                      A                      A                      A
 Frequencies --    545.3773               552.3751               563.0372
 Red. masses --      5.0096                 7.2484                 6.9289
 Frc consts  --      0.8779                 1.3031                 1.2942
 IR Inten    --      2.7641                 4.0990                 3.3561

                     28                     29                     30
                      A                      A                      A
 Frequencies --    587.8247               608.4637               623.7304
 Red. masses --      4.2907                 5.6644                 4.8672
 Frc consts  --      0.8735                 1.2356                 1.1156
 IR Inten    --      2.8226                27.4458                34.8245

                     31                     32                     33
                      A                      A                      A
 Frequencies --    631.6884               659.5207               722.8282
 Red. masses --      4.0885                 3.7336                 4.8087
 Frc consts  --      0.9612                 0.9568                 1.4803
 IR Inten    --      9.2774                17.5334                 5.9282

                     34                     35                     36
                      A                      A                      A
 Frequencies --    728.7843               771.5909               780.6021
 Red. masses --      5.4318                 5.1183                 8.4105
 Frc consts  --      1.6998                 1.7953                 3.0195
 IR Inten    --      4.9065                39.1311                89.6812

                     37                     38                     39
                      A                      A                      A
 Frequencies --    817.3984               851.0968               866.2760
 Red. masses --      7.1200                 1.6126                 1.4592
 Frc consts  --      2.8028                 0.6882                 0.6452
 IR Inten    --      1.6054                53.6180                27.8587

                     40                     41                     42
                      A                      A                      A
 Frequencies --    876.5301               894.3059               921.4638
 Red. masses --      1.5472                 6.2411                 1.4503
 Frc consts  --      0.7004                 2.9409                 0.7255
 IR Inten    --     18.9595                96.8115                 1.9003

                     43                     44                     45
                      A                      A                      A
 Frequencies --    954.1954              1008.5584              1031.9261
 Red. masses --      7.5153                 2.5045                 2.7100
 Frc consts  --      4.0315                 1.5010                 1.7003
 IR Inten    --     12.6583                16.4569                30.2268

                     46                     47                     48
                      A                      A                      A
 Frequencies --   1042.4708              1056.8563              1103.6959
 Red. masses --      2.9895                 1.5573                 2.9441
 Frc consts  --      1.9142                 1.0248                 2.1130
 IR Inten    --    136.0197                16.5981               119.5366

                     49                     50                     51
                      A                      A                      A
 Frequencies --   1130.5033              1182.1459              1192.6079
 Red. masses --      4.3194                 2.0998                 1.8320
 Frc consts  --      3.2525                 1.7289                 1.5352
 IR Inten    --    315.1658               288.5107                23.5773

                     52                     53                     54
                      A                      A                      A
 Frequencies --   1195.3565              1211.9249              1226.0037
 Red. masses --      1.6217                 1.3540                 1.4065
 Frc consts  --      1.3653                 1.1717                 1.2455
 IR Inten    --    135.7257               106.5838               114.2239

                     55                     56                     57
                      A                      A                      A
 Frequencies --   1273.0445              1277.4881              1284.9242
 Red. masses --      3.0013                 1.8600                 2.1215
 Frc consts  --      2.8658                 1.7885                 2.0637
 IR Inten    --   1173.9517               172.1456               602.9787

                     58                     59                     60
                      A                      A                      A
 Frequencies --   1328.6528              1358.4806              1380.8978
 Red. masses --      7.6355                 7.8693                 4.6709
 Frc consts  --      7.9417                 8.5564                 5.2478
 IR Inten    --    115.1877               184.1592               118.6261

                     61                     62                     63
                      A                      A                      A
 Frequencies --   1399.7267              1408.7896              1437.4106
 Red. masses --      3.9448                 1.2609                 2.6150
 Frc consts  --      4.5537                 1.4744                 3.1833
 IR Inten    --     64.5648                 4.0406                46.6063

                     64                     65                     66
                      A                      A                      A
 Frequencies --   1474.6282              1476.5132              1486.0431
 Red. masses --      2.4664                 1.2225                 1.2496
 Frc consts  --      3.1599                 1.5702                 1.6259
 IR Inten    --     73.3794                18.5322                35.5219

                     67                     68                     69
                      A                      A                      A
 Frequencies --   1504.0569              1519.0432              1595.0585
 Red. masses --      3.3449                 3.5726                 6.2261
 Frc consts  --      4.4582                 4.8571                 9.3329
 IR Inten    --      3.0962                31.9005               152.9846

                     70                     71                     72
                      A                      A                      A
 Frequencies --   1605.7974              1630.8284              1633.4465
 Red. masses --      6.2197                 6.4565                 6.0781
 Frc consts  --      9.4494                10.1173                 9.5550
 IR Inten    --    523.6225               639.0854               244.1396

                     73                     74                     75
                      A                      A                      A
 Frequencies --   1685.0843              1699.2879              3030.0593
 Red. masses --     11.6388                11.4428                 1.0393
 Frc consts  --     19.4717                19.4678                 5.6218
 IR Inten    --    333.9554               396.7775                25.1557

                     76                     77                     78
                      A                      A                      A
 Frequencies --   3084.5263              3115.1366              3152.5262
 Red. masses --      1.0970                 1.1025                 1.0911
 Frc consts  --      6.1493                 6.3033                 6.3892
 IR Inten    --     19.9138                24.5048                20.7496

                     79                     80                     81
                      A                      A                      A
 Frequencies --   3178.9942              3194.1653              3197.5264
 Red. masses --      1.0918                 1.0913                 1.0906
 Frc consts  --      6.5008                 6.5602                 6.5696
 IR Inten    --      4.7316                13.5973                 3.4630

                     82                     83                     84
                      A                      A                      A
 Frequencies --   3788.8481              3791.4392              3801.4151
 Red. masses --      1.0663                 1.0662                 1.0665
 Frc consts  --      9.0187                 9.0304                 9.0805
 IR Inten    --    158.7093               154.9754               196.5025

 - Thermochemistry -
 -------------------
 Temperature   298.150 Kelvin.  Pressure   1.00000 Atm.
 Atom     1 has atomic number  6 and mass  12.00000

 Molecular mass:   270.05282 amu.
 Principal axes and moments of inertia in atomic units:
                           1         2         3
     Eigenvalues --  2776.267497557.26391**********
           X            0.99930   0.02225  -0.03006
           Y           -0.00599   0.88859   0.45866
           Z            0.03692  -0.45816   0.88810
 This molecule is an asymmetric top.
 Rotational symmetry number  1.
 Warning -- assumption of classical behavior for rotation
           may cause significant error
 Rotational temperatures (Kelvin)      0.03120     0.01146     0.00846
 Rotational constants (GHZ):           0.65006     0.23881     0.17632
 Zero-point vibrational energy     573007.3 (Joules/Mol)
                                  136.95204 (Kcal/Mol)
 Warning -- explicit consideration of  29 degrees of freedom as
           vibrations may cause significant error
 Vibrational temperatures:     35.94    38.71    68.94    93.19   187.15
          (Kelvin)            228.82   236.78   301.43   311.01   353.37
                              360.85   395.78   443.20   475.97   510.97
                              529.93   540.96   570.36   587.54   606.39
                              619.86   676.15   681.65   736.48   784.68
                              794.74   810.08   845.75   875.44   897.41
                              908.86   948.90  1039.99  1048.56  1110.15
                             1123.11  1176.05  1224.54  1246.38  1261.13
                             1286.71  1325.78  1372.87  1451.09  1484.71
                             1499.88  1520.58  1587.97  1626.54  1700.84
                             1715.90  1719.85  1743.69  1763.95  1831.63
                             1838.02  1848.72  1911.63  1954.55  1986.80
                             2013.89  2026.93  2068.11  2121.66  2124.37
                             2138.08  2164.00  2185.56  2294.93  2310.38
                             2346.40  2350.17  2424.46  2444.90  4359.58
                             4437.95  4481.99  4535.78  4573.86  4595.69
                             4600.53  5451.31  5455.04  5469.39

 Zero-point correction=                           0.218247 (Hartree/Particle)
 Thermal correction to Energy=                    0.235122
 Thermal correction to Enthalpy=                  0.236066
 Thermal correction to Gibbs Free Energy=         0.172725
 Sum of electronic and zero-point Energies=           -953.815279
 Sum of electronic and thermal Energies=              -953.798404
 Sum of electronic and thermal Enthalpies=            -953.797459
 Sum of electronic and thermal Free Energies=         -953.860801

                     E (Thermal)             CV                S
                      KCal/Mol        Cal/Mol-Kelvin    Cal/Mol-Kelvin
 Total                  147.541             65.649            133.313
 Electronic               0.000              0.000              0.000
 Translational            0.889              2.981             42.679
 Rotational               0.889              2.981             33.729
 Vibrational            145.764             59.688             56.905
 Vibration     1          0.593              1.985              6.193
 Vibration     2          0.593              1.984              6.046
 Vibration     3          0.595              1.978              4.902
 Vibration     4          0.597              1.971              4.306
 Vibration     5          0.612              1.923              2.945
 Vibration     6          0.621              1.892              2.561
 Vibration     7          0.623              1.886              2.497
 Vibration     8          0.642              1.826              2.048
 Vibration     9          0.645              1.816              1.991
 Vibration    10          0.660              1.770              1.762
 Vibration    11          0.663              1.761              1.725
 Vibration    12          0.677              1.719              1.564
 Vibration    13          0.698              1.658              1.373
 Vibration    14          0.713              1.614              1.256
 Vibration    15          0.731              1.565              1.143
 Vibration    16          0.741              1.537              1.087
 Vibration    17          0.747              1.521              1.055
 Vibration    18          0.763              1.478              0.976
 Vibration    19          0.773              1.452              0.932
 Vibration    20          0.784              1.424              0.887
 Vibration    21          0.792              1.403              0.856
 Vibration    22          0.827              1.317              0.738
 Vibration    23          0.831              1.308              0.727
 Vibration    24          0.867              1.224              0.629
 Vibration    25          0.901              1.150              0.554
 Vibration    26          0.908              1.134              0.539
 Vibration    27          0.919              1.111              0.518
 Vibration    28          0.945              1.058              0.471
 Vibration    29          0.967              1.014              0.435

                           ! Non-Optimized Parameters !
 Normal termination of Gaussian 16 at Sun Feb 11 00:09:31 2024.
