 Gaussian 16, Revision A.03,
 Gaussian 16:  ES64L-G16RevA.03 25-Dec-2016

 ----------------------------------------------------------------------
 #P UB3LYP/6-311++G(d,p) nosym opt freq SCRF=(PCM,Solvent=n,n-DiMethylF
 ormamide)
 ----------------------------------------------------------------------

 -------
 Reduced
 -------
 Symbolic Z-matrix:
 Charge = -2 Multiplicity = 1

 SCF Done:  E(UB3LYP) =  -1506.07119850     A.U. after   18 cycles
 SCF Done:  E(UB3LYP) =  -1506.07211657     A.U. after   18 cycles
 SCF Done:  E(UB3LYP) =  -1506.07304014     A.U. after   18 cycles
 SCF Done:  E(UB3LYP) =  -1506.07374778     A.U. after   16 cycles
 SCF Done:  E(UB3LYP) =  -1506.07329403     A.U. after   16 cycles
 SCF Done:  E(UB3LYP) =  -1506.07418106     A.U. after   15 cycles
 SCF Done:  E(UB3LYP) =  -1506.07427032     A.U. after   16 cycles
 SCF Done:  E(UB3LYP) =  -1506.07436528     A.U. after   15 cycles
 SCF Done:  E(UB3LYP) =  -1506.07440422     A.U. after   14 cycles
 SCF Done:  E(UB3LYP) =  -1506.07444462     A.U. after   15 cycles
 SCF Done:  E(UB3LYP) =  -1506.07518641     A.U. after   16 cycles
 SCF Done:  E(UB3LYP) =  -1506.07495365     A.U. after   17 cycles
 SCF Done:  E(UB3LYP) =  -1506.07502407     A.U. after   15 cycles
 SCF Done:  E(UB3LYP) =  -1506.07518235     A.U. after   17 cycles
 SCF Done:  E(UB3LYP) =  -1506.07519154     A.U. after   15 cycles
 SCF Done:  E(UB3LYP) =  -1506.07520084     A.U. after   15 cycles
 SCF Done:  E(UB3LYP) =  -1506.07520247     A.U. after   12 cycles
 SCF Done:  E(UB3LYP) =  -1506.07520334     A.U. after   13 cycles
 SCF Done:  E(UB3LYP) =  -1506.07520406     A.U. after   14 cycles
 Optimization completed.
    -- Stationary point found.
 Normal termination of Gaussian 16 at Sun Feb 11 05:10:56 2024.

 ----------------------------------------------------------------------
 #P Geom=AllCheck Guess=TCheck SCRF=Check GenChk UB3LYP/6-311++G(d,p) F
 req
 ----------------------------------------------------------------------

 Structure from the checkpoint file:  "069-an.chk"
 -------
 Reduced
 -------
 Charge = -2 Multiplicity = 1

                          Input orientation:
 ---------------------------------------------------------------------
 Center     Atomic      Atomic             Coordinates (Angstroms)
 Number     Number       Type             X           Y           Z
 ---------------------------------------------------------------------
      1          6           0        1.163340    1.552258   -0.323058
      2          6           0        0.037128    1.085609    0.435809
      3          6           0       -0.138055   -0.232520    0.792545
      4          6           0        0.791568   -1.274390    0.462212
      5          6           0        1.910937   -0.859750   -0.304458
      6          6           0        2.066006    0.504659   -0.706294
      7          8           0        1.329591    2.797661   -0.608856
      8          8           0        0.616922   -2.506908    0.859099
      9         16           0        3.418028    0.981191   -1.747775
     10          6           0        4.516080    2.038459   -0.770245
     11          6           0        4.346579    3.422037   -0.774003
     12          6           0        5.524417    1.432929   -0.018636
     13          6           0        6.377996    2.231147    0.740439
     14          6           0        5.210349    4.210780   -0.014077
     15          6           0        6.222824    3.618889    0.741848
     16          8           0        2.975378    1.771512   -2.921785
     17          8           0        4.207953   -0.237035   -2.066242
     18          1           0       -0.692247    1.834391    0.735678
     19          1           0       -1.012073   -0.520620    1.373327
     20          1           0        3.542710    3.857892   -1.348482
     21          1           0        5.638287    0.356256   -0.035115
     22          1           0        7.166285    1.770117    1.324504
     23          1           0        5.090011    5.288263   -0.012136
     24          1           0        6.890032    4.237090    1.331896
     25          6           0        2.917205   -1.958377   -0.541016
     26          6           0        2.700426   -2.911017   -1.682795
     27          6           0        1.649764   -2.737412   -2.590800
     28          6           0        3.570617   -3.996574   -1.849887
     29          6           0        1.472291   -3.629143   -3.647138
     30          6           0        2.345246   -4.705910   -3.806468
     31          6           0        3.396194   -4.888034   -2.903987
     32          8           0        3.844843   -2.136710    0.239432
     33          1           0        0.974540   -1.899876   -2.462378
     34          1           0        4.382117   -4.128974   -1.144635
     35          1           0        0.655181   -3.485085   -4.345241
     36          1           0        2.208735   -5.399808   -4.628606
     37          1           0        4.076086   -5.724226   -3.024853
 ---------------------------------------------------------------------

 SCF Done:  E(UB3LYP) =  -1506.07520406     A.U. after    2 cycles

 Alpha  occ. eigenvalues --  -89.03353 -19.10125 -19.09892 -19.09818 -19.03068
 Alpha  occ. eigenvalues --  -19.02101 -10.25715 -10.20268 -10.19691 -10.18609
 Alpha  occ. eigenvalues --  -10.18416 -10.18309 -10.18269 -10.18143 -10.18082
 Alpha  occ. eigenvalues --  -10.17996 -10.17913 -10.17703 -10.17680 -10.17625
 Alpha  occ. eigenvalues --  -10.17585 -10.17073 -10.15114 -10.14397 -10.14051
 Alpha  occ. eigenvalues --   -8.09711  -6.06024  -6.05891  -6.05771  -1.08868
 Alpha  occ. eigenvalues --   -1.03247  -0.98208  -0.94903  -0.93217  -0.86865
 Alpha  occ. eigenvalues --   -0.86045  -0.80623  -0.77244  -0.76310  -0.75654
 Alpha  occ. eigenvalues --   -0.75019  -0.73800  -0.69734  -0.65147  -0.63425
 Alpha  occ. eigenvalues --   -0.61528  -0.61024  -0.60450  -0.58253  -0.55724
 Alpha  occ. eigenvalues --   -0.54013  -0.52381  -0.50443  -0.47931  -0.47301
 Alpha  occ. eigenvalues --   -0.46720  -0.46463  -0.45528  -0.45381  -0.44809
 Alpha  occ. eigenvalues --   -0.43839  -0.43538  -0.43233  -0.42876  -0.42407
 Alpha  occ. eigenvalues --   -0.41304  -0.38851  -0.38310  -0.37546  -0.37116
 Alpha  occ. eigenvalues --   -0.36686  -0.36123  -0.36028  -0.35350  -0.35094
 Alpha  occ. eigenvalues --   -0.34463  -0.34145  -0.32704  -0.31943  -0.30919
 Alpha  occ. eigenvalues --   -0.29077  -0.28491  -0.27058  -0.26468  -0.25980
 Alpha  occ. eigenvalues --   -0.25684  -0.25334  -0.23711  -0.23374  -0.20729
 Alpha  occ. eigenvalues --   -0.20176  -0.13589
 Alpha virt. eigenvalues --   -0.05479  -0.03825  -0.01926  -0.01544  -0.00498
 Alpha virt. eigenvalues --   -0.00132   0.00358   0.01073   0.01631   0.02123
 Alpha virt. eigenvalues --    0.02389   0.02963   0.03473   0.03634   0.03740

  Beta  occ. eigenvalues --  -89.03353 -19.10125 -19.09892 -19.09818 -19.03068
  Beta  occ. eigenvalues --  -19.02101 -10.25715 -10.20268 -10.19691 -10.18609
  Beta  occ. eigenvalues --  -10.18416 -10.18309 -10.18269 -10.18143 -10.18082
  Beta  occ. eigenvalues --  -10.17996 -10.17913 -10.17703 -10.17680 -10.17625
  Beta  occ. eigenvalues --  -10.17585 -10.17073 -10.15114 -10.14397 -10.14051
  Beta  occ. eigenvalues --   -8.09711  -6.06024  -6.05891  -6.05771  -1.08868
  Beta  occ. eigenvalues --   -1.03247  -0.98208  -0.94903  -0.93217  -0.86865
  Beta  occ. eigenvalues --   -0.86045  -0.80623  -0.77244  -0.76310  -0.75654
  Beta  occ. eigenvalues --   -0.75019  -0.73800  -0.69734  -0.65147  -0.63425
  Beta  occ. eigenvalues --   -0.61528  -0.61024  -0.60450  -0.58253  -0.55724
  Beta  occ. eigenvalues --   -0.54013  -0.52381  -0.50443  -0.47931  -0.47301
  Beta  occ. eigenvalues --   -0.46720  -0.46463  -0.45528  -0.45381  -0.44809
  Beta  occ. eigenvalues --   -0.43839  -0.43538  -0.43233  -0.42876  -0.42407
  Beta  occ. eigenvalues --   -0.41304  -0.38851  -0.38310  -0.37546  -0.37116
  Beta  occ. eigenvalues --   -0.36686  -0.36123  -0.36028  -0.35350  -0.35094
  Beta  occ. eigenvalues --   -0.34463  -0.34145  -0.32704  -0.31943  -0.30919
  Beta  occ. eigenvalues --   -0.29077  -0.28491  -0.27058  -0.26468  -0.25980
  Beta  occ. eigenvalues --   -0.25684  -0.25334  -0.23711  -0.23374  -0.20729
  Beta  occ. eigenvalues --   -0.20176  -0.13589
  Beta virt. eigenvalues --   -0.05479  -0.03825  -0.01926  -0.01544  -0.00498
  Beta virt. eigenvalues --   -0.00132   0.00358   0.01073   0.01631   0.02123
  Beta virt. eigenvalues --    0.02389   0.02963   0.03473   0.03634   0.03740

 Mulliken charges and spin densities:
               1          2
     1  C   -0.239062   0.000000
     2  C    0.042781  -0.000000
     3  C   -0.265930   0.000000
     4  C   -0.328663  -0.000000
     5  C    0.964345   0.000000
     6  C   -0.567792   0.000000
     7  O   -0.574355  -0.000000
     8  O   -0.682147  -0.000000
     9  S    0.094601   0.000000
    10  C    0.412653  -0.000000
    11  C   -0.057003   0.000000
    12  C   -0.036956  -0.000000
    13  C   -0.536659   0.000000
    14  C   -0.522152   0.000000
    15  C   -0.278942  -0.000000
    16  O   -0.192048   0.000000
    17  O   -0.204115  -0.000000
    18  H    0.171632  -0.000000
    19  H    0.161459   0.000000
    20  H    0.272732   0.000000
    21  H    0.237248   0.000000
    22  H    0.207382   0.000000
    23  H    0.204407  -0.000000
    24  H    0.187036  -0.000000
    25  C   -0.149759  -0.000000
    26  C    0.476632   0.000000
    27  C   -0.989102  -0.000000
    28  C    0.549000   0.000000
    29  C   -0.141146  -0.000000
    30  C   -0.398192  -0.000000
    31  C   -0.446584  -0.000000
    32  O   -0.317700   0.000000
    33  H    0.157733   0.000000
    34  H    0.202536  -0.000000
    35  H    0.214750  -0.000000
    36  H    0.175530   0.000000
    37  H    0.195848   0.000000
 Sum of Mulliken charges =  -2.00000  -0.00000

 Dipole moment (field-independent basis, Debye):
    X=            -17.2266    Y=              1.7268    Z=              4.6460  Tot=             17.9255
 Quadrupole moment (field-independent basis, Debye-Ang):
   XX=           -201.7075   YY=           -201.3157   ZZ=           -182.0203
   XY=              5.1085   XZ=             28.0473   YZ=             29.8465

  Exact polarizability: 421.102   7.761 463.593   6.341  29.842 337.430
 Approx polarizability: 467.699 -16.935 519.187  19.987  16.476 386.556

                      1                      2                      3
                      A                      A                      A
 Frequencies --     15.7809                29.7751                34.1250
 Red. masses --      6.8309                 5.3167                 5.9810
 Frc consts  --      0.0010                 0.0028                 0.0041
 IR Inten    --      6.7164                 8.3757                 4.6111

                      4                      5                      6
                      A                      A                      A
 Frequencies --     44.0745                49.9504                69.0631
 Red. masses --      5.2382                 4.3536                 5.4551
 Frc consts  --      0.0060                 0.0064                 0.0153
 IR Inten    --      1.5954                 1.7873                 1.3215

                      7                      8                      9
                      A                      A                      A
 Frequencies --    107.9880               132.0630               147.7996
 Red. masses --      6.8164                 8.8848                 6.9947
 Frc consts  --      0.0468                 0.0913                 0.0900
 IR Inten    --      3.1854                23.9782                 4.9862

                     10                     11                     12
                      A                      A                      A
 Frequencies --    155.1673               178.2487               188.4523
 Red. masses --      8.4459                 7.1826                 6.9578
 Frc consts  --      0.1198                 0.1345                 0.1456
 IR Inten    --      4.2558                 3.0359                 4.8406

                     13                     14                     15
                      A                      A                      A
 Frequencies --    198.4134               237.1482               243.8404
 Red. masses --      8.4359                 9.6589                 6.5130
 Frc consts  --      0.1957                 0.3201                 0.2282
 IR Inten    --      9.6412                 2.0787                 0.7240

                     16                     17                     18
                      A                      A                      A
 Frequencies --    277.4710               285.9580               308.2974
 Red. masses --     10.0879                11.6292                 9.3959
 Frc consts  --      0.4576                 0.5603                 0.5262
 IR Inten    --     18.9815                 8.0878                 5.8982

                     19                     20                     21
                      A                      A                      A
 Frequencies --    319.7699               371.8813               398.1556
 Red. masses --      7.5607                 7.1795                 8.3028
 Frc consts  --      0.4555                 0.5850                 0.7755
 IR Inten    --      0.9084                 0.8793                12.2343

                     22                     23                     24
                      A                      A                      A
 Frequencies --    414.4478               415.6409               420.3072
 Red. masses --      2.9217                 2.9276                 5.3780
 Frc consts  --      0.2957                 0.2980                 0.5598
 IR Inten    --      0.9208                 0.4792                20.1107

                     25                     26                     27
                      A                      A                      A
 Frequencies --    444.5157               450.4451               467.4594
 Red. masses --      6.6098                 5.1833                 5.7971
 Frc consts  --      0.7695                 0.6196                 0.7464
 IR Inten    --      4.1609                15.8397                 5.3866

                     28                     29                     30
                      A                      A                      A
 Frequencies --    486.6236               517.2848               557.9925
 Red. masses --      7.8983                 6.3961                 5.1741
 Frc consts  --      1.1020                 1.0084                 0.9492
 IR Inten    --      0.7228                83.9216                 3.9255

                     31                     32                     33
                      A                      A                      A
 Frequencies --    560.6005               583.9068               626.3606
 Red. masses --      7.5353                 6.5943                 6.4507
 Frc consts  --      1.3953                 1.3247                 1.4911
 IR Inten    --    173.2862               278.5645                 0.5131

                     34                     35                     36
                      A                      A                      A
 Frequencies --    630.2104               653.4133               674.2303
 Red. masses --      6.4292                 3.8515                 5.5371
 Frc consts  --      1.5045                 0.9688                 1.4830
 IR Inten    --      0.2639                16.2537                42.3129

                     37                     38                     39
                      A                      A                      A
 Frequencies --    698.4917               700.7549               707.0628
 Red. masses --      3.9755                 1.9428                 1.6187
 Frc consts  --      1.1428                 0.5621                 0.4768
 IR Inten    --      0.5675                71.4851               187.6040

                     40                     41                     42
                      A                      A                      A
 Frequencies --    710.1731               735.6671               759.4253
 Red. masses --      6.9743                 6.5507                 6.1360
 Frc consts  --      2.0724                 2.0888                 2.0850
 IR Inten    --     28.3570                63.6810                41.4725

                     43                     44                     45
                      A                      A                      A
 Frequencies --    763.4816               795.4213               829.5337
 Red. masses --      1.8695                 2.4267                 2.0149
 Frc consts  --      0.6420                 0.9046                 0.8169
 IR Inten    --     19.5208                18.8818                72.4088

                     46                     47                     48
                      A                      A                      A
 Frequencies --    849.8718               863.5590               865.1043
 Red. masses --      1.2621                 1.2604                 7.1750
 Frc consts  --      0.5371                 0.5538                 3.1638
 IR Inten    --      7.1786                 2.3152               257.1463

                     49                     50                     51
                      A                      A                      A
 Frequencies --    894.6455               936.3080               949.7573
 Red. masses --      8.6978                 1.3692                 1.3234
 Frc consts  --      4.1017                 0.7072                 0.7033
 IR Inten    --     73.7319                 0.6948                 0.3114

                     52                     53                     54
                      A                      A                      A
 Frequencies --    955.2853               990.2710              1002.1505
 Red. masses --      1.4461                 1.3806                 1.3790
 Frc consts  --      0.7775                 0.7977                 0.8160
 IR Inten    --      7.9065                 0.1255                 0.0773

                     55                     56                     57
                      A                      A                      A
 Frequencies --   1008.6285              1010.4144              1011.0775
 Red. masses --      1.7956                 3.2342                 3.5004
 Frc consts  --      1.0763                 1.9454                 2.1083
 IR Inten    --     16.2079                 1.5386                90.0429

                     58                     59                     60
                      A                      A                      A
 Frequencies --   1013.9556              1014.8559              1025.6407
 Red. masses --      1.4559                 5.5083                 8.7919
 Frc consts  --      0.8819                 3.3425                 5.4491
 IR Inten    --      2.2617                30.9004               381.9462

                     61                     62                     63
                      A                      A                      A
 Frequencies --   1042.7056              1045.5077              1091.1357
 Red. masses --      2.0818                 2.7129                 1.6113
 Frc consts  --      1.3336                 1.7472                 1.1303
 IR Inten    --      9.0472               106.3372                26.3374

                     64                     65                     66
                      A                      A                      A
 Frequencies --   1091.9299              1094.4304              1099.9727
 Red. masses --      1.5990                 3.3922                 2.2496
 Frc consts  --      1.1233                 2.3939                 1.6037
 IR Inten    --     15.1848               154.8296                58.2069

                     67                     68                     69
                      A                      A                      A
 Frequencies --   1140.1821              1170.1083              1174.6917
 Red. masses --      1.6488                11.8015                 1.1257
 Frc consts  --      1.2629                 9.5200                 0.9152
 IR Inten    --     55.5470               382.0259                 7.1873

                     70                     71                     72
                      A                      A                      A
 Frequencies --   1176.1012              1179.4333              1189.4767
 Red. masses --      1.1238                 1.2850                 1.1585
 Frc consts  --      0.9159                 1.0532                 0.9657
 IR Inten    --      8.5053               121.0347                 4.0139

                     73                     74                     75
                      A                      A                      A
 Frequencies --   1204.3191              1240.2741              1289.6671
 Red. masses --      3.7744                 4.9874                 3.2868
 Frc consts  --      3.2253                 4.5202                 3.2209
 IR Inten    --    210.3506               160.2131               506.4599

                     76                     77                     78
                      A                      A                      A
 Frequencies --   1326.2835              1328.5449              1338.6700
 Red. masses --      2.7719                 2.1996                 2.1364
 Frc consts  --      2.8728                 2.2874                 2.2556
 IR Inten    --      0.3257                19.0093                67.5587

                     79                     80                     81
                      A                      A                      A
 Frequencies --   1340.6587              1350.8866              1383.3883
 Red. masses --      2.5978                 3.4293                 5.9765
 Frc consts  --      2.7510                 3.6871                 6.7388
 IR Inten    --     17.3926               445.5185               660.1200

                     82                     83                     84
                      A                      A                      A
 Frequencies --   1428.7753              1470.3785              1473.3539
 Red. masses --      8.5226                 2.1181                 2.1916
 Frc consts  --     10.2506                 2.6981                 2.8030
 IR Inten    --    591.5352                31.0721                15.8791

                     85                     86                     87
                      A                      A                      A
 Frequencies --   1487.3859              1501.3450              1513.5920
 Red. masses --      4.1476                 2.0367                 2.1988
 Frc consts  --      5.4062                 2.7048                 2.9679
 IR Inten    --    451.6891                12.9545                 1.0527

                     88                     89                     90
                      A                      A                      A
 Frequencies --   1604.3605              1613.1211              1615.7311
 Red. masses --      6.9659                 5.7823                 5.5615
 Frc consts  --     10.5641                 8.8651                 8.5542
 IR Inten    --    125.5859                47.4908                 3.3891

                     91                     92                     93
                      A                      A                      A
 Frequencies --   1617.0349              1631.0554              1679.3896
 Red. masses --      5.7420                 5.7197                11.9340
 Frc consts  --      8.8461                 8.9652                19.8308
 IR Inten    --      5.8431                37.7901               453.0712

                     94                     95                     96
                      A                      A                      A
 Frequencies --   3120.0076              3142.1514              3161.8144
 Red. masses --      1.0847                 1.0936                 1.0858
 Frc consts  --      6.2212                 6.3615                 6.3952
 IR Inten    --     48.2149                95.4520                 0.3172

                     97                     98                     99
                      A                      A                      A
 Frequencies --   3166.7761              3170.7425              3176.8455
 Red. masses --      1.0863                 1.0890                 1.0902
 Frc consts  --      6.4183                 6.4506                 6.4826
 IR Inten    --      0.4784                16.7034                24.9147

                    100                    101                    102
                      A                      A                      A
 Frequencies --   3181.4049              3187.8276              3189.8067
 Red. masses --      1.0925                 1.0952                 1.0931
 Frc consts  --      6.5152                 6.5577                 6.5528
 IR Inten    --     26.8175                26.8527                23.9010

                    103                    104                    105
                      A                      A                      A
 Frequencies --   3192.9741              3202.0302              3230.1441
 Red. masses --      1.0957                 1.0935                 1.0923
 Frc consts  --      6.5814                 6.6059                 6.7147
 IR Inten    --     17.5222                 9.5938                 4.3601

 - Thermochemistry -
 -------------------
 Temperature   298.150 Kelvin.  Pressure   1.00000 Atm.
 Atom     1 has atomic number  6 and mass  12.00000

 Molecular mass:   352.04055 amu.
 Principal axes and moments of inertia in atomic units:
                           1         2         3
     Eigenvalues --  5100.81838********************
           X            0.32933   0.89668   0.29582
           Y            0.90741  -0.21393  -0.36172
           Z            0.26106  -0.38755   0.88411
 This molecule is an asymmetric top.
 Rotational symmetry number  1.
 Warning -- assumption of classical behavior for rotation
           may cause significant error
 Rotational temperatures (Kelvin)      0.01698     0.00748     0.00648
 Rotational constants (GHZ):           0.35381     0.15582     0.13505
 Zero-point vibrational energy     686924.5 (Joules/Mol)
                                  164.17891 (Kcal/Mol)
 Warning -- explicit consideration of  32 degrees of freedom as
           vibrations may cause significant error
 Vibrational temperatures:     22.71    42.84    49.10    63.41    71.87
          (Kelvin)             99.37   155.37   190.01   212.65   223.25
                              256.46   271.14   285.47   341.20   350.83
                              399.22   411.43   443.57   460.08   535.05
                              572.86   596.30   598.01   604.73   639.56
                              648.09   672.57   700.14   744.26   802.83
                              806.58   840.11   901.19   906.73   940.12
                              970.07  1004.97  1008.23  1017.31  1021.78
                             1058.46  1092.64  1098.48  1144.43  1193.51
                             1222.78  1242.47  1244.69  1287.20  1347.14
                             1366.49  1374.44  1424.78  1441.87  1451.19
                             1453.76  1454.71  1458.86  1460.15  1475.67
                             1500.22  1504.25  1569.90  1571.04  1574.64
                             1582.62  1640.47  1683.52  1690.12  1692.15
                             1696.94  1711.39  1732.75  1784.48  1855.54
                             1908.23  1911.48  1926.05  1928.91  1943.62
                             1990.39  2055.69  2115.55  2119.83  2140.02
                             2160.10  2177.72  2308.32  2320.92  2324.68
                             2326.55  2346.72  2416.27  4489.00  4520.85
                             4549.15  4556.28  4561.99  4570.77  4577.33
                             4586.57  4589.42  4593.98  4607.01  4647.46

 Zero-point correction=                           0.261636 (Hartree/Particle)
 Thermal correction to Energy=                    0.282510
 Thermal correction to Enthalpy=                  0.283454
 Thermal correction to Gibbs Free Energy=         0.209700
 Sum of electronic and zero-point Energies=          -1505.813568
 Sum of electronic and thermal Energies=             -1505.792694
 Sum of electronic and thermal Enthalpies=           -1505.791750
 Sum of electronic and thermal Free Energies=        -1505.865504

                     E (Thermal)             CV                S
                      KCal/Mol        Cal/Mol-Kelvin    Cal/Mol-Kelvin
 Total                  177.278             80.640            155.229
 Electronic               0.000              0.000              0.000
 Translational            0.889              2.981             43.470
 Rotational               0.889              2.981             35.022
 Vibrational            175.500             74.678             76.737
 Vibration     1          0.593              1.986              7.105
 Vibration     2          0.594              1.984              5.844
 Vibration     3          0.594              1.983              5.574
 Vibration     4          0.595              1.980              5.067
 Vibration     5          0.595              1.978              4.819
 Vibration     6          0.598              1.969              4.180
 Vibration     7          0.606              1.943              3.305
 Vibration     8          0.612              1.921              2.916
 Vibration     9          0.617              1.905              2.700
 Vibration    10          0.620              1.897              2.608
 Vibration    11          0.629              1.869              2.347
 Vibration    12          0.633              1.856              2.243
 Vibration    13          0.637              1.842              2.148
 Vibration    14          0.656              1.784              1.824
 Vibration    15          0.659              1.773              1.775
 Vibration    16          0.678              1.715              1.549
 Vibration    17          0.684              1.700              1.498
 Vibration    18          0.698              1.658              1.371
 Vibration    19          0.706              1.636              1.311
 Vibration    20          0.744              1.530              1.072
 Vibration    21          0.764              1.474              0.969
 Vibration    22          0.778              1.439              0.911
 Vibration    23          0.779              1.436              0.907
 Vibration    24          0.783              1.426              0.891
 Vibration    25          0.804              1.373              0.813
 Vibration    26          0.809              1.360              0.794
 Vibration    27          0.825              1.322              0.745
 Vibration    28          0.843              1.280              0.692
 Vibration    29          0.872              1.212              0.616
 Vibration    30          0.914              1.122              0.528
 Vibration    31          0.916              1.117              0.523
 Vibration    32          0.941              1.066              0.478

                           ! Non-Optimized Parameters !
 Normal termination of Gaussian 16 at Sun Feb 11 08:53:48 2024.
