 Gaussian 16, Revision A.03,
 Gaussian 16:  ES64L-G16RevA.03 25-Dec-2016

 ----------------------------------------------
 #P UB3LYP/6-311++G(d,p) nosym opt freq SCF=YQC
 ----------------------------------------------

 -------
 Reduced
 -------
 Symbolic Z-matrix:
 Charge = -4 Multiplicity = 1

 SCF Done:  E(UB3LYP) =  -1935.32633253     a.u. after    8 cycles
 SCF Done:  E(UB3LYP) =  -1935.32654290     A.U. after   33 cycles
 SCF Done:  E(UB3LYP) =  -1935.32674964     a.u. after    6 cycles
 SCF Done:  E(UB3LYP) =  -1935.32673975     a.u. after    1 cycles
 SCF Done:  E(UB3LYP) =  -1935.32674970     A.U. after   24 cycles
 SCF Done:  E(UB3LYP) =  -1935.32669017     a.u. after    1 cycles
 SCF Done:  E(UB3LYP) =  -1935.32674979     A.U. after   24 cycles
 SCF Done:  E(UB3LYP) =  -1935.32673609     a.u. after    1 cycles
 SCF Done:  E(UB3LYP) =  -1935.32674981     A.U. after   21 cycles
 Optimization completed.
    -- Stationary point found.
 Normal termination of Gaussian 16 at Wed Jan 10 05:23:46 2024.

 ----------------------------------------------------------------------
 #P Geom=AllCheck Guess=TCheck SCRF=Check GenChk UB3LYP/6-311++G(d,p) F
 req
 ----------------------------------------------------------------------

 Structure from the checkpoint file:  "225-an.chk"
 -------
 Reduced
 -------
 Charge = -4 Multiplicity = 1

                          Input orientation:
 ---------------------------------------------------------------------
 Center     Atomic      Atomic             Coordinates (Angstroms)
 Number     Number       Type             X           Y           Z
 ---------------------------------------------------------------------
      1          8           0        5.900362   -1.615398    1.259852
      2         16           0        5.458567   -0.885681    0.019911
      3          8           0        6.232957    0.392700   -0.156583
      4          8           0        5.503864   -1.752595   -1.198386
      5          6           0        3.720299   -0.406411    0.293175
      6          6           0        3.430001    0.425631    1.415772
      7          6           0        2.131256    0.815161    1.654182
      8          6           0        1.041238    0.426034    0.827194
      9          6           0       -0.294696    0.885013    1.155737
     10          8           0       -0.531927    1.634409    2.178603
     11          6           0       -1.335585    0.427293    0.252878
     12          6           0       -2.693693    0.801539    0.487658
     13          6           0       -3.721217    0.405620   -0.343518
     14          6           0       -3.430844   -0.396976   -1.487439
     15          6           0       -2.130947   -0.784781   -1.728820
     16          6           0       -1.042215   -0.417175   -0.889250
     17          6           0        0.293661   -0.889736   -1.208923
     18          8           0        0.530447   -1.651858   -2.220122
     19          6           0        1.336252   -0.425175   -0.310845
     20          6           0        2.693212   -0.811577   -0.534856
     21         16           0       -5.459197    0.862295   -0.025544
     22          8           0       -5.912427    1.682493   -1.201379
     23          8           0       -6.227126   -0.427441    0.066990
     24          8           0       -5.492298    1.638521    1.253965
     25          1           0        4.237122    0.739279    2.070417
     26          1           0        1.886414    1.448258    2.502758
     27          1           0       -2.899517    1.412270    1.358357
     28          1           0       -4.231283   -0.690829   -2.161958
     29          1           0       -1.888853   -1.396077   -2.594343
     30          1           0        2.896170   -1.444808   -1.390191
 ---------------------------------------------------------------------

 SCF Done:  E(UB3LYP) =  -1935.32674981     a.u. after    1 cycles
 SCF Done:  E(UB3LYP) =  -1935.32674981     A.U. after    2 cycles

 Alpha  occ. eigenvalues --  -88.64408 -88.64005 -18.68999 -18.68886 -18.68885
 Alpha  occ. eigenvalues --  -18.68591 -18.68490 -18.68451 -18.63170 -18.63150
 Alpha  occ. eigenvalues --   -9.79065  -9.79045  -9.78875  -9.78633  -9.77505
 Alpha  occ. eigenvalues --   -9.77181  -9.76934  -9.76863  -9.76657  -9.76555
 Alpha  occ. eigenvalues --   -9.75554  -9.75462  -9.75313  -9.75243  -7.70265
 Alpha  occ. eigenvalues --   -7.69863  -5.66554  -5.66541  -5.66408  -5.66151
 Alpha  occ. eigenvalues --   -5.66137  -5.66008  -0.69955  -0.69571  -0.56576
 Alpha  occ. eigenvalues --   -0.56149  -0.56111  -0.55759  -0.54731  -0.54354
 Alpha  occ. eigenvalues --   -0.44586  -0.44086  -0.37340  -0.34493  -0.34171
 Alpha  occ. eigenvalues --   -0.33048  -0.25837  -0.25223  -0.21726  -0.20741
 Alpha  occ. eigenvalues --   -0.17405  -0.16498  -0.13916  -0.12054  -0.10872
 Alpha  occ. eigenvalues --   -0.08401  -0.06258  -0.05644  -0.05438  -0.05051
 Alpha  occ. eigenvalues --   -0.04621  -0.04301  -0.03704  -0.02232  -0.01843
 Alpha  occ. eigenvalues --   -0.01079   0.00801   0.01052   0.01238   0.03150
 Alpha  occ. eigenvalues --    0.03944   0.04946   0.05667   0.06703   0.06758
 Alpha  occ. eigenvalues --    0.06923   0.07178   0.07347   0.07611   0.08458
 Alpha  occ. eigenvalues --    0.10706   0.10888   0.11038   0.11310   0.11507
 Alpha  occ. eigenvalues --    0.11568   0.14759   0.14961   0.15179   0.16039
 Alpha  occ. eigenvalues --    0.16822   0.17238   0.18986   0.19578   0.28365
 Alpha virt. eigenvalues --    0.30088   0.31118   0.33460   0.33876   0.35343
 Alpha virt. eigenvalues --    0.35617   0.35898   0.37093   0.37722   0.37871
 Alpha virt. eigenvalues --    0.38495   0.38906   0.39871   0.39992   0.40500

  Beta  occ. eigenvalues --  -88.64408 -88.64005 -18.68999 -18.68886 -18.68885
  Beta  occ. eigenvalues --  -18.68591 -18.68490 -18.68451 -18.63170 -18.63150
  Beta  occ. eigenvalues --   -9.79065  -9.79045  -9.78875  -9.78633  -9.77505
  Beta  occ. eigenvalues --   -9.77181  -9.76934  -9.76863  -9.76657  -9.76555
  Beta  occ. eigenvalues --   -9.75554  -9.75462  -9.75313  -9.75243  -7.70265
  Beta  occ. eigenvalues --   -7.69863  -5.66554  -5.66541  -5.66408  -5.66151
  Beta  occ. eigenvalues --   -5.66137  -5.66008  -0.69955  -0.69571  -0.56576
  Beta  occ. eigenvalues --   -0.56149  -0.56111  -0.55759  -0.54731  -0.54354
  Beta  occ. eigenvalues --   -0.44586  -0.44086  -0.37340  -0.34493  -0.34171
  Beta  occ. eigenvalues --   -0.33048  -0.25837  -0.25223  -0.21726  -0.20741
  Beta  occ. eigenvalues --   -0.17405  -0.16498  -0.13916  -0.12054  -0.10872
  Beta  occ. eigenvalues --   -0.08401  -0.06258  -0.05644  -0.05438  -0.05051
  Beta  occ. eigenvalues --   -0.04621  -0.04301  -0.03704  -0.02232  -0.01843
  Beta  occ. eigenvalues --   -0.01079   0.00801   0.01052   0.01238   0.03150
  Beta  occ. eigenvalues --    0.03944   0.04946   0.05667   0.06703   0.06758
  Beta  occ. eigenvalues --    0.06923   0.07178   0.07347   0.07611   0.08458
  Beta  occ. eigenvalues --    0.10706   0.10888   0.11038   0.11310   0.11507
  Beta  occ. eigenvalues --    0.11568   0.14759   0.14961   0.15179   0.16039
  Beta  occ. eigenvalues --    0.16822   0.17238   0.18986   0.19578   0.28365
  Beta virt. eigenvalues --    0.30088   0.31118   0.33460   0.33876   0.35343
  Beta virt. eigenvalues --    0.35617   0.35898   0.37093   0.37722   0.37871
  Beta virt. eigenvalues --    0.38495   0.38906   0.39871   0.39992   0.40500

 Mulliken charges and spin densities:
               1          2
     1  O   -0.385127   0.000000
     2  S    0.693075   0.000000
     3  O   -0.381574   0.000000
     4  O   -0.413551   0.000000
     5  C   -0.737420  -0.000000
     6  C   -0.624837  -0.000000
     7  C   -0.234793   0.000000
     8  C    0.668666   0.000000
     9  C   -0.853705  -0.000000
    10  O   -0.512260   0.000000
    11  C    0.244888   0.000000
    12  C    0.097839  -0.000000
    13  C   -0.487148   0.000000
    14  C   -0.079184   0.000000
    15  C   -0.397722  -0.000000
    16  C    0.801967   0.000000
    17  C   -0.952086  -0.000000
    18  O   -0.508890   0.000000
    19  C    0.435769  -0.000000
    20  C    0.154538  -0.000000
    21  S    0.924774   0.000000
    22  O   -0.375227  -0.000000
    23  O   -0.384837  -0.000000
    24  O   -0.420685   0.000000
    25  H    0.112998   0.000000
    26  H    0.093624  -0.000000
    27  H    0.193432   0.000000
    28  H   -0.717482  -0.000000
    29  H   -0.143877   0.000000
    30  H    0.188833   0.000000
 Sum of Mulliken charges =  -4.00000   0.00000

 Dipole moment (field-independent basis, Debye):
    X=              2.5903    Y=              0.9064    Z=              2.8599  Tot=              3.9636
 Quadrupole moment (field-independent basis, Debye-Ang):
   XX=           -616.0547   YY=           -215.7523   ZZ=           -231.5383
   XY=             63.5136   XZ=            -12.6643   YZ=            -24.6003

  Exact polarizability:1773.372 340.984 378.5691078.277 435.8931333.873
 Approx polarizability:2080.519 356.793 511.2121202.137 492.8181543.955

                      1                      2                      3
                      A                      A                      A
 Frequencies --     14.1805                18.0005                26.9955
 Red. masses --     14.1539                12.8499                14.3898
 Frc consts  --      0.0017                 0.0025                 0.0062
 IR Inten    --      0.4953                 0.1924                 1.2504

                      4                      5                      6
                      A                      A                      A
 Frequencies --     72.5527                77.8532                80.1412
 Red. masses --     10.2136                12.0488                 6.3608
 Frc consts  --      0.0317                 0.0430                 0.0241
 IR Inten    --      6.8499                19.3525                24.3500

                      7                      8                      9
                      A                      A                      A
 Frequencies --    123.6415               145.2584               164.8087
 Red. masses --     12.1275                 6.0144                 5.9805
 Frc consts  --      0.1092                 0.0748                 0.0957
 IR Inten    --     61.6190                 8.6970                 2.8152

                     10                     11                     12
                      A                      A                      A
 Frequencies --    177.4676               180.9005               221.8763
 Red. masses --     15.2660                11.9740                 9.9029
 Frc consts  --      0.2833                 0.2309                 0.2872
 IR Inten    --     13.1015                 7.4711                21.1371

                     13                     14                     15
                      A                      A                      A
 Frequencies --    237.2421               248.6623               265.5926
 Red. masses --      7.9449                13.8179                13.4466
 Frc consts  --      0.2635                 0.5034                 0.5589
 IR Inten    --      3.3680                12.3632                 0.5001

                     16                     17                     18
                      A                      A                      A
 Frequencies --    329.0834               337.9008               369.4105
 Red. masses --      8.2565                 7.5668                 7.8445
 Frc consts  --      0.5268                 0.5090                 0.6307
 IR Inten    --      5.6808                19.6717               362.3753

                     19                     20                     21
                      A                      A                      A
 Frequencies --    373.1868               381.7121               396.9687
 Red. masses --      7.8146                 9.9202                 7.8355
 Frc consts  --      0.6412                 0.8516                 0.7275
 IR Inten    --      1.2464               128.9267              1418.8783

                     22                     23                     24
                      A                      A                      A
 Frequencies --    425.4250               432.5603               456.2886
 Red. masses --      3.5468                 7.5416                 9.3701
 Frc consts  --      0.3782                 0.8314                 1.1494
 IR Inten    --      5.7191                 7.8468              1343.6065

                     25                     26                     27
                      A                      A                      A
 Frequencies --    483.0472               489.7187               503.2670
 Red. masses --      3.5068                 9.6034                10.7934
 Frc consts  --      0.4821                 1.3570                 1.6107
 IR Inten    --      2.8704                33.7767                81.7878

                     28                     29                     30
                      A                      A                      A
 Frequencies --    515.5909               518.6432               526.2663
 Red. masses --     15.2317                13.4553                11.1171
 Frc consts  --      2.3857                 2.1325                 1.8141
 IR Inten    --      9.0645                 0.3509                 6.7481

                     31                     32                     33
                      A                      A                      A
 Frequencies --    568.3862               596.6969               621.5368
 Red. masses --      5.3782                13.2747                12.6921
 Frc consts  --      1.0237                 2.7847                 2.8888
 IR Inten    --     15.7022               427.9543               485.4850

                     34                     35                     36
                      A                      A                      A
 Frequencies --    638.6783               640.6490               673.9720
 Red. masses --      5.7698                 6.0253                 8.3788
 Frc consts  --      1.3867                 1.4570                 2.2424
 IR Inten    --      9.8134                15.9795               123.8494

                     37                     38                     39
                      A                      A                      A
 Frequencies --    689.5893               711.8199               713.4198
 Red. masses --      6.7833                 4.3430                 8.0045
 Frc consts  --      1.9005                 1.2965                 2.4004
 IR Inten    --     42.3101                15.2190                33.6701

                     40                     41                     42
                      A                      A                      A
 Frequencies --    720.3427               763.2239               817.9584
 Red. masses --      3.7519                 1.9176                 4.8000
 Frc consts  --      1.1470                 0.6581                 1.8921
 IR Inten    --     15.5188                 9.2557                16.3270

                     43                     44                     45
                      A                      A                      A
 Frequencies --    831.5100               871.9865               924.8626
 Red. masses --      7.2683                 1.5563                11.8856
 Frc consts  --      2.9609                 0.6972                 5.9900
 IR Inten    --     62.8519               248.3305              1311.7963

                     46                     47                     48
                      A                      A                      A
 Frequencies --    926.9761               945.5540               951.5140
 Red. masses --      7.1371                 1.2670                 1.4509
 Frc consts  --      3.6133                 0.6674                 0.7740
 IR Inten    --    263.9544                 2.7763                40.0980

                     49                     50                     51
                      A                      A                      A
 Frequencies --    953.8475               958.8554               976.8083
 Red. masses --      5.4229                 1.3761                 3.0924
 Frc consts  --      2.9070                 0.7454                 1.7384
 IR Inten    --    353.0009                12.8168               480.6369

                     52                     53                     54
                      A                      A                      A
 Frequencies --    981.3790              1042.5158              1044.4790
 Red. masses --      1.7745                 2.2607                 2.4566
 Frc consts  --      1.0069                 1.4476                 1.5790
 IR Inten    --    141.0740               226.7631              1914.8087

                     55                     56                     57
                      A                      A                      A
 Frequencies --   1080.7228              1086.3935              1092.9507
 Red. masses --     20.2129                20.2954                 2.8584
 Frc consts  --     13.9094                14.1131                 2.0118
 IR Inten    --    311.0376               368.8660               898.1875

                     58                     59                     60
                      A                      A                      A
 Frequencies --   1103.8032              1114.0341              1124.4493
 Red. masses --      3.7319                 8.0002                 2.3387
 Frc consts  --      2.6789                 5.8499                 1.7422
 IR Inten    --    289.9012               165.5937                10.3425

                     61                     62                     63
                      A                      A                      A
 Frequencies --   1140.9439              1156.3673              1189.7630
 Red. masses --      5.3802                 4.1895                 1.8623
 Frc consts  --      4.1264                 3.3007                 1.5532
 IR Inten    --    115.0691              2194.6720               280.2382

                     64                     65                     66
                      A                      A                      A
 Frequencies --   1194.1998              1234.6930              1294.1009
 Red. masses --      1.7096                 2.0472                 2.0343
 Frc consts  --      1.4365                 1.8388                 2.0072
 IR Inten    --    153.7258                74.5438              1076.3650

                     67                     68                     69
                      A                      A                      A
 Frequencies --   1305.8214              1338.5642              1343.2773
 Red. masses --      7.3022                 7.2612                 3.3430
 Frc consts  --      7.3362                 7.6655                 3.5540
 IR Inten    --   2796.7808               137.6085               537.3121

                     70                     71                     72
                      A                      A                      A
 Frequencies --   1421.6675              1430.3751              1441.0354
 Red. masses --      5.4447                 4.2947                 5.6292
 Frc consts  --      6.4837                 5.1770                 6.8873
 IR Inten    --   3421.9359              2741.9370              1904.6966

                     73                     74                     75
                      A                      A                      A
 Frequencies --   1457.3307              1472.2541              1505.5067
 Red. masses --      3.6679                 3.5444                 6.0860
 Frc consts  --      4.5897                 4.5265                 8.1273
 IR Inten    --    256.1893               117.5292               421.1161

                     76                     77                     78
                      A                      A                      A
 Frequencies --   1526.2740              1571.3756              1573.8706
 Red. masses --      7.8773                 6.0403                 5.8346
 Frc consts  --     10.8116                 8.7875                 8.5153
 IR Inten    --   5936.9089                21.2326               189.1600

                     79                     80                     81
                      A                      A                      A
 Frequencies --   3122.5818              3133.3416              3147.2712
 Red. masses --      1.0850                 1.0841                 1.0930
 Frc consts  --      6.2332                 6.2711                 6.3790
 IR Inten    --   1980.5132                 9.8540              1040.9433

                     82                     83                     84
                      A                      A                      A
 Frequencies --   3155.6511              3192.1005              3193.5358
 Red. masses --      1.0928                 1.0882                 1.0882
 Frc consts  --      6.4119                 6.5329                 6.5387
 IR Inten    --    167.4164                13.5472                 3.1779

 - Thermochemistry -
 -------------------
 Temperature   298.150 Kelvin.  Pressure   1.00000 Atm.
 Atom     1 has atomic number  8 and mass  15.99491

 Molecular mass:   365.95041 amu.
 Principal axes and moments of inertia in atomic units:
                           1         2         3
     Eigenvalues --  2574.56201********************
           X            0.98921   0.06003   0.13365
           Y           -0.14412   0.56286   0.81389
           Z            0.02637   0.82437  -0.56543
 This molecule is an asymmetric top.
 Rotational symmetry number  1.
 Warning -- assumption of classical behavior for rotation
           may cause significant error
 Rotational temperatures (Kelvin)      0.03364     0.00373     0.00345
 Rotational constants (GHZ):           0.70099     0.07775     0.07195
 Zero-point vibrational energy     468368.3 (Joules/Mol)
                                  111.94270 (Kcal/Mol)
 Warning -- explicit consideration of  32 degrees of freedom as
           vibrations may cause significant error
 Vibrational temperatures:     20.40    25.90    38.84   104.39   112.01
          (Kelvin)            115.31   177.89   208.99   237.12   255.34
                              260.28   319.23   341.34   357.77   382.13
                              473.48   486.16   531.50   536.93   549.20
                              571.15   612.09   622.36   656.50   695.00
                              704.60   724.09   741.82   746.21   757.18
                              817.78   858.51   894.25   918.92   921.75
                              969.70   992.17  1024.15  1026.45  1036.41
                             1098.11  1176.86  1196.36  1254.59  1330.67
                             1333.71  1360.44  1369.02  1372.37  1379.58
                             1405.41  1411.99  1499.95  1502.77  1554.92
                             1563.08  1572.51  1588.13  1602.85  1617.83
                             1641.56  1663.75  1711.80  1718.19  1776.45
                             1861.92  1878.79  1925.90  1932.68  2045.46
                             2057.99  2073.33  2096.77  2118.25  2166.09
                             2195.97  2260.86  2264.45  4492.70  4508.18
                             4528.22  4540.28  4592.72  4594.79

 Zero-point correction=                           0.178392 (Hartree/Particle)
 Thermal correction to Energy=                    0.197983
 Thermal correction to Enthalpy=                  0.198927
 Thermal correction to Gibbs Free Energy=         0.127294
 Sum of electronic and zero-point Energies=          -1935.148358
 Sum of electronic and thermal Energies=             -1935.128767
 Sum of electronic and thermal Enthalpies=           -1935.127823
 Sum of electronic and thermal Free Energies=        -1935.199455

                     E (Thermal)             CV                S
                      KCal/Mol        Cal/Mol-Kelvin    Cal/Mol-Kelvin
 Total                  124.236             74.995            150.764
 Electronic               0.000              0.000              0.000
 Translational            0.889              2.981             43.585
 Rotational               0.889              2.981             35.659
 Vibrational            122.459             69.034             71.520
 Vibration     1          0.593              1.986              7.317
 Vibration     2          0.593              1.986              6.843
 Vibration     3          0.593              1.984              6.039
 Vibration     4          0.599              1.967              4.083
 Vibration     5          0.599              1.964              3.944
 Vibration     6          0.600              1.963              3.887
 Vibration     7          0.610              1.929              3.043
 Vibration     8          0.617              1.908              2.733
 Vibration     9          0.623              1.886              2.494
 Vibration    10          0.628              1.870              2.355
 Vibration    11          0.630              1.866              2.319
 Vibration    12          0.648              1.808              1.944
 Vibration    13          0.656              1.784              1.823
 Vibration    14          0.662              1.765              1.740
 Vibration    15          0.671              1.736              1.625
 Vibration    16          0.712              1.617              1.265
 Vibration    17          0.718              1.600              1.222
 Vibration    18          0.742              1.535              1.082
 Vibration    19          0.745              1.527              1.067
 Vibration    20          0.751              1.509              1.032
 Vibration    21          0.763              1.477              0.974
 Vibration    22          0.787              1.415              0.874
 Vibration    23          0.793              1.399              0.850
 Vibration    24          0.815              1.347              0.777
 Vibration    25          0.839              1.288              0.702
 Vibration    26          0.846              1.273              0.684
 Vibration    27          0.859              1.243              0.650
 Vibration    28          0.871              1.215              0.620
 Vibration    29          0.874              1.209              0.613
 Vibration    30          0.881              1.192              0.596
 Vibration    31          0.924              1.100              0.507
 Vibration    32          0.955              1.039              0.455

                           ! Non-Optimized Parameters !
 Normal termination of Gaussian 16 at Wed Jan 10 06:41:19 2024.
