 Q-Chem 5.4, Q-Chem, Inc., Pleasanton, CA (2021)
 Q-Chem 5.4.0 for Intel X86 EM64T Linux

User input:
--------------------------------------------------------------
$molecule
-4 1
O                  5.9003620000     -1.6153980000      1.2598520000
S                  5.4585670000     -0.8856810000      0.0199110000
O                  6.2329570000      0.3927000000     -0.1565830000
O                  5.5038640000     -1.7525950000     -1.1983860000
C                  3.7202990000     -0.4064110000      0.2931750000
C                  3.4300010000      0.4256310000      1.4157720000
C                  2.1312560000      0.8151610000      1.6541820000
C                  1.0412380000      0.4260340000      0.8271940000
C                 -0.2946960000      0.8850130000      1.1557370000
O                 -0.5319270000      1.6344090000      2.1786030000
C                 -1.3355850000      0.4272930000      0.2528780000
C                 -2.6936930000      0.8015390000      0.4876580000
C                 -3.7212170000      0.4056200000     -0.3435180000
C                 -3.4308440000     -0.3969760000     -1.4874390000
C                 -2.1309470000     -0.7847810000     -1.7288200000
C                 -1.0422150000     -0.4171750000     -0.8892500000
C                  0.2936610000     -0.8897360000     -1.2089230000
O                  0.5304470000     -1.6518580000     -2.2201220000
C                  1.3362520000     -0.4251750000     -0.3108450000
C                  2.6932120000     -0.8115770000     -0.5348560000
S                 -5.4591970000      0.8622950000     -0.0255440000
O                 -5.9124270000      1.6824930000     -1.2013790000
O                 -6.2271260000     -0.4274410000      0.0669900000
O                 -5.4922980000      1.6385210000      1.2539650000
H                  4.2371220000      0.7392790000      2.0704170000
H                  1.8864140000      1.4482580000      2.5027580000
H                 -2.8995170000      1.4122700000      1.3583570000
H                 -4.2312830000     -0.6908290000     -2.1619580000
H                 -1.8888530000     -1.3960770000     -2.5943430000
H                  2.8961700000     -1.4448080000     -1.3901910000
$end
$rem
MAX_SCF_CYCLES=200
BASIS  =  6-311++G(d,p)
GUI  =  2
JOB_TYPE  =  SP
METHOD  =  B3LYP
SOLVENT_METHOD = COSMO
$end
$solvent
dielectric 37.219
opticaldielectric 1.43
$end

--------------------------------------------------------------

             Standard Nuclear Orientation (Angstroms)
    I     Atom           X                Y                Z
 ----------------------------------------------------------------
    1      O      -6.1042661338    -0.4795189989     1.2432464565
    2      S      -5.5271510266     0.1574651766     0.0078061629
    3      O      -6.1062547200    -0.4601970899    -1.2364688155
    4      O      -5.6598069286     1.6474662008     0.0195807666
    5      C      -3.7470866253    -0.2391552612     0.0044088113
    6      C      -3.3742001730    -1.6167346114    -0.0002463647
    7      C      -2.0407508863    -1.9590020748    -0.0090501948
    8      C      -0.9935532915    -0.9962840301    -0.0134522941
    9      C       0.3839451038    -1.4498590390    -0.0229264659
   10      O       0.6954747366    -2.7016882766    -0.0237099413
   11      C       1.3749861258    -0.3887532678    -0.0208972715
   12      C       2.7650995420    -0.7160648438    -0.0113642212
   13      C       3.7496216129     0.2503901016    -0.0209610219
   14      C       3.3814732669     1.6289815411    -0.0523379364
   15      C       2.0472163280     1.9726632911    -0.0467709352
   16      C       0.9978615274     1.0117518075    -0.0175656755
   17      C      -0.3817710029     1.4656577505     0.0079860253
   18      O      -0.6950116304     2.7150514436     0.0257815143
   19      C      -1.3733830052     0.4045489859    -0.0025418760
   20      C      -2.7644045679     0.7298846669     0.0040597788
   21      S       5.5248816929    -0.1704047772     0.0192548809
   22      O       6.1243171738     0.3634430741    -1.2521277189
   23      O       6.0984255906     0.5225237576     1.2244909088
   24      O       5.6307800968    -1.6605468753     0.1142697014
   25      H      -4.1472167329    -2.3788266554     0.0061228735
   26      H      -1.7331584085    -3.0012185817    -0.0125522641
   27      H       3.0302598331    -1.7661501935     0.0106221434
   28      H       4.1512753071     2.3959464768    -0.0869452484
   29      H       1.7459394117     3.0167439674    -0.0702257661
   30      H      -3.0303792784     1.7801226118     0.0094564361
 ----------------------------------------------------------------

   11   -1935.3266643062      5.41e-06  Convergence criterion met
 Total energy in the final basis set =    -1935.3266643062
    5   -1936.1518874458      5.91e-06  Convergence criterion met
 Total energy in the final basis set =    -1936.1518874458

                    Orbital Energies (a.u.)
 --------------------------------------------------------------

 Alpha MOs
 -- Occupied --
-89.0393 -89.0392 -19.0860 -19.0855 -19.0837 -19.0837 -19.0835 -19.0834
-19.0292 -19.0288 -10.1852 -10.1846 -10.1803 -10.1802 -10.1616 -10.1611
-10.1582 -10.1577 -10.1535 -10.1531 -10.1486 -10.1485 -10.1451 -10.1447
 -8.0980  -8.0979  -6.0609  -6.0608  -6.0608  -6.0607  -6.0594  -6.0593
 -1.0961  -1.0959  -0.9627  -0.9623  -0.9582  -0.9573  -0.9471  -0.9436
 -0.8380  -0.8326  -0.7666  -0.7361  -0.7325  -0.7226  -0.6513  -0.6471
 -0.6072  -0.6033  -0.5640  -0.5588  -0.5322  -0.5098  -0.5051  -0.4808
 -0.4566  -0.4505  -0.4469  -0.4467  -0.4446  -0.4398  -0.4333  -0.4102
 -0.4086  -0.4033  -0.3880  -0.3832  -0.3807  -0.3697  -0.3536  -0.3446
 -0.3336  -0.3331  -0.3302  -0.3278  -0.3276  -0.3268  -0.3218  -0.3095
 -0.2909  -0.2879  -0.2877  -0.2850  -0.2827  -0.2821  -0.2501  -0.2500
 -0.2424  -0.2339  -0.2316  -0.2215  -0.2115  -0.2048  -0.1156

          Ground-State Mulliken Net Atomic Charges

     Atom                 Charge (a.u.)
  ----------------------------------------
      1 O                    -0.434776
      2 S                     0.852648
      3 O                    -0.433020
      4 O                    -0.468435
      5 C                    -0.829567
      6 C                    -0.639598
      7 C                    -0.245379
      8 C                     0.433256
      9 C                    -0.558523
     10 O                    -0.678030
     11 C                     0.201318
     12 C                     0.202476
     13 C                    -0.818969
     14 C                    -0.645166
     15 C                    -0.237189
     16 C                     0.420291
     17 C                    -0.565061
     18 O                    -0.674683
     19 C                     0.217271
     20 C                     0.216324
     21 S                     0.848512
     22 O                    -0.426028
     23 O                    -0.437496
     24 O                    -0.474828
     25 H                     0.227215
     26 H                     0.158857
     27 H                     0.202135
     28 H                     0.226863
     29 H                     0.159472
     30 H                     0.200103
  ----------------------------------------
  Sum of atomic charges =    -4.000007

                    Cartesian Multipole Moments
 -----------------------------------------------------------------
    Charge (ESU x 10^10)
               -19.2129
    Dipole Moment (Debye)
         X       0.0583      Y       0.1628      Z      -0.2277
       Tot       0.2859
    Quadrupole Moments (Debye-Ang)
        XX    -602.5297     XY      27.1102     YY    -228.7759
        XZ      -0.4956     YZ      -0.6942     ZZ    -184.9260

 Total job time:  103.02s(wall), 780.38s(cpu)
        *  Thank you very much for using Q-Chem.  Have a nice day.  *
