 Q-Chem 5.4, Q-Chem, Inc., Pleasanton, CA (2021)
 Q-Chem 5.4.0 for Intel X86 EM64T Linux

User input:
--------------------------------------------------------------
$molecule
-2 1
C                 -7.1707500000      4.0854400000      0.7848400000
C                 -8.1555520000      3.3957530000      0.1027260000
C                 -7.8228460000      2.6310280000     -1.0350380000
C                 -5.8243800000      4.0384010000      0.3595660000
C                 -5.4859590000      3.2651600000     -0.7907060000
C                 -6.5070600000      2.5734490000     -1.4657300000
C                 -4.7961860000      4.7609800000      1.0737670000
C                 -3.4518030000      4.6480770000      0.5614480000
C                 -3.0892230000      3.9155950000     -0.5510920000
C                 -4.0954400000      3.1776490000     -1.2828450000
O                 -4.9871150000      5.4836800000      2.1104160000
O                 -3.8100420000      2.4905730000     -2.3003110000
O                 -2.5344930000      5.3550020000      1.2863060000
C                 -1.6592830000      3.8576410000     -1.0243860000
C                 -0.8708220000      2.6576640000     -0.4630220000
C                  0.5735160000      2.5992800000     -0.9739940000
C                  1.3836440000      1.4186880000     -0.4241760000
C                  2.8281490000      1.3701010000     -0.9377370000
C                  3.6479290000      0.1946110000     -0.3912770000
C                  5.0900210000      0.1569160000     -0.9118940000
C                  5.9184480000     -1.0135960000     -0.3675790000
C                  7.3587210000     -1.0336340000     -0.8986310000
C                  8.1795420000     -2.2013780000     -0.3491500000
S                  9.8900750000     -2.1654910000     -1.0222080000
C                 10.5922900000     -3.6468920000     -0.1871460000
C                 12.0548560000     -3.8509630000     -0.5851640000
C                 12.6843120000     -5.0780460000      0.0897750000
C                 14.1518590000     -5.2949800000     -0.2998150000
C                 14.7905380000     -6.5180920000      0.3694890000
C                 16.2580450000     -6.7349830000     -0.0193490000
C                 16.8967230000     -7.9579940000      0.6505360000
C                 18.3641040000     -8.1759720000      0.2629980000
C                 19.0013760000     -9.3994660000      0.9340700000
C                 20.4667340000     -9.6166300000      0.5470180000
H                 -7.4016980000      4.6796670000      1.6620270000
H                 -9.1865270000      3.4415000000      0.4428120000
H                 -8.5966610000      2.0885560000     -1.5705440000
H                 -6.2218170000      1.9928910000     -2.3360140000
H                 -3.1000470000      5.7584960000      1.9822450000
H                 -1.1442550000      4.7828410000     -0.7448520000
H                 -1.6659620000      3.7842070000     -2.1167210000
H                 -1.3966190000      1.7370210000     -0.7381030000
H                 -0.8702180000      2.7107250000      0.6323230000
H                  1.0861230000      3.5365920000     -0.7167520000
H                  0.5640210000      2.5490850000     -2.0710950000
H                  0.8753920000      0.4807620000     -0.6834140000
H                  1.3915610000      1.4658360000      0.6728700000
H                  3.3333230000      2.3108190000     -0.6808360000
H                  2.8184820000      1.3226770000     -2.0348140000
H                  3.1456310000     -0.7472100000     -0.6482820000
H                  3.6604750000      0.2413560000      0.7056310000
H                  5.5899570000      1.1005530000     -0.6568780000
H                  5.0761780000      0.1087770000     -2.0086240000
H                  5.4231110000     -1.9588860000     -0.6241660000
H                  5.9361010000     -0.9662110000      0.7289050000
H                  7.8548340000     -0.0909450000     -0.6404430000
H                  7.3423220000     -1.0873020000     -1.9932980000
H                  7.7180540000     -3.1554370000     -0.6220910000
H                  8.2344180000     -2.1499940000      0.7426690000
H                  9.9946360000     -4.5197020000     -0.4682070000
H                 10.5069900000     -3.5078700000      0.8951720000
H                 12.6299450000     -2.9556490000     -0.3222730000
H                 12.1223640000     -3.9592790000     -1.6738000000
H                 12.1041400000     -5.9731700000     -0.1693320000
H                 12.6104660000     -4.9711750000      1.1797780000
H                 14.7304940000     -4.3985980000     -0.0409940000
H                 14.2243220000     -5.4010820000     -1.3901340000
H                 14.2116260000     -7.4146600000      0.1114420000
H                 14.7170580000     -6.4126550000      1.4599180000
H                 16.8371550000     -5.8383910000      0.2385580000
H                 16.3318730000     -6.8407670000     -1.1098160000
H                 16.3174770000     -8.8544330000      0.3926870000
H                 16.8224270000     -7.8521560000      1.7408950000
H                 18.9451180000     -7.2808650000      0.5207320000
H                 18.4404220000     -8.2829290000     -0.8269370000
H                 18.4206760000    -10.2945040000      0.6770430000
H                 18.9247180000     -9.2933110000      2.0236630000
H                 20.5765520000     -9.7672430000     -0.5330670000
H                 20.8893710000    -10.4969250000      1.0434210000
H                 21.0854900000     -8.7562020000      0.8265360000
$end
$rem
MAX_SCF_CYCLES=200
BASIS  =  6-311++G(d,p)
GUI  =  2
JOB_TYPE  =  SP
METHOD  =  B3LYP
SCF_CONVERGENCE = 8
SCF_ALGORITHM = RCA_DIIS
scf_guess = GWH
THRESH = 14
SOLVENT_METHOD = PCM
$end
$pcm
theory = CPCM
$end
$solvent
dielectric 37.219
opticaldielectric 1.43
$end

--------------------------------------------------------------

             Standard Nuclear Orientation (Angstroms)
    I     Atom           X                Y                Z
 ----------------------------------------------------------------
    1      C      -7.1707500000     4.0854400000     0.7848400000
    2      C      -8.1555520000     3.3957530000     0.1027260000
    3      C      -7.8228460000     2.6310280000    -1.0350380000
    4      C      -5.8243800000     4.0384010000     0.3595660000
    5      C      -5.4859590000     3.2651600000    -0.7907060000
    6      C      -6.5070600000     2.5734490000    -1.4657300000
    7      C      -4.7961860000     4.7609800000     1.0737670000
    8      C      -3.4518030000     4.6480770000     0.5614480000
    9      C      -3.0892230000     3.9155950000    -0.5510920000
   10      C      -4.0954400000     3.1776490000    -1.2828450000
   11      O      -4.9871150000     5.4836800000     2.1104160000
   12      O      -3.8100420000     2.4905730000    -2.3003110000
   13      O      -2.5344930000     5.3550020000     1.2863060000
   14      C      -1.6592830000     3.8576410000    -1.0243860000
   15      C      -0.8708220000     2.6576640000    -0.4630220000
   16      C       0.5735160000     2.5992800000    -0.9739940000
   17      C       1.3836440000     1.4186880000    -0.4241760000
   18      C       2.8281490000     1.3701010000    -0.9377370000
   19      C       3.6479290000     0.1946110000    -0.3912770000
   20      C       5.0900210000     0.1569160000    -0.9118940000
   21      C       5.9184480000    -1.0135960000    -0.3675790000
   22      C       7.3587210000    -1.0336340000    -0.8986310000
   23      C       8.1795420000    -2.2013780000    -0.3491500000
   24      S       9.8900750000    -2.1654910000    -1.0222080000
   25      C      10.5922900000    -3.6468920000    -0.1871460000
   26      C      12.0548560000    -3.8509630000    -0.5851640000
   27      C      12.6843120000    -5.0780460000     0.0897750000
   28      C      14.1518590000    -5.2949800000    -0.2998150000
   29      C      14.7905380000    -6.5180920000     0.3694890000
   30      C      16.2580450000    -6.7349830000    -0.0193490000
   31      C      16.8967230000    -7.9579940000     0.6505360000
   32      C      18.3641040000    -8.1759720000     0.2629980000
   33      C      19.0013760000    -9.3994660000     0.9340700000
   34      C      20.4667340000    -9.6166300000     0.5470180000
   35      H      -7.4016980000     4.6796670000     1.6620270000
   36      H      -9.1865270000     3.4415000000     0.4428120000
   37      H      -8.5966610000     2.0885560000    -1.5705440000
   38      H      -6.2218170000     1.9928910000    -2.3360140000
   39      H      -3.1000470000     5.7584960000     1.9822450000
   40      H      -1.1442550000     4.7828410000    -0.7448520000
   41      H      -1.6659620000     3.7842070000    -2.1167210000
   42      H      -1.3966190000     1.7370210000    -0.7381030000
   43      H      -0.8702180000     2.7107250000     0.6323230000
   44      H       1.0861230000     3.5365920000    -0.7167520000
   45      H       0.5640210000     2.5490850000    -2.0710950000
   46      H       0.8753920000     0.4807620000    -0.6834140000
   47      H       1.3915610000     1.4658360000     0.6728700000
   48      H       3.3333230000     2.3108190000    -0.6808360000
   49      H       2.8184820000     1.3226770000    -2.0348140000
   50      H       3.1456310000    -0.7472100000    -0.6482820000
   51      H       3.6604750000     0.2413560000     0.7056310000
   52      H       5.5899570000     1.1005530000    -0.6568780000
   53      H       5.0761780000     0.1087770000    -2.0086240000
   54      H       5.4231110000    -1.9588860000    -0.6241660000
   55      H       5.9361010000    -0.9662110000     0.7289050000
   56      H       7.8548340000    -0.0909450000    -0.6404430000
   57      H       7.3423220000    -1.0873020000    -1.9932980000
   58      H       7.7180540000    -3.1554370000    -0.6220910000
   59      H       8.2344180000    -2.1499940000     0.7426690000
   60      H       9.9946360000    -4.5197020000    -0.4682070000
   61      H      10.5069900000    -3.5078700000     0.8951720000
   62      H      12.6299450000    -2.9556490000    -0.3222730000
   63      H      12.1223640000    -3.9592790000    -1.6738000000
   64      H      12.1041400000    -5.9731700000    -0.1693320000
   65      H      12.6104660000    -4.9711750000     1.1797780000
   66      H      14.7304940000    -4.3985980000    -0.0409940000
   67      H      14.2243220000    -5.4010820000    -1.3901340000
   68      H      14.2116260000    -7.4146600000     0.1114420000
   69      H      14.7170580000    -6.4126550000     1.4599180000
   70      H      16.8371550000    -5.8383910000     0.2385580000
   71      H      16.3318730000    -6.8407670000    -1.1098160000
   72      H      16.3174770000    -8.8544330000     0.3926870000
   73      H      16.8224270000    -7.8521560000     1.7408950000
   74      H      18.9451180000    -7.2808650000     0.5207320000
   75      H      18.4404220000    -8.2829290000    -0.8269370000
   76      H      18.4206760000   -10.2945040000     0.6770430000
   77      H      18.9247180000    -9.2933110000     2.0236630000
   78      H      20.5765520000    -9.7672430000    -0.5330670000
   79      H      20.8893710000   -10.4969250000     1.0434210000
   80      H      21.0854900000    -8.7562020000     0.8265360000
 ----------------------------------------------------------------

   91   -1795.4762337779      6.67E-09 Convergence criterion met
 Total energy in the final basis set = -1795.47623378

                    Orbital Energies (a.u.)
 --------------------------------------------------------------

 Alpha MOs
 -- Occupied --
-88.8331 -19.1130 -19.0248 -19.0184 -10.1901 -10.1897 -10.1727 -10.1710
-10.1653 -10.1647 -10.1597 -10.1595 -10.1586 -10.1576 -10.1565 -10.1554
-10.1551 -10.1551 -10.1549 -10.1548 -10.1534 -10.1522 -10.1515 -10.1507
-10.1483 -10.1453 -10.1444 -10.1428 -10.1422 -10.1406 -10.1394 -10.1313
-10.1279 -10.1199  -7.9194  -5.8832  -5.8799  -5.8732  -1.0296  -0.9489
 -0.9406  -0.8239  -0.8192  -0.8085  -0.8017  -0.7940  -0.7828  -0.7731
 -0.7610  -0.7472  -0.7331  -0.7195  -0.7167  -0.7005  -0.6825  -0.6627
 -0.6419  -0.6254  -0.6138  -0.5975  -0.5854  -0.5789  -0.5775  -0.5750
 -0.5696  -0.5685  -0.5663  -0.5633  -0.5515  -0.5349  -0.5022  -0.4839
 -0.4808  -0.4719  -0.4705  -0.4661  -0.4521  -0.4488  -0.4407  -0.4363
 -0.4290  -0.4273  -0.4230  -0.4223  -0.4218  -0.4168  -0.4127  -0.4076
 -0.4005  -0.3991  -0.3938  -0.3924  -0.3907  -0.3832  -0.3811  -0.3755
 -0.3688  -0.3657  -0.3635  -0.3602  -0.3575  -0.3517  -0.3508  -0.3486
 -0.3437  -0.3399  -0.3372  -0.3362  -0.3309  -0.3284  -0.3258  -0.3232
 -0.3229  -0.3196  -0.3189  -0.3171  -0.3167  -0.3152  -0.3148  -0.3126
 -0.3105  -0.3087  -0.3065  -0.3025  -0.2997  -0.2946  -0.2871  -0.2285
 -0.2249  -0.2239  -0.2136  -0.1964  -0.1916  -0.1006

          Ground-State Mulliken Net Atomic Charges

     Atom                 Charge (a.u.)
  ----------------------------------------
      1 C                    -0.065776
      2 C                    -0.414480
      3 C                    -0.509446
      4 C                     0.405081
      5 C                    -0.076717
      6 C                     0.014128
      7 C                    -0.855092
      8 C                    -0.601982
      9 C                     1.817192
     10 C                    -0.675780
     11 O                    -0.742018
     12 O                    -0.662323
     13 O                    -0.346241
     14 C                    -0.344189
     15 C                    -0.712095
     16 C                    -0.252380
     17 C                    -0.142688
     18 C                    -0.087350
     19 C                    -0.278437
     20 C                    -0.107646
     21 C                    -0.348731
     22 C                    -0.189888
     23 C                    -0.832353
     24 S                    -0.427476
     25 C                    -0.727004
     26 C                    -0.008465
     27 C                     0.009007
     28 C                     0.010321
     29 C                     0.020455
     30 C                    -0.003800
     31 C                    -0.262610
     32 C                    -0.458343
     33 C                    -0.283527
     34 C                    -0.714280
     35 H                     0.142108
     36 H                     0.168524
     37 H                     0.161992
     38 H                     0.141685
     39 H                     0.287357
     40 H                     0.199849
     41 H                     0.171261
     42 H                     0.174832
     43 H                     0.159357
     44 H                     0.112379
     45 H                     0.116154
     46 H                     0.128499
     47 H                     0.129119
     48 H                     0.134556
     49 H                     0.135741
     50 H                     0.135543
     51 H                     0.135516
     52 H                     0.136443
     53 H                     0.136582
     54 H                     0.145266
     55 H                     0.145270
     56 H                     0.132594
     57 H                     0.133027
     58 H                     0.192862
     59 H                     0.192085
     60 H                     0.200358
     61 H                     0.200441
     62 H                     0.137791
     63 H                     0.137819
     64 H                     0.143601
     65 H                     0.143153
     66 H                     0.137541
     67 H                     0.137370
     68 H                     0.133538
     69 H                     0.133222
     70 H                     0.133038
     71 H                     0.132824
     72 H                     0.132603
     73 H                     0.132321
     74 H                     0.129394
     75 H                     0.129149
     76 H                     0.135536
     77 H                     0.135343
     78 H                     0.144784
     79 H                     0.151686
     80 H                     0.144817
  ----------------------------------------
  Sum of atomic charges =    -2.000000

                    Cartesian Multipole Moments
 -----------------------------------------------------------------
    Charge (ESU x 10^10)
                -9.6064
    Dipole Moment (Debye)
         X      42.4727      Y     -39.2634      Z       2.8619
       Tot      57.9114
    Quadrupole Moments (Debye-Ang)
        XX    -470.3379     XY     158.6385     YY    -389.0690
        XZ      18.7728     YZ     -18.2973     ZZ    -268.1866

 Total job time:  6550.39s(wall), 37434.86s(cpu)
        *  Thank you very much for using Q-Chem.  Have a nice day.  *
