 Gaussian 16, Revision A.03,
 Gaussian 16:  ES64L-G16RevA.03 25-Dec-2016

 --------------------------------------
 #P UB3LYP/6-311++G(d,p) nosym opt freq
 --------------------------------------

 -------
 Reduced
 -------
 Symbolic Z-matrix:
 Charge = -2 Multiplicity = 1

 SCF Done:  E(UB3LYP) =  -806.879357353     A.U. after   49 cycles
 SCF Done:  E(UB3LYP) =  -806.879953389     A.U. after   31 cycles
 SCF Done:  E(UB3LYP) =  -806.880238204     A.U. after   32 cycles
 SCF Done:  E(UB3LYP) =  -806.880427369     A.U. after   34 cycles
 SCF Done:  E(UB3LYP) =  -806.880617761     A.U. after   17 cycles
 SCF Done:  E(UB3LYP) =  -806.881055753     A.U. after   37 cycles
 SCF Done:  E(UB3LYP) =  -806.881444688     A.U. after   35 cycles
 SCF Done:  E(UB3LYP) =  -806.881984513     A.U. after   38 cycles
 SCF Done:  E(UB3LYP) =  -806.882147284     A.U. after   32 cycles
 SCF Done:  E(UB3LYP) =  -806.882413485     A.U. after   45 cycles
 SCF Done:  E(UB3LYP) =  -806.883008765     A.U. after   30 cycles
 SCF Done:  E(UB3LYP) =  -806.883114738     A.U. after   33 cycles
 SCF Done:  E(UB3LYP) =  -806.883185046     A.U. after   29 cycles
 SCF Done:  E(UB3LYP) =  -806.883216233     A.U. after   35 cycles
 SCF Done:  E(UB3LYP) =  -806.883226687     A.U. after   31 cycles
 SCF Done:  E(UB3LYP) =  -806.883230694     A.U. after   28 cycles
 SCF Done:  E(UB3LYP) =  -806.883231999     A.U. after   30 cycles
 SCF Done:  E(UB3LYP) =  -806.883232236     A.U. after   29 cycles
 SCF Done:  E(UB3LYP) =  -806.883232273     A.U. after   26 cycles
 Optimization completed.
    -- Stationary point found.
 Normal termination of Gaussian 16 at Wed Jan 17 14:07:41 2024.

 ----------------------------------------------------------------------
 #P Geom=AllCheck Guess=TCheck SCRF=Check GenChk UB3LYP/6-311++G(d,p) F
 req
 ----------------------------------------------------------------------

 Structure from the checkpoint file:  "107-an.chk"
 -------
 Reduced
 -------
 Charge = -2 Multiplicity = 1

                          Input orientation:
 ---------------------------------------------------------------------
 Center     Atomic      Atomic             Coordinates (Angstroms)
 Number     Number       Type             X           Y           Z
 ---------------------------------------------------------------------
      1          6           0       -0.548984   -2.041646    2.102262
      2          6           0        0.816594   -2.425623    1.951467
      3          6           0        1.844115   -1.514810    1.714800
      4          6           0        1.597708   -0.087737    1.695608
      5          6           0        0.235364    0.297575    1.883341
      6          6           0       -0.800771   -0.619308    2.046373
      7          8           0       -1.522208   -2.881240    2.296705
      8          8           0        2.577385    0.751472    1.554044
      9          7           0       -2.170521   -0.240812    2.254273
     10          7           0        3.229507   -1.887610    1.609897
     11          6           0       -2.963161    0.287133    1.105103
     12          6           0       -4.441020    0.190688    1.522429
     13          6           0       -2.616442    1.761756    0.843239
     14          6           0       -2.747346   -0.530587   -0.188092
     15          6           0        3.728068   -2.511406    0.361014
     16          6           0        3.226084   -3.960624    0.241196
     17          6           0        5.264589   -2.524910    0.466244
     18          6           0        3.303532   -1.714223   -0.894463
     19          1           0        1.036119   -3.486361    2.033230
     20          1           0        0.035463    1.363913    1.937506
     21          1           0       -2.599018   -1.134907    2.514389
     22          1           0        3.702179   -0.981619    1.693612
     23          1           0       -4.726659   -0.853302    1.690601
     24          1           0       -5.101070    0.600988    0.748602
     25          1           0       -4.608494    0.744715    2.451965
     26          1           0       -2.751161    2.349369    1.757062
     27          1           0       -3.262979    2.176081    0.058770
     28          1           0       -1.578414    1.864610    0.522329
     29          1           0       -2.961959   -1.587087   -0.004921
     30          1           0       -1.706181   -0.456845   -0.512132
     31          1           0       -3.394783   -0.166599   -0.997799
     32          1           0        2.140451   -3.987535    0.134994
     33          1           0        3.495304   -4.527944    1.137587
     34          1           0        3.674391   -4.449532   -0.632979
     35          1           0        5.579980   -3.093013    1.347427
     36          1           0        5.653895   -1.505481    0.564795
     37          1           0        5.720862   -2.977422   -0.421787
     38          1           0        2.213029   -1.655578   -0.940884
     39          1           0        3.672847   -2.184698   -1.815338
     40          1           0        3.679784   -0.689341   -0.836300
 ---------------------------------------------------------------------

 SCF Done:  E(UB3LYP) =  -806.883232273     A.U. after   13 cycles

 Alpha  occ. eigenvalues --  -18.78960 -18.78833 -14.06031 -14.05760  -9.99994
 Alpha  occ. eigenvalues --   -9.99628  -9.96401  -9.96041  -9.95486  -9.95110
 Alpha  occ. eigenvalues --   -9.94710  -9.94220  -9.94077  -9.93824  -9.92669
 Alpha  occ. eigenvalues --   -9.92485  -9.89149  -9.89105  -0.70923  -0.70344
 Alpha  occ. eigenvalues --   -0.67168  -0.66742  -0.57414  -0.56746  -0.52513
 Alpha  occ. eigenvalues --   -0.49093  -0.48684  -0.48078  -0.47621  -0.45203
 Alpha  occ. eigenvalues --   -0.40680  -0.36155  -0.33219  -0.31893  -0.29573
 Alpha  occ. eigenvalues --   -0.26547  -0.25381  -0.25098  -0.24094  -0.23734
 Alpha  occ. eigenvalues --   -0.23160  -0.21585  -0.20384  -0.19820  -0.19091
 Alpha  occ. eigenvalues --   -0.18827  -0.18176  -0.17352  -0.17014  -0.16305
 Alpha  occ. eigenvalues --   -0.16034  -0.15258  -0.14488  -0.13599  -0.13333
 Alpha  occ. eigenvalues --   -0.13048  -0.12085  -0.11811  -0.11672  -0.10436
 Alpha  occ. eigenvalues --   -0.08547  -0.07645  -0.03699  -0.01936   0.02411
 Alpha  occ. eigenvalues --    0.03070   0.03626   0.04615   0.12530
 Alpha virt. eigenvalues --    0.13829   0.14102   0.16082   0.16358   0.16864
 Alpha virt. eigenvalues --    0.17035   0.17802   0.18421   0.19270   0.19723
 Alpha virt. eigenvalues --    0.19942   0.20188   0.21002   0.21034   0.22100

  Beta  occ. eigenvalues --  -18.78960 -18.78833 -14.06031 -14.05760  -9.99994
  Beta  occ. eigenvalues --   -9.99628  -9.96401  -9.96041  -9.95486  -9.95110
  Beta  occ. eigenvalues --   -9.94710  -9.94220  -9.94077  -9.93824  -9.92669
  Beta  occ. eigenvalues --   -9.92485  -9.89149  -9.89105  -0.70923  -0.70344
  Beta  occ. eigenvalues --   -0.67168  -0.66742  -0.57414  -0.56746  -0.52513
  Beta  occ. eigenvalues --   -0.49093  -0.48684  -0.48078  -0.47621  -0.45203
  Beta  occ. eigenvalues --   -0.40680  -0.36155  -0.33219  -0.31893  -0.29573
  Beta  occ. eigenvalues --   -0.26547  -0.25381  -0.25098  -0.24094  -0.23734
  Beta  occ. eigenvalues --   -0.23160  -0.21585  -0.20384  -0.19820  -0.19091
  Beta  occ. eigenvalues --   -0.18827  -0.18176  -0.17352  -0.17014  -0.16305
  Beta  occ. eigenvalues --   -0.16034  -0.15258  -0.14488  -0.13599  -0.13333
  Beta  occ. eigenvalues --   -0.13048  -0.12085  -0.11811  -0.11672  -0.10436
  Beta  occ. eigenvalues --   -0.08547  -0.07645  -0.03699  -0.01936   0.02411
  Beta  occ. eigenvalues --    0.03070   0.03626   0.04615   0.12530
  Beta virt. eigenvalues --    0.13829   0.14102   0.16082   0.16358   0.16864
  Beta virt. eigenvalues --    0.17035   0.17802   0.18421   0.19270   0.19723
  Beta virt. eigenvalues --    0.19942   0.20188   0.21002   0.21034   0.22100

 Mulliken charges and spin densities:
               1          2
     1  C   -0.558787   0.000000
     2  C   -0.029524   0.000000
     3  C    0.159663  -0.000000
     4  C   -0.578259  -0.000000
     5  C    0.048145   0.000000
     6  C    0.222067   0.000000
     7  O   -0.531478   0.000000
     8  O   -0.529516   0.000000
     9  N    0.171387  -0.000000
    10  N    0.218969  -0.000000
    11  C   -0.342321   0.000000
    12  C   -0.052739   0.000000
    13  C   -0.246247  -0.000000
    14  C   -0.179078  -0.000000
    15  C   -0.758026   0.000000
    16  C   -0.340495  -0.000000
    17  C    0.429246  -0.000000
    18  C   -0.355785  -0.000000
    19  H    0.129717   0.000000
    20  H    0.121969   0.000000
    21  H    0.252892  -0.000000
    22  H    0.176673   0.000000
    23  H    0.041507   0.000000
    24  H   -0.297317  -0.000000
    25  H    0.096369  -0.000000
    26  H    0.122701   0.000000
    27  H   -0.043583  -0.000000
    28  H    0.092190  -0.000000
    29  H    0.140046  -0.000000
    30  H    0.111134  -0.000000
    31  H   -0.096842  -0.000000
    32  H    0.107181   0.000000
    33  H    0.076825  -0.000000
    34  H    0.066195  -0.000000
    35  H   -0.150853   0.000000
    36  H    0.029427   0.000000
    37  H   -0.134939   0.000000
    38  H    0.168529   0.000000
    39  H    0.056311   0.000000
    40  H    0.186647  -0.000000
 Sum of Mulliken charges =  -2.00000   0.00000

 Dipole moment (field-independent basis, Debye):
    X=             -2.9855    Y=              9.7434    Z=            -14.5344  Tot=             17.7510
 Quadrupole moment (field-independent basis, Debye-Ang):
   XX=           -238.9614   YY=           -178.7358   ZZ=           -166.7799
   XY=             17.4001   XZ=             -5.2042   YZ=             19.4040

  Exact polarizability:7981.557********1826.699-378.647 153.017 860.533
 Approx polarizability:7223.650********1627.483 455.257-169.6861219.899

                      1                      2                      3
                      A                      A                      A
 Frequencies --     25.4217                35.9926                36.6775
 Red. masses --      3.0311                 3.3260                 3.2991
 Frc consts  --      0.0012                 0.0025                 0.0026
 IR Inten    --      2.1214                 5.4629                 2.2201

                      4                      5                      6
                      A                      A                      A
 Frequencies --     61.1073                83.6388               100.8314
 Red. masses --      3.7198                 3.5435                 4.3543
 Frc consts  --      0.0082                 0.0146                 0.0261
 IR Inten    --    109.1756                41.1443                36.0025

                      7                      8                      9
                      A                      A                      A
 Frequencies --    129.2432               194.0296               201.0142
 Red. masses --      7.8551                 1.0749                 1.0615
 Frc consts  --      0.0773                 0.0238                 0.0253
 IR Inten    --     10.8533                 5.2728                36.1931

                     10                     11                     12
                      A                      A                      A
 Frequencies --    225.8142               239.6027               244.7899
 Red. masses --      4.1546                 1.6610                 2.4465
 Frc consts  --      0.1248                 0.0562                 0.0864
 IR Inten    --     27.8479               138.3749                 8.0274

                     13                     14                     15
                      A                      A                      A
 Frequencies --    251.1640               258.3400               267.2605
 Red. masses --      1.3363                 1.3627                 2.4979
 Frc consts  --      0.0497                 0.0536                 0.1051
 IR Inten    --      6.8825                 1.2055                 9.4985

                     16                     17                     18
                      A                      A                      A
 Frequencies --    268.8631               279.9137               285.6240
 Red. masses --      1.6217                 1.9505                 1.3365
 Frc consts  --      0.0691                 0.0900                 0.0642
 IR Inten    --     21.2196                 3.8714                 9.6323

                     19                     20                     21
                      A                      A                      A
 Frequencies --    300.9971               355.1525               358.7727
 Red. masses --      2.2127                 2.5223                 2.6268
 Frc consts  --      0.1181                 0.1874                 0.1992
 IR Inten    --    311.5191               116.2118                11.7279

                     22                     23                     24
                      A                      A                      A
 Frequencies --    373.1428               380.9404               410.2805
 Red. masses --      3.1664                 2.4937                 3.6069
 Frc consts  --      0.2598                 0.2132                 0.3577
 IR Inten    --     20.3171                 0.7337               168.4848

                     25                     26                     27
                      A                      A                      A
 Frequencies --    428.5919               433.5801               440.4085
 Red. masses --      3.3720                 2.9960                 3.3088
 Frc consts  --      0.3649                 0.3318                 0.3781
 IR Inten    --      7.4852               432.6758                95.3320

                     28                     29                     30
                      A                      A                      A
 Frequencies --    456.6463               461.0139               479.8542
 Red. masses --      2.9686                 2.4828                 3.5191
 Frc consts  --      0.3647                 0.3109                 0.4774
 IR Inten    --     26.2075                25.7257                88.6578

                     31                     32                     33
                      A                      A                      A
 Frequencies --    530.6242               589.5222               644.1900
 Red. masses --      4.0021                 4.8723                 4.0101
 Frc consts  --      0.6639                 0.9977                 0.9805
 IR Inten    --    119.7567               306.9253                30.3547

                     34                     35                     36
                      A                      A                      A
 Frequencies --    692.2041               698.0033               749.6149
 Red. masses --      4.4484                 4.8572                 2.4316
 Frc consts  --      1.2558                 1.3943                 0.8050
 IR Inten    --     32.5086               264.8079                71.5157

                     37                     38                     39
                      A                      A                      A
 Frequencies --    760.6602               766.1209               773.7105
 Red. masses --      4.1567                 4.3422                 7.4404
 Frc consts  --      1.4170                 1.5016                 2.6242
 IR Inten    --     11.1766                24.2004                31.8437

                     40                     41                     42
                      A                      A                      A
 Frequencies --    830.3353               838.0429               847.5667
 Red. masses --      1.9278                 2.7316                 1.6195
 Frc consts  --      0.7831                 1.1303                 0.6854
 IR Inten    --    217.0176               231.1053               373.7541

                     43                     44                     45
                      A                      A                      A
 Frequencies --    871.2037               899.2710               904.4665
 Red. masses --      2.1892                 1.8013                 1.7639
 Frc consts  --      0.9790                 0.8583                 0.8502
 IR Inten    --   1075.6615               217.6248                 7.4461

                     46                     47                     48
                      A                      A                      A
 Frequencies --    913.4991               914.7966               933.9128
 Red. masses --      1.8075                 1.7850                 2.4638
 Frc consts  --      0.8887                 0.8801                 1.2661
 IR Inten    --    209.4190                 7.4613               120.3978

                     49                     50                     51
                      A                      A                      A
 Frequencies --    952.6552               954.4006               977.6167
 Red. masses --      1.2046                 1.2014                 1.3656
 Frc consts  --      0.6441                 0.6448                 0.7690
 IR Inten    --      5.2428                 3.2021               184.8866

                     52                     53                     54
                      A                      A                      A
 Frequencies --    985.0132              1042.6713              1043.8972
 Red. masses --      1.3357                 1.4264                 1.4255
 Frc consts  --      0.7636                 0.9137                 0.9153
 IR Inten    --     36.8170                 8.0219                85.5937

                     55                     56                     57
                      A                      A                      A
 Frequencies --   1052.4755              1054.5901              1137.2080
 Red. masses --      1.4156                 1.4315                 7.8490
 Frc consts  --      0.9239                 0.9380                 5.9806
 IR Inten    --     14.3112                13.1617               197.2030

                     58                     59                     60
                      A                      A                      A
 Frequencies --   1144.9300              1191.2065              1207.9257
 Red. masses --      3.8651                 6.7874                 1.6019
 Frc consts  --      2.9852                 5.6745                 1.3771
 IR Inten    --   2487.7835                94.6172               101.8184

                     61                     62                     63
                      A                      A                      A
 Frequencies --   1211.3964              1214.5767              1222.5913
 Red. masses --      2.3391                 2.0728                 2.3779
 Frc consts  --      2.0224                 1.8016                 2.0941
 IR Inten    --    105.5040               261.0962               168.0215

                     64                     65                     66
                      A                      A                      A
 Frequencies --   1233.7509              1238.3472              1250.1999
 Red. masses --      2.8154                 2.7699                 2.4325
 Frc consts  --      2.5249                 2.5026                 2.2401
 IR Inten    --    199.6684               634.0256               167.5688

                     67                     68                     69
                      A                      A                      A
 Frequencies --   1291.3111              1335.3255              1368.2199
 Red. masses --      2.5687                 5.0203                 1.2809
 Frc consts  --      2.5237                 5.2742                 1.4128
 IR Inten    --    301.5616              3820.6461              4012.5532

                     70                     71                     72
                      A                      A                      A
 Frequencies --   1372.7616              1376.6947              1377.9463
 Red. masses --      1.3094                 1.2416                 1.2427
 Frc consts  --      1.4539                 1.3865                 1.3902
 IR Inten    --    434.8405                38.9525                 5.1773

                     73                     74                     75
                      A                      A                      A
 Frequencies --   1401.1229              1404.1204              1425.2244
 Red. masses --      1.2445                 1.2688                 3.3777
 Frc consts  --      1.4395                 1.4738                 4.0423
 IR Inten    --   1777.4269                25.1851               576.8782

                     76                     77                     78
                      A                      A                      A
 Frequencies --   1441.9585              1460.6468              1461.8029
 Red. masses --      7.0446                 1.0646                 1.0596
 Frc consts  --      8.6300                 1.3382                 1.3340
 IR Inten    --    337.7865                23.3878                13.1241

                     79                     80                     81
                      A                      A                      A
 Frequencies --   1469.7910              1477.3925              1478.9486
 Red. masses --      1.4844                 1.0630                 1.1075
 Frc consts  --      1.8894                 1.3670                 1.4272
 IR Inten    --    406.0481               261.5179               929.0179

                     82                     83                     84
                      A                      A                      A
 Frequencies --   1484.9506              1485.8220              1487.5198
 Red. masses --      1.0662                 1.0845                 1.0912
 Frc consts  --      1.3853                 1.4106                 1.4225
 IR Inten    --     47.6524               364.6088                51.7532

                     85                     86                     87
                      A                      A                      A
 Frequencies --   1490.8646              1492.8055              1496.2888
 Red. masses --      1.1555                 1.0946                 1.3144
 Frc consts  --      1.5133                 1.4372                 1.7338
 IR Inten    --     30.1227                66.5884               283.3701

                     88                     89                     90
                      A                      A                      A
 Frequencies --   1514.7560              1515.8109              1567.2110
 Red. masses --      1.0612                 1.0601                 1.6023
 Frc consts  --      1.4346                 1.4351                 2.3188
 IR Inten    --    258.0095               484.0911               238.7331

                     91                     92                     93
                      A                      A                      A
 Frequencies --   1569.6353              1599.9690              2980.2345
 Red. masses --      1.3387                 3.5371                 1.0463
 Frc consts  --      1.9432                 5.3349                 5.4752
 IR Inten    --    511.9365              1165.2040                32.6734

                     94                     95                     96
                      A                      A                      A
 Frequencies --   2985.9387              2989.2642              2992.5914
 Red. masses --      1.0454                 1.0390                 1.0373
 Frc consts  --      5.4916                 5.4702                 5.4731
 IR Inten    --    264.9451                12.6808                53.5309

                     97                     98                     99
                      A                      A                      A
 Frequencies --   2997.3834              2999.9958              3051.9542
 Red. masses --      1.0404                 1.0415                 1.0979
 Frc consts  --      5.5071                 5.5227                 6.0250
 IR Inten    --     59.0463              1666.6800                36.3167

                    100                    101                    102
                      A                      A                      A
 Frequencies --   3053.6741              3056.5368              3058.2336
 Red. masses --      1.0994                 1.0951                 1.0958
 Frc consts  --      6.0401                 6.0279                 6.0383
 IR Inten    --    596.7905               363.9998               418.5555

                    103                    104                    105
                      A                      A                      A
 Frequencies --   3064.8354              3065.3414              3067.8443
 Red. masses --      1.0898                 1.0934                 1.0935
 Frc consts  --      6.0314                 6.0530                 6.0634
 IR Inten    --   1391.2766               168.0837               535.9021

                    106                    107                    108
                      A                      A                      A
 Frequencies --   3068.0559              3093.4979              3093.9926
 Red. masses --      1.1006                 1.1020                 1.1022
 Frc consts  --      6.1038                 6.2134                 6.2165
 IR Inten    --     15.5930                63.8678                12.0168

                    109                    110                    111
                      A                      A                      A
 Frequencies --   3101.4134              3104.9301              3140.5079
 Red. masses --      1.0979                 1.0983                 1.0873
 Frc consts  --      6.2223                 6.2383                 6.3185
 IR Inten    --    147.0227               330.6361               134.3158

                    112                    113                    114
                      A                      A                      A
 Frequencies --   3142.4332              3363.6432              3368.4263
 Red. masses --      1.0880                 1.0713                 1.0715
 Frc consts  --      6.3301                 7.1411                 7.1628
 IR Inten    --    111.7360               344.1849               213.3516

 - Thermochemistry -
 -------------------
 Temperature   298.150 Kelvin.  Pressure   1.00000 Atm.
 Atom     1 has atomic number  6 and mass  12.00000

 Molecular mass:   250.16813 amu.
 Principal axes and moments of inertia in atomic units:
                           1         2         3
     Eigenvalues --  2088.753298514.234899192.07589
           X            0.93692   0.32219   0.13551
           Y           -0.33248   0.94113   0.06109
           Z           -0.10785  -0.10229   0.98889
 This molecule is an asymmetric top.
 Rotational symmetry number  1.
 Warning -- assumption of classical behavior for rotation
           may cause significant error
 Rotational temperatures (Kelvin)      0.04147     0.01017     0.00942
 Rotational constants (GHZ):           0.86403     0.21197     0.19634
 Zero-point vibrational energy     885425.2 (Joules/Mol)
                                  211.62170 (Kcal/Mol)
 Warning -- explicit consideration of  32 degrees of freedom as
           vibrations may cause significant error
 Vibrational temperatures:     36.58    51.79    52.77    87.92   120.34
          (Kelvin)            145.07   185.95   279.17   289.21   324.90
                              344.73   352.20   361.37   371.69   384.53
                              386.83   402.73   410.95   433.07   510.99
                              516.19   536.87   548.09   590.30   616.65
                              623.83   633.65   657.01   663.30   690.40
                              763.45   848.19   926.85   995.93  1004.27
                             1078.53  1094.42  1102.28  1113.20  1194.67
                             1205.76  1219.46  1253.47  1293.85  1301.33
                             1314.32  1316.19  1343.69  1370.66  1373.17
                             1406.57  1417.21  1500.17  1501.94  1514.28
                             1517.32  1636.19  1647.30  1713.88  1737.94
                             1742.93  1747.51  1759.04  1775.09  1781.71
                             1798.76  1857.91  1921.24  1968.56  1975.10
                             1980.76  1982.56  2015.90  2020.22  2050.58
                             2074.66  2101.54  2103.21  2114.70  2125.64
                             2127.88  2136.51  2137.77  2140.21  2145.02
                             2147.81  2152.83  2179.40  2180.91  2254.87
                             2258.36  2302.00  4287.89  4296.10  4300.88
                             4305.67  4312.57  4316.32  4391.08  4393.56
                             4397.67  4400.12  4409.61  4410.34  4413.94
                             4414.25  4450.85  4451.57  4462.24  4467.30
                             4518.49  4521.26  4839.53  4846.41

 Zero-point correction=                           0.337241 (Hartree/Particle)
 Thermal correction to Energy=                    0.357000
 Thermal correction to Enthalpy=                  0.357944
 Thermal correction to Gibbs Free Energy=         0.289321
 Sum of electronic and zero-point Energies=           -806.545992
 Sum of electronic and thermal Energies=              -806.526232
 Sum of electronic and thermal Enthalpies=            -806.525288
 Sum of electronic and thermal Free Energies=         -806.593911

                     E (Thermal)             CV                S
                      KCal/Mol        Cal/Mol-Kelvin    Cal/Mol-Kelvin
 Total                  224.021             76.353            144.430
 Electronic               0.000              0.000              0.000
 Translational            0.889              2.981             42.451
 Rotational               0.889              2.981             33.458
 Vibrational            222.243             70.392             68.521
 Vibration     1          0.593              1.985              6.158
 Vibration     2          0.594              1.982              5.468
 Vibration     3          0.594              1.982              5.431
 Vibration     4          0.597              1.973              4.421
 Vibration     5          0.601              1.960              3.804
 Vibration     6          0.604              1.948              3.438
 Vibration     7          0.612              1.924              2.957
 Vibration     8          0.635              1.848              2.189
 Vibration     9          0.638              1.838              2.124
 Vibration    10          0.650              1.802              1.912
 Vibration    11          0.657              1.780              1.806
 Vibration    12          0.660              1.771              1.768
 Vibration    13          0.663              1.761              1.722
 Vibration    14          0.667              1.749              1.673
 Vibration    15          0.672              1.733              1.614
 Vibration    16          0.673              1.730              1.604
 Vibration    17          0.680              1.711              1.534
 Vibration    18          0.683              1.700              1.500
 Vibration    19          0.693              1.672              1.411
 Vibration    20          0.731              1.565              1.143
 Vibration    21          0.734              1.557              1.127
 Vibration    22          0.745              1.527              1.067
 Vibration    23          0.751              1.511              1.035
 Vibration    24          0.774              1.448              0.926
 Vibration    25          0.790              1.408              0.863
 Vibration    26          0.794              1.397              0.847
 Vibration    27          0.800              1.382              0.825
 Vibration    28          0.815              1.346              0.776
 Vibration    29          0.819              1.337              0.763
 Vibration    30          0.836              1.295              0.710
 Vibration    31          0.886              1.182              0.586
 Vibration    32          0.947              1.054              0.468

 Optimization completed.
    -- Stationary point found.
 Normal termination of Gaussian 16 at Wed Jan 17 16:31:39 2024.
