 Q-Chem 5.4, Q-Chem, Inc., Pleasanton, CA (2021)
 Q-Chem 5.4.0 for Intel X86 EM64T Linux

User input:
--------------------------------------------------------------
$molecule
-2 1
C                 -0.5489840000     -2.0416460000      2.1022620000
C                  0.8165940000     -2.4256230000      1.9514670000
C                  1.8441150000     -1.5148100000      1.7148000000
C                  1.5977080000     -0.0877370000      1.6956080000
C                  0.2353640000      0.2975750000      1.8833410000
C                 -0.8007710000     -0.6193080000      2.0463730000
O                 -1.5222080000     -2.8812400000      2.2967050000
O                  2.5773850000      0.7514720000      1.5540440000
N                 -2.1705210000     -0.2408120000      2.2542730000
N                  3.2295070000     -1.8876100000      1.6098970000
C                 -2.9631610000      0.2871330000      1.1051030000
C                 -4.4410200000      0.1906880000      1.5224290000
C                 -2.6164420000      1.7617560000      0.8432390000
C                 -2.7473460000     -0.5305870000     -0.1880920000
C                  3.7280680000     -2.5114060000      0.3610140000
C                  3.2260840000     -3.9606240000      0.2411960000
C                  5.2645890000     -2.5249100000      0.4662440000
C                  3.3035320000     -1.7142230000     -0.8944630000
H                  1.0361190000     -3.4863610000      2.0332300000
H                  0.0354630000      1.3639130000      1.9375060000
H                 -2.5990180000     -1.1349070000      2.5143890000
H                  3.7021790000     -0.9816190000      1.6936120000
H                 -4.7266590000     -0.8533020000      1.6906010000
H                 -5.1010700000      0.6009880000      0.7486020000
H                 -4.6084940000      0.7447150000      2.4519650000
H                 -2.7511610000      2.3493690000      1.7570620000
H                 -3.2629790000      2.1760810000      0.0587700000
H                 -1.5784140000      1.8646100000      0.5223290000
H                 -2.9619590000     -1.5870870000     -0.0049210000
H                 -1.7061810000     -0.4568450000     -0.5121320000
H                 -3.3947830000     -0.1665990000     -0.9977990000
H                  2.1404510000     -3.9875350000      0.1349940000
H                  3.4953040000     -4.5279440000      1.1375870000
H                  3.6743910000     -4.4495320000     -0.6329790000
H                  5.5799800000     -3.0930130000      1.3474270000
H                  5.6538950000     -1.5054810000      0.5647950000
H                  5.7208620000     -2.9774220000     -0.4217870000
H                  2.2130290000     -1.6555780000     -0.9408840000
H                  3.6728470000     -2.1846980000     -1.8153380000
H                  3.6797840000     -0.6893410000     -0.8363000000
$end
$rem
MAX_SCF_CYCLES=200
BASIS  =  6-311++G(d,p)
GUI  =  2
JOB_TYPE  =  SP
METHOD  =  B3LYP
SOLVENT_METHOD = PCM
$end
$pcm
theory = CPCM
$end
$solvent
dielectric 37.219
opticaldielectric 1.43
$end

--------------------------------------------------------------

             Standard Nuclear Orientation (Angstroms)
    I     Atom           X                Y                Z
 ----------------------------------------------------------------
    1      C      -0.5489840000    -2.0416460000     2.1022620000
    2      C       0.8165940000    -2.4256230000     1.9514670000
    3      C       1.8441150000    -1.5148100000     1.7148000000
    4      C       1.5977080000    -0.0877370000     1.6956080000
    5      C       0.2353640000     0.2975750000     1.8833410000
    6      C      -0.8007710000    -0.6193080000     2.0463730000
    7      O      -1.5222080000    -2.8812400000     2.2967050000
    8      O       2.5773850000     0.7514720000     1.5540440000
    9      N      -2.1705210000    -0.2408120000     2.2542730000
   10      N       3.2295070000    -1.8876100000     1.6098970000
   11      C      -2.9631610000     0.2871330000     1.1051030000
   12      C      -4.4410200000     0.1906880000     1.5224290000
   13      C      -2.6164420000     1.7617560000     0.8432390000
   14      C      -2.7473460000    -0.5305870000    -0.1880920000
   15      C       3.7280680000    -2.5114060000     0.3610140000
   16      C       3.2260840000    -3.9606240000     0.2411960000
   17      C       5.2645890000    -2.5249100000     0.4662440000
   18      C       3.3035320000    -1.7142230000    -0.8944630000
   19      H       1.0361190000    -3.4863610000     2.0332300000
   20      H       0.0354630000     1.3639130000     1.9375060000
   21      H      -2.5990180000    -1.1349070000     2.5143890000
   22      H       3.7021790000    -0.9816190000     1.6936120000
   23      H      -4.7266590000    -0.8533020000     1.6906010000
   24      H      -5.1010700000     0.6009880000     0.7486020000
   25      H      -4.6084940000     0.7447150000     2.4519650000
   26      H      -2.7511610000     2.3493690000     1.7570620000
   27      H      -3.2629790000     2.1760810000     0.0587700000
   28      H      -1.5784140000     1.8646100000     0.5223290000
   29      H      -2.9619590000    -1.5870870000    -0.0049210000
   30      H      -1.7061810000    -0.4568450000    -0.5121320000
   31      H      -3.3947830000    -0.1665990000    -0.9977990000
   32      H       2.1404510000    -3.9875350000     0.1349940000
   33      H       3.4953040000    -4.5279440000     1.1375870000
   34      H       3.6743910000    -4.4495320000    -0.6329790000
   35      H       5.5799800000    -3.0930130000     1.3474270000
   36      H       5.6538950000    -1.5054810000     0.5647950000
   37      H       5.7208620000    -2.9774220000    -0.4217870000
   38      H       2.2130290000    -1.6555780000    -0.9408840000
   39      H       3.6728470000    -2.1846980000    -1.8153380000
   40      H       3.6797840000    -0.6893410000    -0.8363000000
 ----------------------------------------------------------------

    9    -807.1615125648      5.24e-06  Convergence criterion met
 Total energy in the final basis set =     -807.1615125648

                    Orbital Energies (a.u.)
 --------------------------------------------------------------

 Alpha MOs
 -- Occupied --
-19.0155 -19.0154 -14.2720 -14.2712 -10.1922 -10.1916 -10.1606 -10.1600
-10.1442 -10.1440 -10.1438 -10.1438 -10.1402 -10.1400 -10.1392 -10.1384
-10.1134 -10.1130  -0.9354  -0.9309  -0.8812  -0.8799  -0.7796  -0.7657
 -0.7376  -0.6820  -0.6737  -0.6711  -0.6708  -0.6655  -0.6242  -0.5671
 -0.5351  -0.5314  -0.5049  -0.4680  -0.4514  -0.4509  -0.4399  -0.4293
 -0.4289  -0.4185  -0.4055  -0.3979  -0.3906  -0.3819  -0.3784  -0.3725
 -0.3664  -0.3592  -0.3567  -0.3524  -0.3507  -0.3498  -0.3444  -0.3345
 -0.3244  -0.3218  -0.3106  -0.3104  -0.3075  -0.3067  -0.2545  -0.2421
 -0.2030  -0.2021  -0.1952  -0.1760  -0.1085

          Ground-State Mulliken Net Atomic Charges

     Atom                 Charge (a.u.)
  ----------------------------------------
      1 C                    -0.221271
      2 C                    -0.193571
      3 C                    -0.071523
      4 C                    -0.273890
      5 C                    -0.192221
      6 C                     0.002109
      7 O                    -0.744904
      8 O                    -0.739276
      9 N                     0.021819
     10 N                     0.046724
     11 C                     0.078007
     12 C                    -0.506113
     13 C                    -0.595635
     14 C                    -0.518402
     15 C                     0.054043
     16 C                    -0.598491
     17 C                    -0.489034
     18 C                    -0.504549
     19 H                     0.153281
     20 H                     0.151253
     21 H                     0.237944
     22 H                     0.236442
     23 H                     0.152854
     24 H                     0.146958
     25 H                     0.144591
     26 H                     0.152094
     27 H                     0.141432
     28 H                     0.138167
     29 H                     0.151797
     30 H                     0.149200
     31 H                     0.159204
     32 H                     0.144342
     33 H                     0.150085
     34 H                     0.142010
     35 H                     0.145540
     36 H                     0.149202
     37 H                     0.147186
     38 H                     0.144928
     39 H                     0.155142
     40 H                     0.152524
  ----------------------------------------
  Sum of atomic charges =    -2.000000

                    Cartesian Multipole Moments
 -----------------------------------------------------------------
    Charge (ESU x 10^10)
                -9.6064
    Dipole Moment (Debye)
         X      -5.3424      Y      10.1813      Z     -20.6906
       Tot      23.6707
    Quadrupole Moments (Debye-Ang)
        XX    -161.8553     XY     -16.3289     YY    -163.7008
        XZ      -5.2398     YZ      26.4284     ZZ    -169.3837

 Total job time:  98.37s(wall), 589.94s(cpu)
        *  Thank you very much for using Q-Chem.  Have a nice day.  *
