 Gaussian 16, Revision A.03,
 Gaussian 16:  ES64L-G16RevA.03 25-Dec-2016

 ----------------------------------------------------------------------
 #P UB3LYP/6-311++G(d,p) nosym opt freq SCRF=(PCM,Solvent=n,n-DiMethylF
 ormamide)
 ----------------------------------------------------------------------

 --------
 Oxidized
 --------
 Symbolic Z-matrix:
 Charge =  0 Multiplicity = 1

 SCF Done:  E(UB3LYP) =  -1168.24281715     A.U. after   15 cycles
 SCF Done:  E(UB3LYP) =  -1168.24303499     A.U. after   12 cycles
 SCF Done:  E(UB3LYP) =  -1168.24307013     A.U. after   12 cycles
 SCF Done:  E(UB3LYP) =  -1168.24307874     A.U. after   11 cycles
 SCF Done:  E(UB3LYP) =  -1168.24308196     A.U. after   10 cycles
 SCF Done:  E(UB3LYP) =  -1168.24309057     A.U. after   10 cycles
 SCF Done:  E(UB3LYP) =  -1168.24309075     A.U. after    9 cycles
 SCF Done:  E(UB3LYP) =  -1168.24309082     A.U. after    8 cycles
 SCF Done:  E(UB3LYP) =  -1168.24309094     A.U. after    9 cycles
 SCF Done:  E(UB3LYP) =  -1168.24309116     A.U. after    9 cycles
 SCF Done:  E(UB3LYP) =  -1168.24309130     A.U. after    9 cycles
 SCF Done:  E(UB3LYP) =  -1168.24309154     A.U. after    9 cycles
 SCF Done:  E(UB3LYP) =  -1168.24309171     A.U. after    9 cycles
 Optimization completed.
    -- Stationary point found.
 Normal termination of Gaussian 16 at Sun Feb 11 00:42:05 2024.

 ----------------------------------------------------------------------
 #P Geom=AllCheck Guess=TCheck SCRF=Check GenChk UB3LYP/6-311++G(d,p) F
 req
 ----------------------------------------------------------------------

 Structure from the checkpoint file:  "230.chk"
 --------
 Oxidized
 --------
 Charge =  0 Multiplicity = 1

                          Input orientation:
 ---------------------------------------------------------------------
 Center     Atomic      Atomic             Coordinates (Angstroms)
 Number     Number       Type             X           Y           Z
 ---------------------------------------------------------------------
      1          6           0        5.938969   -5.166185    1.100927
      2          6           0        6.875450   -4.981735    0.084532
      3          6           0        6.674789   -4.002917   -0.890196
      4          6           0        4.793764   -4.373016    1.150267
      5          6           0        4.593573   -3.389987    0.170405
      6          6           0        5.534689   -3.206706   -0.847831
      7          6           0        3.798191   -4.584341    2.250620
      8          6           0        2.617834   -3.737757    2.268209
      9          6           0        2.365110   -2.762703    1.327351
     10          6           0        3.387401   -2.546415    0.209804
     11          8           0        4.000119   -5.453548    3.098875
     12          8           0        3.165980   -1.676500   -0.617055
     13          1           0        6.086027   -5.922088    1.861270
     14          1           0        7.763096   -5.602642    0.053109
     15          1           0        5.362100   -2.442730   -1.595122
     16         17           0        1.517083   -4.053762    3.606640
     17          1           0        7.404228   -3.862317   -1.678722
     18          7           0        1.334827   -1.918735    1.202040
     19          6           0        0.106900   -1.747578    1.987690
     20          6           0       -0.751968   -0.649456    1.361686
     21          6           0       -2.048964   -0.425045    2.142346
     22          1           0        1.439198   -1.306569    0.398204
     23          1           0        0.360407   -1.483535    3.016614
     24          1           0       -0.447551   -2.688004    2.012790
     25          1           0       -0.984829   -0.921170    0.326185
     26          1           0       -0.175524    0.281541    1.326297
     27          1           0       -2.657188   -1.333831    2.170419
     28          1           0       -2.647359    0.362824    1.679308
     29          1           0       -1.843692   -0.126074    3.174384
 ---------------------------------------------------------------------

 SCF Done:  E(UB3LYP) =  -1168.24309171     A.U. after    1 cycles

 Alpha  occ. eigenvalues -- -101.56114 -19.15078 -19.11988 -14.36558 -10.30102
 Alpha  occ. eigenvalues --  -10.27855 -10.26632 -10.24261 -10.21706 -10.21271
 Alpha  occ. eigenvalues --  -10.21217 -10.20295 -10.20149 -10.19883 -10.19831
 Alpha  occ. eigenvalues --  -10.17888 -10.16446  -9.47586  -7.24050  -7.23074
 Alpha  occ. eigenvalues --   -7.23021  -1.08798  -1.05359  -0.97477  -0.89485
 Alpha  occ. eigenvalues --   -0.87836  -0.82222  -0.79886  -0.78176  -0.75672
 Alpha  occ. eigenvalues --   -0.71186  -0.68470  -0.65195  -0.62794  -0.61763
 Alpha  occ. eigenvalues --   -0.59429  -0.56222  -0.54799  -0.52305  -0.49887
 Alpha  occ. eigenvalues --   -0.49409  -0.48877  -0.47082  -0.46472  -0.45459
 Alpha  occ. eigenvalues --   -0.45292  -0.44949  -0.43196  -0.42481  -0.42076
 Alpha  occ. eigenvalues --   -0.41664  -0.38971  -0.38677  -0.37485  -0.37240
 Alpha  occ. eigenvalues --   -0.36220  -0.35919  -0.34678  -0.33449  -0.32040
 Alpha  occ. eigenvalues --   -0.30371  -0.28901  -0.28091  -0.27874  -0.23325
 Alpha virt. eigenvalues --   -0.12347  -0.05708  -0.02624  -0.01136  -0.00168
 Alpha virt. eigenvalues --    0.00326   0.00958   0.01597   0.02029   0.02244
 Alpha virt. eigenvalues --    0.02418   0.02946   0.04039   0.04388   0.04623

  Beta  occ. eigenvalues -- -101.56114 -19.15078 -19.11988 -14.36558 -10.30102
  Beta  occ. eigenvalues --  -10.27855 -10.26632 -10.24261 -10.21706 -10.21271
  Beta  occ. eigenvalues --  -10.21217 -10.20295 -10.20149 -10.19883 -10.19831
  Beta  occ. eigenvalues --  -10.17888 -10.16446  -9.47586  -7.24050  -7.23074
  Beta  occ. eigenvalues --   -7.23021  -1.08798  -1.05359  -0.97477  -0.89485
  Beta  occ. eigenvalues --   -0.87836  -0.82222  -0.79886  -0.78176  -0.75672
  Beta  occ. eigenvalues --   -0.71186  -0.68470  -0.65195  -0.62794  -0.61763
  Beta  occ. eigenvalues --   -0.59429  -0.56222  -0.54799  -0.52305  -0.49887
  Beta  occ. eigenvalues --   -0.49409  -0.48877  -0.47082  -0.46472  -0.45459
  Beta  occ. eigenvalues --   -0.45292  -0.44949  -0.43196  -0.42481  -0.42076
  Beta  occ. eigenvalues --   -0.41664  -0.38971  -0.38677  -0.37485  -0.37240
  Beta  occ. eigenvalues --   -0.36220  -0.35919  -0.34678  -0.33449  -0.32040
  Beta  occ. eigenvalues --   -0.30371  -0.28901  -0.28091  -0.27874  -0.23325
  Beta virt. eigenvalues --   -0.12347  -0.05708  -0.02624  -0.01136  -0.00168
  Beta virt. eigenvalues --    0.00326   0.00958   0.01597   0.02029   0.02244
  Beta virt. eigenvalues --    0.02418   0.02946   0.04039   0.04388   0.04623

 Mulliken charges and spin densities:
               1          2
     1  C    0.094342  -0.000000
     2  C   -0.372188   0.000000
     3  C   -0.515340   0.000000
     4  C    0.315822   0.000000
     5  C    0.489560  -0.000000
     6  C    0.024994  -0.000000
     7  C   -0.588406  -0.000000
     8  C   -0.120271   0.000000
     9  C    0.068010   0.000000
    10  C   -0.359222   0.000000
    11  O   -0.309308   0.000000
    12  O   -0.262405  -0.000000
    13  H    0.196323  -0.000000
    14  H    0.205836  -0.000000
    15  H    0.196670  -0.000000
    16  Cl   0.494066  -0.000000
    17  H    0.207647   0.000000
    18  N   -0.060001  -0.000000
    19  C   -0.256804   0.000000
    20  C   -0.287604   0.000000
    21  C   -0.664694  -0.000000
    22  H    0.361034  -0.000000
    23  H    0.188328   0.000000
    24  H    0.191241   0.000000
    25  H    0.155939  -0.000000
    26  H    0.155168  -0.000000
    27  H    0.146241  -0.000000
    28  H    0.159356   0.000000
    29  H    0.145664  -0.000000
 Sum of Mulliken charges =  -0.00000   0.00000

 Dipole moment (field-independent basis, Debye):
    X=             -0.6490    Y=              3.6724    Z=             -3.9297  Tot=              5.4176
 Quadrupole moment (field-independent basis, Debye-Ang):
   XX=            -85.5015   YY=           -134.1844   ZZ=           -125.0026
   XY=              1.9559   XZ=            -21.8310   YZ=             29.6088

  Exact polarizability: 297.001 -80.761 248.999 -41.588 -64.159 247.546
 Approx polarizability: 313.611 -90.010 309.253 -26.425-100.241 299.449

                      1                      2                      3
                      A                      A                      A
 Frequencies --     12.7343                52.8191                63.3873
 Red. masses --      5.3214                10.6307                 1.5651
 Frc consts  --      0.0005                 0.0175                 0.0037
 IR Inten    --      1.1478                 6.2116                 0.4057

                      4                      5                      6
                      A                      A                      A
 Frequencies --     84.5614                86.6822               115.3488
 Red. masses --      4.1373                 4.1180                 5.0276
 Frc consts  --      0.0174                 0.0182                 0.0394
 IR Inten    --      0.6009                 3.2166                 0.0009

                      7                      8                      9
                      A                      A                      A
 Frequencies --    153.7333               173.6043               215.7704
 Red. masses --      3.7342                 5.0734                 8.3369
 Frc consts  --      0.0520                 0.0901                 0.2287
 IR Inten    --      0.1230                 2.3513                 0.9391

                     10                     11                     12
                      A                      A                      A
 Frequencies --    236.4844               240.9869               254.2240
 Red. masses --      1.1118                 4.7709                 4.6220
 Frc consts  --      0.0366                 0.1632                 0.1760
 IR Inten    --      0.2054                 5.5548                 0.0545

                     13                     14                     15
                      A                      A                      A
 Frequencies --    268.2212               304.2231               334.1740
 Red. masses --      7.1531                 7.8595                 8.2746
 Frc consts  --      0.3032                 0.4286                 0.5444
 IR Inten    --      0.0042                 1.6531                 2.6952

                     16                     17                     18
                      A                      A                      A
 Frequencies --    393.8956               421.0574               454.7573
 Red. masses --      8.9363                 3.4857                 4.9444
 Frc consts  --      0.8169                 0.3641                 0.6025
 IR Inten    --     32.6236                 0.0602                 6.7408

                     19                     20                     21
                      A                      A                      A
 Frequencies --    456.6365               462.9139               510.6783
 Red. masses --      7.3260                 4.9158                 8.3881
 Frc consts  --      0.9000                 0.6206                 1.2889
 IR Inten    --     24.5210                19.6376                 5.1917

                     22                     23                     24
                      A                      A                      A
 Frequencies --    554.4625               612.8214               625.1988
 Red. masses --      5.0834                 1.1804                 7.8932
 Frc consts  --      0.9208                 0.2612                 1.8178
 IR Inten    --     57.4518                62.6604                28.6836

                     25                     26                     27
                      A                      A                      A
 Frequencies --    677.9396               688.9841               727.5698
 Red. masses --      6.8370                 4.6989                 7.3633
 Frc consts  --      1.8514                 1.3142                 2.2965
 IR Inten    --      6.2192                24.1261                 2.0213

                     28                     29                     30
                      A                      A                      A
 Frequencies --    736.8512               764.6886               777.8900
 Red. masses --      2.3969                 1.0874                 5.0508
 Frc consts  --      0.7667                 0.3746                 1.8007
 IR Inten    --     81.0024                 3.9333                 1.8521

                     31                     32                     33
                      A                      A                      A
 Frequencies --    810.3134               813.0573               873.1618
 Red. masses --      2.2215                 8.4446                 5.3384
 Frc consts  --      0.8594                 3.2891                 2.3980
 IR Inten    --     22.4746               117.8302                13.2187

                     34                     35                     36
                      A                      A                      A
 Frequencies --    903.0692               910.4423               921.5055
 Red. masses --      1.1604                 1.3550                 2.0010
 Frc consts  --      0.5576                 0.6618                 1.0012
 IR Inten    --      2.1649                 0.0685                10.3648

                     37                     38                     39
                      A                      A                      A
 Frequencies --    997.7452              1002.2680              1021.1264
 Red. masses --      1.3841                 5.0179                 1.3300
 Frc consts  --      0.8118                 2.9699                 0.8171
 IR Inten    --      2.0800                47.2262                 0.1105

                     40                     41                     42
                      A                      A                      A
 Frequencies --   1040.9515              1055.3507              1083.7064
 Red. masses --      3.4351                 2.3093                 3.3638
 Frc consts  --      2.1930                 1.5154                 2.3276
 IR Inten    --     38.2593                 1.2082                72.9864

                     43                     44                     45
                      A                      A                      A
 Frequencies --   1110.3630              1138.2442              1164.3539
 Red. masses --      2.4959                 2.2652                 1.9922
 Frc consts  --      1.8130                 1.7292                 1.5913
 IR Inten    --      3.0671               104.4818                43.5567

                     46                     47                     48
                      A                      A                      A
 Frequencies --   1165.7036              1182.3933              1246.6095
 Red. masses --      1.9975                 1.1541                 2.1333
 Frc consts  --      1.5992                 0.9506                 1.9533
 IR Inten    --     41.1227                19.6151               148.1486

                     49                     50                     51
                      A                      A                      A
 Frequencies --   1262.4605              1275.0460              1303.5765
 Red. masses --      2.9254                 1.2075                 2.8362
 Frc consts  --      2.7471                 1.1566                 2.8396
 IR Inten    --    377.5920                 0.9176               402.4148

                     52                     53                     54
                      A                      A                      A
 Frequencies --   1326.2319              1330.8735              1341.2765
 Red. masses --      3.5788                 1.0735                 1.4212
 Frc consts  --      3.7088                 1.1202                 1.5064
 IR Inten    --    165.2016                 0.6657                20.9471

                     55                     56                     57
                      A                      A                      A
 Frequencies --   1365.5760              1403.8216              1410.5566
 Red. masses --      7.2519                 1.4737                 1.2385
 Frc consts  --      7.9677                 1.7111                 1.4519
 IR Inten    --     84.0186                34.0815                11.0984

                     58                     59                     60
                      A                      A                      A
 Frequencies --   1481.4275              1482.3969              1490.3068
 Red. masses --      2.2093                 1.0840                 1.0386
 Frc consts  --      2.8567                 1.4035                 1.3591
 IR Inten    --     21.6809                32.0719                11.8181

                     61                     62                     63
                      A                      A                      A
 Frequencies --   1495.6253              1506.6831              1512.4644
 Red. masses --      1.0902                 2.4446                 1.1314
 Frc consts  --      1.4369                 3.2697                 1.5249
 IR Inten    --     56.3742                55.0843                59.1327

                     64                     65                     66
                      A                      A                      A
 Frequencies --   1555.1215              1584.5931              1620.3218
 Red. masses --      1.7467                 5.8069                 5.7231
 Frc consts  --      2.4889                 8.5908                 8.8529
 IR Inten    --    936.6634              1265.0757               125.7936

                     67                     68                     69
                      A                      A                      A
 Frequencies --   1626.1377              1663.8672              1711.3614
 Red. masses --      7.3126                11.7942                10.5545
 Frc consts  --     11.3930                19.2378                18.2126
 IR Inten    --    180.7654               102.4447               378.6191

                     70                     71                     72
                      A                      A                      A
 Frequencies --   3017.2344              3024.3788              3046.5561
 Red. masses --      1.0588                 1.0357                 1.1032
 Frc consts  --      5.6794                 5.5817                 6.0327
 IR Inten    --     34.2483                40.9342                 9.4939

                     73                     74                     75
                      A                      A                      A
 Frequencies --   3049.9601              3082.9055              3094.1721
 Red. masses --      1.0572                 1.1038                 1.1072
 Frc consts  --      5.7941                 6.1811                 6.2454
 IR Inten    --     38.6883                27.2741                77.9371

                     76                     77                     78
                      A                      A                      A
 Frequencies --   3094.7452              3180.0610              3192.7109
 Red. masses --      1.1011                 1.0876                 1.0917
 Frc consts  --      6.2133                 6.4805                 6.5563
 IR Inten    --     51.5659                 4.3101                10.7808

                     79                     80                     81
                      A                      A                      A
 Frequencies --   3205.5150              3208.6504              3512.0150
 Red. masses --      1.0930                 1.0950                 1.0754
 Frc consts  --      6.6172                 6.6420                 7.8149
 IR Inten    --      3.6552                15.0946               212.2341

 - Thermochemistry -
 -------------------
 Temperature   298.150 Kelvin.  Pressure   1.00000 Atm.
 Atom     1 has atomic number  6 and mass  12.00000

 Molecular mass:   249.05566 amu.
 Principal axes and moments of inertia in atomic units:
                           1         2         3
     Eigenvalues --  2293.741737005.691009264.75894
           X            0.87688  -0.05903   0.47707
           Y           -0.40835  -0.61510   0.67446
           Z           -0.25364   0.78623   0.56347
 This molecule is an asymmetric top.
 Rotational symmetry number  1.
 Warning -- assumption of classical behavior for rotation
           may cause significant error
 Rotational temperatures (Kelvin)      0.03776     0.01236     0.00935
 Rotational constants (GHZ):           0.78681     0.25761     0.19480
 Zero-point vibrational energy     588337.2 (Joules/Mol)
                                  140.61596 (Kcal/Mol)
 Warning -- explicit consideration of  23 degrees of freedom as
           vibrations may cause significant error
 Vibrational temperatures:     18.32    75.99    91.20   121.66   124.72
          (Kelvin)            165.96   221.19   249.78   310.45   340.25
                              346.73   365.77   385.91   437.71   480.80
                              566.73   605.81   654.29   657.00   666.03
                              734.75   797.75   881.71   899.52   975.40
                              991.29  1046.81  1060.16  1100.22  1119.21
                             1165.86  1169.81  1256.29  1299.32  1309.92
                             1325.84  1435.53  1442.04  1469.17  1497.70
                             1518.41  1559.21  1597.56  1637.68  1675.25
                             1677.19  1701.20  1793.59  1816.40  1834.51
                             1875.56  1908.15  1914.83  1929.80  1964.76
                             2019.79  2029.48  2131.44  2132.84  2144.22
                             2151.87  2167.78  2176.10  2237.47  2279.88
                             2331.28  2339.65  2393.93  2462.27  4341.13
                             4351.41  4383.31  4388.21  4435.61  4451.82
                             4452.65  4575.40  4593.60  4612.02  4616.53
                             5053.01

 Zero-point correction=                           0.224086 (Hartree/Particle)
 Thermal correction to Energy=                    0.239724
 Thermal correction to Enthalpy=                  0.240668
 Thermal correction to Gibbs Free Energy=         0.179101
 Sum of electronic and zero-point Energies=          -1168.019006
 Sum of electronic and thermal Energies=             -1168.003368
 Sum of electronic and thermal Enthalpies=           -1168.002424
 Sum of electronic and thermal Free Energies=        -1168.063991

                     E (Thermal)             CV                S
                      KCal/Mol        Cal/Mol-Kelvin    Cal/Mol-Kelvin
 Total                  150.429             58.232            129.579
 Electronic               0.000              0.000              0.000
 Translational            0.889              2.981             42.438
 Rotational               0.889              2.981             33.365
 Vibrational            148.651             52.270             53.776
 Vibration     1          0.593              1.987              7.531
 Vibration     2          0.596              1.976              4.709
 Vibration     3          0.597              1.972              4.349
 Vibration     4          0.601              1.960              3.782
 Vibration     5          0.601              1.958              3.734
 Vibration     6          0.608              1.937              3.177
 Vibration     7          0.619              1.899              2.626
 Vibration     8          0.627              1.875              2.396
 Vibration     9          0.645              1.817              1.994
 Vibration    10          0.655              1.785              1.829
 Vibration    11          0.658              1.778              1.796
 Vibration    12          0.665              1.756              1.701
 Vibration    13          0.673              1.732              1.608
 Vibration    14          0.695              1.666              1.394
 Vibration    15          0.716              1.607              1.240
 Vibration    16          0.761              1.483              0.985
 Vibration    17          0.784              1.424              0.888
 Vibration    18          0.813              1.350              0.782
 Vibration    19          0.815              1.346              0.776
 Vibration    20          0.821              1.332              0.758
 Vibration    21          0.866              1.226              0.632
 Vibration    22          0.910              1.130              0.535
 Vibration    23          0.972              1.005              0.428

                           ! Non-Optimized Parameters !
 Normal termination of Gaussian 16 at Sun Feb 11 01:49:56 2024.
