 Gaussian 16, Revision A.03,
 Gaussian 16:  ES64L-G16RevA.03 25-Dec-2016

 ----------------------------------------------------------------
 #P UB3LYP/6-311++G(d,p) SCRF=(PCM,Solvent=n,n-DiMethylFormamide)
 ----------------------------------------------------------------

 ------------------
 Radical PCM in DMF
 ------------------
 Symbolic Z-matrix:
 Charge = -1 Multiplicity = 2

                         Standard orientation:
 ---------------------------------------------------------------------
 Center     Atomic      Atomic             Coordinates (Angstroms)
 Number     Number       Type             X           Y           Z
 ---------------------------------------------------------------------
      1          6           0       -3.001135   -1.859430    0.862914
      2          8           0       -2.596741   -1.007047   -0.211180
      3          6           0       -1.319624   -0.516678   -0.146818
      4          6           0       -1.113418    0.841669   -0.145912
      5         17           0       -2.493957    1.933014   -0.134171
      6          6           0        0.199936    1.458997   -0.176944
      7          8           0        0.383857    2.698718   -0.220683
      8          6           0        1.319648    0.516567   -0.146652
      9          6           0        1.113461   -0.841757   -0.145879
     10         17           0        2.493977   -1.933121   -0.134126
     11          6           0       -0.199929   -1.459129   -0.176922
     12          8           0       -0.383835   -2.698822   -0.220568
     13          8           0        2.596726    1.006904   -0.210951
     14          6           0        3.001056    1.860045    0.862688
     15          1           0       -2.974249   -1.311607    1.813426
     16          1           0       -4.031664   -2.145386    0.644520
     17          1           0       -2.365888   -2.744297    0.917149
     18          1           0        2.366940    2.745826    0.915066
     19          1           0        2.972178    1.313499    1.813874
     20          1           0        4.032305    2.144044    0.645211
 ---------------------------------------------------------------------

 SCF Done:  E(UB3LYP) =  -1530.07517924     A.U. after   19 cycles

 The electronic state is 2-A.
 Alpha  occ. eigenvalues -- -101.55267-101.55266 -19.14904 -19.14904 -19.09205
 Alpha  occ. eigenvalues --  -19.09205 -10.24378 -10.24376 -10.23949 -10.23948
 Alpha  occ. eigenvalues --  -10.22832 -10.22831 -10.21153 -10.21153  -9.46709
 Alpha  occ. eigenvalues --   -9.46708  -7.23157  -7.23157  -7.22227  -7.22227
 Alpha  occ. eigenvalues --   -7.22141  -7.22141  -1.06870  -1.06653  -1.01595
 Alpha  occ. eigenvalues --   -1.01591  -0.87962  -0.86614  -0.80811  -0.75149
 Alpha  occ. eigenvalues --   -0.70714  -0.69445  -0.66330  -0.59231  -0.58562
 Alpha  occ. eigenvalues --   -0.53545  -0.51292  -0.50464  -0.47568  -0.46386
 Alpha  occ. eigenvalues --   -0.45405  -0.44648  -0.43704  -0.43348  -0.42209
 Alpha  occ. eigenvalues --   -0.41860  -0.39686  -0.39401  -0.36775  -0.36123
 Alpha  occ. eigenvalues --   -0.34562  -0.34195  -0.31952  -0.31669  -0.30768
 Alpha  occ. eigenvalues --   -0.29472  -0.27381  -0.25729  -0.25493  -0.23529
 Alpha  occ. eigenvalues --   -0.17373
 Alpha virt. eigenvalues --   -0.01669  -0.00857   0.00737   0.00829   0.01226
 Alpha virt. eigenvalues --    0.02044   0.03122   0.03526   0.03629   0.03861
 Alpha virt. eigenvalues --    0.04111   0.05455   0.05914   0.06186   0.06851

  Beta  occ. eigenvalues -- -101.55265-101.55265 -19.14872 -19.14871 -19.08537
  Beta  occ. eigenvalues --  -19.08536 -10.24225 -10.24224 -10.23792 -10.23791
  Beta  occ. eigenvalues --  -10.22777 -10.22775 -10.21144 -10.21144  -9.46707
  Beta  occ. eigenvalues --   -9.46706  -7.23161  -7.23161  -7.22216  -7.22216
  Beta  occ. eigenvalues --   -7.22141  -7.22141  -1.06690  -1.06502  -1.00510
  Beta  occ. eigenvalues --   -1.00462  -0.87700  -0.86519  -0.80442  -0.74895
  Beta  occ. eigenvalues --   -0.70592  -0.68794  -0.65912  -0.58878  -0.58213
  Beta  occ. eigenvalues --   -0.53357  -0.51166  -0.50225  -0.46984  -0.46130
  Beta  occ. eigenvalues --   -0.45279  -0.44461  -0.43356  -0.43169  -0.41598
  Beta  occ. eigenvalues --   -0.40772  -0.39086  -0.37866  -0.36249  -0.35757
  Beta  occ. eigenvalues --   -0.33921  -0.33343  -0.31717  -0.31601  -0.30402
  Beta  occ. eigenvalues --   -0.29053  -0.25182  -0.25106  -0.24931  -0.22975
  Beta virt. eigenvalues --   -0.10309  -0.01188   0.00060   0.00847   0.01259
  Beta virt. eigenvalues --    0.01265   0.03135   0.03550   0.03688   0.03881
  Beta virt. eigenvalues --    0.04063   0.04319   0.05487   0.05984   0.06219

 Mulliken charges and spin densities:
               1          2
     1  C   -0.295391   0.004609
     2  O   -0.169214   0.002408
     3  C   -1.654718   0.146151
     4  C    1.944298   0.013605
     5  Cl   0.244222   0.002835
     6  C   -0.619180   0.085470
     7  O   -0.427795   0.244017
     8  C   -1.651846   0.146035
     9  C    1.942287   0.013780
    10  Cl   0.244268   0.002828
    11  C   -0.618699   0.085364
    12  O   -0.427751   0.243975
    13  O   -0.169375   0.002418
    14  C   -0.295194   0.004599
    15  H    0.137702   0.000858
    16  H    0.161266   0.000687
    17  H    0.178076  -0.000593
    18  H    0.178063  -0.000590
    19  H    0.137736   0.000862
    20  H    0.161244   0.000683
 Sum of Mulliken charges =  -1.00000   1.00000

 Dipole moment (field-independent basis, Debye):
    X=              0.0007    Y=              0.0016    Z=              3.9792  Tot=              3.9792
 Quadrupole moment (field-independent basis, Debye-Ang):
   XX=           -105.7049   YY=           -132.4451   ZZ=            -96.3796
   XY=              7.5954   XZ=             -0.0008   YZ=              0.0010

 Normal termination of Gaussian 16 at Sun Jan 21 07:12:35 2024.
