 Q-Chem 5.4, Q-Chem, Inc., Pleasanton, CA (2021)
 Q-Chem 5.4.0 for Intel X86 EM64T Linux

User input:
--------------------------------------------------------------
$molecule
-2 1
C                  5.8746170000     -5.6568880000      0.5319670000
C                  6.0158510000     -5.8635210000     -0.8289930000
C                  5.2822010000     -5.0669160000     -1.7391050000
C                  5.0108010000     -4.6648650000      1.0448540000
C                  4.2679090000     -3.8599970000      0.1235570000
C                  4.4285300000     -4.0889310000     -1.2599840000
C                  4.8961980000     -4.4794060000      2.4910370000
C                  3.9872120000     -3.4459890000      2.9198170000
C                  3.2647920000     -2.6503870000      2.0148700000
C                  3.3554300000     -2.8165630000      0.5874430000
O                  5.5692600000     -5.1976020000      3.3068300000
O                  2.6872680000     -2.0986020000     -0.2313310000
H                  6.6873930000     -6.6353090000     -1.1987020000
C                  2.3345170000     -1.5553640000      2.4893310000
H                  5.3886870000     -5.2241360000     -2.8101480000
C                  3.8610860000     -3.2492610000      4.4137480000
C                  0.8562850000     -1.9864540000      2.5917380000
C                 -0.0732530000     -0.8517970000      3.0408080000
C                 -1.5491780000     -1.2535500000      3.1643250000
H                  6.4236980000     -6.2504290000      1.2555640000
H                  3.8501920000     -3.4624500000     -1.9311990000
H                  2.3882680000     -0.7357110000      1.7639860000
H                  2.6575090000     -1.1655020000      3.4620160000
H                  4.3878230000     -4.0628880000      4.9156600000
H                  2.8162940000     -3.2373550000      4.7485220000
H                  4.3110350000     -2.3021540000      4.7474400000
H                  0.7688110000     -2.8281500000      3.2910950000
H                  0.5445880000     -2.3551900000      1.6091540000
H                  0.0140690000     -0.0181020000      2.3310430000
H                  0.2719150000     -0.4623700000      4.0096620000
H                 -1.6371490000     -2.0924890000      3.8678270000
H                 -1.9012290000     -1.6329690000      2.1961640000
C                 -2.4654250000     -0.1121610000      3.6251860000
C                 -3.9417100000     -0.5053690000      3.7684240000
C                 -4.8449330000      0.6428200000      4.2374250000
C                 -6.3217840000      0.2562900000      4.3904580000
C                 -7.2154020000      1.4095770000      4.8657810000
C                 -8.6897190000      1.0259550000      5.0228860000
H                 -2.3830280000      0.7232800000      2.9169350000
H                 -2.1027370000      0.2727440000      4.5881350000
H                 -4.0255750000     -1.3418070000      4.4750790000
H                 -4.3100130000     -0.8856740000      2.8064220000
H                 -4.7629690000      1.4781520000      3.5290780000
H                 -4.4722500000      1.0241660000      5.1976810000
H                 -6.4072540000     -0.5790810000      5.0976970000
H                 -6.7005840000     -0.1205950000      3.4314370000
H                 -7.1312790000      2.2451840000      4.1589900000
H                 -6.8353580000      1.7878230000      5.8236050000
H                 -9.1184610000      0.6819040000      4.0746140000
H                 -9.2950550000      1.8730980000      5.3632980000
H                 -8.8190870000      0.2210220000      5.7555390000
$end

$rem
MAX_SCF_CYCLES=200
BASIS  =  6-311++G(d,p)
GUI  =  2
JOB_TYPE  =  SP
METHOD  =  B3LYP
THRESH      14
SCF_CONVERGENCE  = 5
SOLVENT_METHOD = sm12
$end

$smx
solvent dimethylformamide
charges CM5
$end

--------------------------------------------------------------

             Standard Nuclear Orientation (Angstroms)
    I     Atom           X                Y                Z
 ----------------------------------------------------------------
    1      C       5.8746170000    -5.6568880000     0.5319670000
    2      C       6.0158510000    -5.8635210000    -0.8289930000
    3      C       5.2822010000    -5.0669160000    -1.7391050000
    4      C       5.0108010000    -4.6648650000     1.0448540000
    5      C       4.2679090000    -3.8599970000     0.1235570000
    6      C       4.4285300000    -4.0889310000    -1.2599840000
    7      C       4.8961980000    -4.4794060000     2.4910370000
    8      C       3.9872120000    -3.4459890000     2.9198170000
    9      C       3.2647920000    -2.6503870000     2.0148700000
   10      C       3.3554300000    -2.8165630000     0.5874430000
   11      O       5.5692600000    -5.1976020000     3.3068300000
   12      O       2.6872680000    -2.0986020000    -0.2313310000
   13      H       6.6873930000    -6.6353090000    -1.1987020000
   14      C       2.3345170000    -1.5553640000     2.4893310000
   15      H       5.3886870000    -5.2241360000    -2.8101480000
   16      C       3.8610860000    -3.2492610000     4.4137480000
   17      C       0.8562850000    -1.9864540000     2.5917380000
   18      C      -0.0732530000    -0.8517970000     3.0408080000
   19      C      -1.5491780000    -1.2535500000     3.1643250000
   20      H       6.4236980000    -6.2504290000     1.2555640000
   21      H       3.8501920000    -3.4624500000    -1.9311990000
   22      H       2.3882680000    -0.7357110000     1.7639860000
   23      H       2.6575090000    -1.1655020000     3.4620160000
   24      H       4.3878230000    -4.0628880000     4.9156600000
   25      H       2.8162940000    -3.2373550000     4.7485220000
   26      H       4.3110350000    -2.3021540000     4.7474400000
   27      H       0.7688110000    -2.8281500000     3.2910950000
   28      H       0.5445880000    -2.3551900000     1.6091540000
   29      H       0.0140690000    -0.0181020000     2.3310430000
   30      H       0.2719150000    -0.4623700000     4.0096620000
   31      H      -1.6371490000    -2.0924890000     3.8678270000
   32      H      -1.9012290000    -1.6329690000     2.1961640000
   33      C      -2.4654250000    -0.1121610000     3.6251860000
   34      C      -3.9417100000    -0.5053690000     3.7684240000
   35      C      -4.8449330000     0.6428200000     4.2374250000
   36      C      -6.3217840000     0.2562900000     4.3904580000
   37      C      -7.2154020000     1.4095770000     4.8657810000
   38      C      -8.6897190000     1.0259550000     5.0228860000
   39      H      -2.3830280000     0.7232800000     2.9169350000
   40      H      -2.1027370000     0.2727440000     4.5881350000
   41      H      -4.0255750000    -1.3418070000     4.4750790000
   42      H      -4.3100130000    -0.8856740000     2.8064220000
   43      H      -4.7629690000     1.4781520000     3.5290780000
   44      H      -4.4722500000     1.0241660000     5.1976810000
   45      H      -6.4072540000    -0.5790810000     5.0976970000
   46      H      -6.7005840000    -0.1205950000     3.4314370000
   47      H      -7.1312790000     2.2451840000     4.1589900000
   48      H      -6.8353580000     1.7878230000     5.8236050000
   49      H      -9.1184610000     0.6819040000     4.0746140000
   50      H      -9.2950550000     1.8730980000     5.3632980000
   51      H      -8.8190870000     0.2210220000     5.7555390000
 ----------------------------------------------------------------

   10    -967.7925146887      5.01e-06  Convergence criterion met
 Total energy in the final basis set =     -968.0844011580

                    Orbital Energies (a.u.)
 --------------------------------------------------------------

 Alpha MOs
 -- Occupied --
-19.0196 -19.0179 -10.1771 -10.1751 -10.1717 -10.1712 -10.1667 -10.1666
-10.1649 -10.1646 -10.1641 -10.1633 -10.1629 -10.1627 -10.1625 -10.1616
-10.1595 -10.1576 -10.1575 -10.1477 -10.1472 -10.1397 -10.1353  -0.9426
 -0.9395  -0.8426  -0.8162  -0.8040  -0.7897  -0.7687  -0.7448  -0.7400
 -0.7335  -0.7040  -0.6765  -0.6496  -0.6323  -0.6111  -0.5887  -0.5816
 -0.5777  -0.5743  -0.5656  -0.5354  -0.4990  -0.4864  -0.4785  -0.4715
 -0.4525  -0.4453  -0.4392  -0.4341  -0.4244  -0.4209  -0.4200  -0.4129
 -0.4078  -0.3948  -0.3913  -0.3859  -0.3842  -0.3797  -0.3754  -0.3643
 -0.3611  -0.3570  -0.3532  -0.3464  -0.3424  -0.3378  -0.3310  -0.3289
 -0.3251  -0.3238  -0.3225  -0.3224  -0.3194  -0.3176  -0.3114  -0.2988
 -0.2460  -0.2334  -0.2162  -0.2010  -0.1922  -0.1120

          Ground-State Mulliken Net Atomic Charges

     Atom                 Charge (a.u.)
  ----------------------------------------
      1 C                    -0.386343
      2 C                     1.433389
      3 C                     1.449733
      4 C                    -2.397892
      5 C                    -1.383000
      6 C                    -0.276930
      7 C                    -2.512768
      8 C                    -1.327570
      9 C                     0.347663
     10 C                    -2.654602
     11 O                    -0.336399
     12 O                    -0.245553
     13 H                     0.397419
     14 C                    -1.125095
     15 H                     0.398047
     16 C                     1.230817
     17 C                    -4.473041
     18 C                    -1.858892
     19 C                     0.082968
     20 H                     0.093649
     21 H                     0.083131
     22 H                     0.028805
     23 H                     0.212212
     24 H                     0.213700
     25 H                     0.221676
     26 H                     0.163389
     27 H                    -0.067110
     28 H                     0.097588
     29 H                     0.252659
     30 H                     0.270419
     31 H                     0.206418
     32 H                     0.135737
     33 C                     2.112833
     34 C                     2.225109
     35 C                     2.134323
     36 C                     1.291408
     37 C                     0.454427
     38 C                    -0.129270
     39 H                     0.095126
     40 H                     0.095695
     41 H                     0.105112
     42 H                     0.110257
     43 H                     0.132714
     44 H                     0.132639
     45 H                     0.108732
     46 H                     0.107830
     47 H                     0.118964
     48 H                     0.120342
     49 H                     0.139336
     50 H                     0.230647
     51 H                     0.139554
  ----------------------------------------
  Sum of atomic charges =    -2.000000

                    Cartesian Multipole Moments
 -----------------------------------------------------------------
    Charge (ESU x 10^10)
                -9.6064
    Dipole Moment (Debye)
         X     -40.8222      Y      36.6815      Z     -12.5805
       Tot      56.3050
    Quadrupole Moments (Debye-Ang)
        XX    -356.4360     XY     177.1853     YY    -321.7099
        XZ     -60.4215     YZ      56.5763     ZZ    -209.2316

 Total job time:  1871.63s(wall), 13147.04s(cpu)
        *  Thank you very much for using Q-Chem.  Have a nice day.  *
