 Gaussian 16, Revision A.03,
 Gaussian 16:  ES64L-G16RevA.03 25-Dec-2016

 ----------------------------------------------------------------------
 #P UB3LYP/6-311++G(d,p) nosym opt freq SCRF=(PCM,Solvent=n,n-DiMethylF
 ormamide)
 ----------------------------------------------------------------------

 -------
 Reduced
 -------
 Symbolic Z-matrix:
 Charge = -2 Multiplicity = 1

 SCF Done:  E(UB3LYP) =  -839.718221488     A.U. after   17 cycles
 SCF Done:  E(UB3LYP) =  -839.718839186     A.U. after   13 cycles
 SCF Done:  E(UB3LYP) =  -839.718921656     A.U. after   13 cycles
 SCF Done:  E(UB3LYP) =  -839.718993894     A.U. after   11 cycles
 SCF Done:  E(UB3LYP) =  -839.719003046     A.U. after   11 cycles
 SCF Done:  E(UB3LYP) =  -839.719006069     A.U. after   10 cycles
 SCF Done:  E(UB3LYP) =  -839.719007736     A.U. after   10 cycles
 Optimization completed.
    -- Stationary point found.
 Normal termination of Gaussian 16 at Sat Feb 10 22:37:44 2024.

 ----------------------------------------------------------------------
 #P Geom=AllCheck Guess=TCheck SCRF=Check GenChk UB3LYP/6-311++G(d,p) F
 req
 ----------------------------------------------------------------------

 Structure from the checkpoint file:  "184-an.chk"
 -------
 Reduced
 -------
 Charge = -2 Multiplicity = 1

                          Input orientation:
 ---------------------------------------------------------------------
 Center     Atomic      Atomic             Coordinates (Angstroms)
 Number     Number       Type             X           Y           Z
 ---------------------------------------------------------------------
      1          6           0        4.848152   -2.909495   -0.317399
      2          6           0        5.582102   -2.032783   -1.075991
      3          6           0        5.008159   -0.804763   -1.515116
      4          6           0        3.493142   -2.626440    0.056973
      5          6           0        2.906467   -1.375944   -0.390889
      6          6           0        3.708761   -0.503702   -1.172724
      7          6           0        2.738465   -3.513225    0.830240
      8          6           0        1.406442   -3.201107    1.182332
      9          6           0        0.806118   -1.961996    0.745456
     10          6           0        1.548239   -1.012068   -0.060867
     11          6           0        0.632091   -4.121982    1.985810
     12          6           0       -0.679396   -3.770316    2.311951
     13          6           0       -0.535210   -1.680387    1.119704
     14          6           0       -1.266706   -2.566655    1.889290
     15          8           0        3.307907   -4.705750    1.251969
     16          8           0        1.022037    0.094140   -0.458635
     17          8           0        1.112018   -5.276865    2.423609
     18          1           0        5.287966   -3.842636    0.015441
     19          1           0        6.606219   -2.274639   -1.344106
     20          1           0        5.594649   -0.115758   -2.114177
     21          1           0        3.256391    0.426638   -1.498406
     22          1           0        2.577851   -5.149866    1.779142
     23          8           0       -1.388039   -4.676828    3.085222
     24          1           0       -0.973038   -0.748256    0.785511
     25          1           0       -2.291703   -2.347625    2.174492
     26          1           0       -0.740844   -5.395261    3.222237
 ---------------------------------------------------------------------

 SCF Done:  E(UB3LYP) =  -839.719007736     A.U. after    1 cycles

 Alpha  occ. eigenvalues --  -19.12347 -19.09797 -19.05220 -19.03005 -10.19039
 Alpha  occ. eigenvalues --  -10.18851 -10.18724 -10.18517 -10.15559 -10.15309
 Alpha  occ. eigenvalues --  -10.15205 -10.15120 -10.14966 -10.14933 -10.14759
 Alpha  occ. eigenvalues --  -10.14185 -10.14036 -10.13752  -1.03351  -1.00932
 Alpha  occ. eigenvalues --   -0.94762  -0.94611  -0.83581  -0.81397  -0.76391
 Alpha  occ. eigenvalues --   -0.73225  -0.71088  -0.69937  -0.65033  -0.61447
 Alpha  occ. eigenvalues --   -0.59736  -0.56483  -0.54971  -0.52063  -0.50020
 Alpha  occ. eigenvalues --   -0.48481  -0.48005  -0.44690  -0.44148  -0.41870
 Alpha  occ. eigenvalues --   -0.41483  -0.40492  -0.40396  -0.38859  -0.37902
 Alpha  occ. eigenvalues --   -0.37890  -0.36945  -0.36236  -0.34977  -0.34828
 Alpha  occ. eigenvalues --   -0.33362  -0.33169  -0.31995  -0.30987  -0.30622
 Alpha  occ. eigenvalues --   -0.28452  -0.25110  -0.23504  -0.23481  -0.21345
 Alpha  occ. eigenvalues --   -0.20470  -0.17768  -0.12094
 Alpha virt. eigenvalues --   -0.02668   0.00032   0.00412   0.00743   0.01306
 Alpha virt. eigenvalues --    0.02360   0.02551   0.02970   0.04521   0.04854
 Alpha virt. eigenvalues --    0.04954   0.04990   0.06712   0.06845   0.07009

  Beta  occ. eigenvalues --  -19.12347 -19.09797 -19.05220 -19.03005 -10.19039
  Beta  occ. eigenvalues --  -10.18851 -10.18724 -10.18517 -10.15559 -10.15309
  Beta  occ. eigenvalues --  -10.15205 -10.15120 -10.14966 -10.14933 -10.14759
  Beta  occ. eigenvalues --  -10.14185 -10.14036 -10.13752  -1.03351  -1.00932
  Beta  occ. eigenvalues --   -0.94762  -0.94611  -0.83581  -0.81397  -0.76391
  Beta  occ. eigenvalues --   -0.73225  -0.71088  -0.69937  -0.65033  -0.61447
  Beta  occ. eigenvalues --   -0.59736  -0.56483  -0.54971  -0.52063  -0.50020
  Beta  occ. eigenvalues --   -0.48481  -0.48005  -0.44690  -0.44148  -0.41870
  Beta  occ. eigenvalues --   -0.41483  -0.40492  -0.40396  -0.38859  -0.37902
  Beta  occ. eigenvalues --   -0.37890  -0.36945  -0.36236  -0.34977  -0.34828
  Beta  occ. eigenvalues --   -0.33362  -0.33169  -0.31995  -0.30987  -0.30622
  Beta  occ. eigenvalues --   -0.28452  -0.25110  -0.23504  -0.23481  -0.21345
  Beta  occ. eigenvalues --   -0.20470  -0.17768  -0.12094
  Beta virt. eigenvalues --   -0.02668   0.00032   0.00412   0.00743   0.01306
  Beta virt. eigenvalues --    0.02360   0.02551   0.02970   0.04521   0.04854
  Beta virt. eigenvalues --    0.04954   0.04990   0.06712   0.06845   0.07009

 Mulliken charges and spin densities:
               1          2
     1  C   -0.133427  -0.000000
     2  C   -0.442527   0.000000
     3  C   -0.511012  -0.000000
     4  C    0.156073   0.000000
     5  C   -0.115692   0.000000
     6  C   -0.033585  -0.000000
     7  C   -0.040087  -0.000000
     8  C    0.728008  -0.000000
     9  C    0.551643  -0.000000
    10  C   -0.408494   0.000000
    11  C   -0.593132  -0.000000
    12  C   -0.484636   0.000000
    13  C   -0.124255   0.000000
    14  C    0.007280   0.000000
    15  O   -0.510272  -0.000000
    16  O   -0.621296  -0.000000
    17  O   -0.693025   0.000000
    18  H    0.149578   0.000000
    19  H    0.161828   0.000000
    20  H    0.158975  -0.000000
    21  H    0.147184   0.000000
    22  H    0.400152   0.000000
    23  O   -0.357734  -0.000000
    24  H    0.141897   0.000000
    25  H    0.175728  -0.000000
    26  H    0.290828   0.000000
 Sum of Mulliken charges =  -2.00000   0.00000

 Dipole moment (field-independent basis, Debye):
    X=            -13.6524    Y=             24.7403    Z=             -8.0374  Tot=             29.3781
 Quadrupole moment (field-independent basis, Debye-Ang):
   XX=           -160.6610   YY=           -221.8167   ZZ=           -139.4055
   XY=             34.2769   XZ=             -1.0527   YZ=             43.9028

  Exact polarizability: 453.680  10.888 333.575-124.528-103.717 254.814
 Approx polarizability: 508.636  -6.035 400.117-130.304-124.171 284.796

                      1                      2                      3
                      A                      A                      A
 Frequencies --     59.5194                88.1296               130.8551
 Red. masses --      7.2509                 6.1427                 9.5586
 Frc consts  --      0.0151                 0.0281                 0.0964
 IR Inten    --      5.8089                 4.9235                 2.8526

                      4                      5                      6
                      A                      A                      A
 Frequencies --    141.9716               185.1498               204.0453
 Red. masses --      5.1150                 6.7985                 5.9698
 Frc consts  --      0.0607                 0.1373                 0.1464
 IR Inten    --      0.5471                 0.5351                10.6879

                      7                      8                      9
                      A                      A                      A
 Frequencies --    271.2163               281.4381               320.6676
 Red. masses --      5.1467                 5.7721                 6.3890
 Frc consts  --      0.2231                 0.2694                 0.3871
 IR Inten    --      0.6936                 8.5198                 2.7096

                     10                     11                     12
                      A                      A                      A
 Frequencies --    333.5989               343.3335               380.8192
 Red. masses --      7.9119                 8.7848                 6.5852
 Frc consts  --      0.5188                 0.6101                 0.5627
 IR Inten    --     23.3177                58.2063                 1.9254

                     13                     14                     15
                      A                      A                      A
 Frequencies --    384.4317               401.9287               446.0666
 Red. masses --      6.6002                 9.1258                 3.3357
 Frc consts  --      0.5747                 0.8686                 0.3911
 IR Inten    --     46.1064                 6.4231                 6.3701

                     16                     17                     18
                      A                      A                      A
 Frequencies --    483.4237               496.7117               505.2959
 Red. masses --      9.9989                 9.0351                 2.8169
 Frc consts  --      1.3768                 1.3134                 0.4238
 IR Inten    --      3.2511                 4.4436                65.1293

                     19                     20                     21
                      A                      A                      A
 Frequencies --    558.2951               563.6194               583.4202
 Red. masses --      1.9224                 7.2359                 2.0875
 Frc consts  --      0.3530                 1.3543                 0.4186
 IR Inten    --     51.3630                52.8023                37.1538

                     22                     23                     24
                      A                      A                      A
 Frequencies --    614.8833               629.1401               660.2620
 Red. masses --      7.0704                 5.0306                 6.8129
 Frc consts  --      1.5750                 1.1732                 1.7499
 IR Inten    --     14.4477                 5.3929                22.8101

                     25                     26                     27
                      A                      A                      A
 Frequencies --    689.4764               693.5492               726.7612
 Red. masses --      5.9694                 2.3527                 6.8686
 Frc consts  --      1.6719                 0.6668                 2.1375
 IR Inten    --     31.6952               136.6388                20.0807

                     28                     29                     30
                      A                      A                      A
 Frequencies --    755.1450               756.8024               761.0867
 Red. masses --      7.1817                 1.9143                 1.8499
 Frc consts  --      2.4129                 0.6460                 0.6313
 IR Inten    --     38.0640                46.4296                17.4351

                     31                     32                     33
                      A                      A                      A
 Frequencies --    799.3632               826.6905               838.6119
 Red. masses --      3.0604                 7.1732                 1.4462
 Frc consts  --      1.1522                 2.8884                 0.5993
 IR Inten    --     34.0142               125.2464                39.8740

                     34                     35                     36
                      A                      A                      A
 Frequencies --    848.7055               899.6493               910.5931
 Red. masses --      1.1459                 7.2162                 1.2485
 Frc consts  --      0.4863                 3.4412                 0.6099
 IR Inten    --     83.0792                55.2881                 0.0543

                     37                     38                     39
                      A                      A                      A
 Frequencies --    970.5688               978.5889              1009.7767
 Red. masses --      1.3465                 1.2605                 3.4398
 Frc consts  --      0.7473                 0.7112                 2.0665
 IR Inten    --      1.6667                 0.3646               108.4353

                     40                     41                     42
                      A                      A                      A
 Frequencies --   1018.9802              1031.3911              1084.5680
 Red. masses --      3.8836                 3.0938                 2.5476
 Frc consts  --      2.3759                 1.9390                 1.7656
 IR Inten    --    433.3398               156.2178               137.3231

                     43                     44                     45
                      A                      A                      A
 Frequencies --   1122.3150              1145.9908              1167.8107
 Red. masses --      1.9144                 1.4795                 1.6672
 Frc consts  --      1.4208                 1.1448                 1.3396
 IR Inten    --     91.9467               175.4181                 6.3326

                     46                     47                     48
                      A                      A                      A
 Frequencies --   1195.8937              1214.5730              1231.5563
 Red. masses --      1.6651                 2.0078                 2.8700
 Frc consts  --      1.4031                 1.7451                 2.5647
 IR Inten    --     20.7571               410.7357               467.7149

                     49                     50                     51
                      A                      A                      A
 Frequencies --   1260.5051              1311.6264              1332.2211
 Red. masses --      2.7394                 6.2628                 3.1571
 Frc consts  --      2.5645                 6.3481                 3.3013
 IR Inten    --    212.5296                54.4243               369.0076

                     52                     53                     54
                      A                      A                      A
 Frequencies --   1356.2386              1378.1750              1389.3657
 Red. masses --      3.8971                 7.1821                 2.9103
 Frc consts  --      4.2234                 8.0373                 3.3099
 IR Inten    --    303.1199               114.1157               755.2293

                     55                     56                     57
                      A                      A                      A
 Frequencies --   1401.0522              1444.5511              1465.6947
 Red. masses --      3.1911                 2.7355                 4.2111
 Frc consts  --      3.6907                 3.3632                 5.3301
 IR Inten    --   1643.4752               269.0553               453.4470

                     58                     59                     60
                      A                      A                      A
 Frequencies --   1487.5895              1497.4218              1544.5798
 Red. masses --      2.6882                 2.6040                 5.1919
 Frc consts  --      3.5050                 3.4401                 7.2979
 IR Inten    --    137.9245                 4.5307                71.6099

                     61                     62                     63
                      A                      A                      A
 Frequencies --   1575.4354              1598.3126              1619.8852
 Red. masses --      5.5824                 5.8041                 3.6718
 Frc consts  --      8.1634                 8.7360                 5.6767
 IR Inten    --      0.5178               361.2814                23.9363

                     64                     65                     66
                      A                      A                      A
 Frequencies --   1637.7601              2986.1519              3142.9982
 Red. masses --      2.9026                 1.0740                 1.0850
 Frc consts  --      4.5871                 5.6428                 6.3152
 IR Inten    --     36.7401              1247.8166                23.6831

                     67                     68                     69
                      A                      A                      A
 Frequencies --   3147.5451              3157.9353              3173.9903
 Red. masses --      1.0883                 1.0882                 1.0924
 Frc consts  --      6.3524                 6.3942                 6.4840
 IR Inten    --     40.1132                18.7278                50.1106

                     70                     71                     72
                      A                      A                      A
 Frequencies --   3179.9863              3187.6837              3591.9799
 Red. masses --      1.0941                 1.0910                 1.0641
 Frc consts  --      6.5185                 6.5319                 8.0892
 IR Inten    --     67.9537                27.8396               115.7565

 - Thermochemistry -
 -------------------
 Temperature   298.150 Kelvin.  Pressure   1.00000 Atm.
 Atom     1 has atomic number  6 and mass  12.00000

 Molecular mass:   240.04226 amu.
 Principal axes and moments of inertia in atomic units:
                           1         2         3
     Eigenvalues --  2072.588945634.109127706.67571
           X            0.75803  -0.56550   0.32496
           Y            0.40151   0.79724   0.45078
           Z           -0.51399  -0.21124   0.83138
 This molecule is an asymmetric top.
 Rotational symmetry number  1.
 Warning -- assumption of classical behavior for rotation
           may cause significant error
 Rotational temperatures (Kelvin)      0.04179     0.01537     0.01124
 Rotational constants (GHZ):           0.87077     0.32032     0.23418
 Zero-point vibrational energy     482186.9 (Joules/Mol)
                                  115.24544 (Kcal/Mol)
 Warning -- explicit consideration of  22 degrees of freedom as
           vibrations may cause significant error
 Vibrational temperatures:     85.64   126.80   188.27   204.27   266.39
          (Kelvin)            293.58   390.22   404.93   461.37   479.97
                              493.98   547.91   553.11   578.29   641.79
                              695.54   714.66   727.01   803.26   810.92
                              839.41   884.68   905.19   949.97   992.00
                              997.86  1045.65  1086.49  1088.87  1095.03
                             1150.11  1189.42  1206.58  1221.10  1294.39
                             1310.14  1396.43  1407.97  1452.84  1466.09
                             1483.94  1560.45  1614.76  1648.83  1680.22
                             1720.62  1747.50  1771.93  1813.59  1887.14
                             1916.77  1951.32  1982.89  1998.99  2015.80
                             2078.39  2108.81  2140.31  2154.46  2222.31
                             2266.70  2299.62  2330.65  2356.37  4296.41
                             4522.07  4528.62  4543.56  4566.66  4575.29
                             4586.37  5168.06

 Zero-point correction=                           0.183655 (Hartree/Particle)
 Thermal correction to Energy=                    0.196874
 Thermal correction to Enthalpy=                  0.197818
 Thermal correction to Gibbs Free Energy=         0.144334
 Sum of electronic and zero-point Energies=           -839.535352
 Sum of electronic and thermal Energies=              -839.522133
 Sum of electronic and thermal Enthalpies=            -839.521189
 Sum of electronic and thermal Free Energies=         -839.574673

                     E (Thermal)             CV                S
                      KCal/Mol        Cal/Mol-Kelvin    Cal/Mol-Kelvin
 Total                  123.540             54.531            112.567
 Electronic               0.000              0.000              0.000
 Translational            0.889              2.981             42.328
 Rotational               0.889              2.981             32.865
 Vibrational            121.763             48.569             37.374
 Vibration     1          0.597              1.974              4.473
 Vibration     2          0.601              1.958              3.701
 Vibration     3          0.612              1.922              2.933
 Vibration     4          0.615              1.911              2.777
 Vibration     5          0.631              1.860              2.276
 Vibration     6          0.640              1.834              2.096
 Vibration     7          0.675              1.726              1.588
 Vibration     8          0.681              1.708              1.525
 Vibration     9          0.706              1.634              1.307
 Vibration    10          0.715              1.608              1.243
 Vibration    11          0.722              1.589              1.197
 Vibration    12          0.751              1.511              1.036
 Vibration    13          0.753              1.503              1.022
 Vibration    14          0.768              1.466              0.956
 Vibration    15          0.805              1.370              0.808
 Vibration    16          0.840              1.287              0.701
 Vibration    17          0.852              1.257              0.666
 Vibration    18          0.861              1.238              0.645
 Vibration    19          0.914              1.122              0.527
 Vibration    20          0.919              1.110              0.517
 Vibration    21          0.940              1.067              0.479
 Vibration    22          0.974              1.000              0.425

 Optimization completed.
    -- Stationary point found.
 Normal termination of Gaussian 16 at Sat Feb 10 23:33:21 2024.
