 Gaussian 16, Revision A.03,
 Gaussian 16:  ES64L-G16RevA.03 25-Dec-2016

 ----------------------------------------------------------------------
 #P UB3LYP/6-311++G(d,p) nosym opt freq SCRF=(PCM,Solvent=n,n-DiMethylF
 ormamide)
 ----------------------------------------------------------------------

 --------
 Oxidized
 --------
 Symbolic Z-matrix:
 Charge =  0 Multiplicity = 1

 SCF Done:  E(UB3LYP) =  -1144.84705385     A.U. after   15 cycles
 SCF Done:  E(UB3LYP) =  -1144.84715996     A.U. after   12 cycles
 SCF Done:  E(UB3LYP) =  -1144.84722613     A.U. after   13 cycles
 SCF Done:  E(UB3LYP) =  -1144.84750131     A.U. after   12 cycles
 SCF Done:  E(UB3LYP) =  -1144.84753919     A.U. after   11 cycles
 SCF Done:  E(UB3LYP) =  -1144.84754771     A.U. after   11 cycles
 SCF Done:  E(UB3LYP) =  -1144.84756308     A.U. after   11 cycles
 SCF Done:  E(UB3LYP) =  -1144.84756381     A.U. after   11 cycles
 SCF Done:  E(UB3LYP) =  -1144.84756967     A.U. after   10 cycles
 SCF Done:  E(UB3LYP) =  -1144.84757079     A.U. after   11 cycles
 SCF Done:  E(UB3LYP) =  -1144.84757120     A.U. after   10 cycles
 SCF Done:  E(UB3LYP) =  -1144.84757139     A.U. after    8 cycles
 Optimization completed.
    -- Stationary point found.
 Normal termination of Gaussian 16 at Sat Feb 10 18:26:37 2024.

 ----------------------------------------------------------------------
 #P Geom=AllCheck Guess=TCheck SCRF=Check GenChk UB3LYP/6-311++G(d,p) F
 req
 ----------------------------------------------------------------------

 Structure from the checkpoint file:  "146.chk"
 --------
 Oxidized
 --------
 Charge =  0 Multiplicity = 1

                          Input orientation:
 ---------------------------------------------------------------------
 Center     Atomic      Atomic             Coordinates (Angstroms)
 Number     Number       Type             X           Y           Z
 ---------------------------------------------------------------------
      1          6           0        2.782312    2.973980    1.538148
      2          6           0        2.563582    1.501481    1.702135
      3          8           0        2.292806    0.919731    2.720816
      4          8           0        2.722235    0.856418    0.501484
      5          6           0        2.448403   -0.504176    0.434623
      6          6           0        3.522211   -1.375367    0.574275
      7          6           0        3.329779   -2.746949    0.439089
      8          6           0        2.064952   -3.241988    0.145044
      9          6           0        0.991179   -2.366757   -0.022198
     10          6           0       -0.335944   -2.936979   -0.386148
     11          8           0       -0.527658   -4.144584   -0.380174
     12          6           0       -1.406964   -1.989941   -0.804533
     13          6           0       -2.571456   -2.513578   -1.367290
     14          6           0       -3.576101   -1.662288   -1.811544
     15          6           0       -3.421928   -0.284923   -1.686546
     16          6           0       -2.274126    0.237376   -1.102270
     17          8           0       -2.146802    1.620832   -1.080833
     18          6           0       -2.531712    2.299880    0.047650
     19          6           0       -2.200825    3.755055   -0.079074
     20          8           0       -3.065154    1.758197    0.981166
     21          6           0       -1.239124   -0.597684   -0.649996
     22          6           0       -0.009402   -0.054079    0.001167
     23          8           0        0.031925    1.090303    0.426692
     24          6           0        1.160026   -0.974548    0.131471
     25          1           0        1.952859    3.388240    0.959751
     26          1           0        2.821983    3.451472    2.514569
     27          1           0        3.702959    3.164127    0.984275
     28          1           0        4.501918   -0.965357    0.786370
     29          1           0        4.167808   -3.422844    0.556891
     30          1           0        1.895170   -4.304191    0.029113
     31          1           0       -2.668630   -3.587048   -1.460796
     32          1           0       -4.475583   -2.065410   -2.260407
     33          1           0       -4.183975    0.398566   -2.040182
     34          1           0       -2.655209    4.308790    0.739389
     35          1           0       -1.114851    3.871322   -0.043597
     36          1           0       -2.546666    4.142924   -1.038526
 ---------------------------------------------------------------------

 SCF Done:  E(UB3LYP) =  -1144.84757139     A.U. after    2 cycles

 Alpha  occ. eigenvalues --  -19.19129 -19.19127 -19.13862 -19.13735 -19.13372
 Alpha  occ. eigenvalues --  -19.13366 -10.32660 -10.32655 -10.29706 -10.29030
 Alpha  occ. eigenvalues --  -10.27201 -10.27199 -10.22379 -10.22377 -10.21909
 Alpha  occ. eigenvalues --  -10.21907 -10.20771 -10.20769 -10.20702 -10.20699
 Alpha  occ. eigenvalues --  -10.20404 -10.20401 -10.18539 -10.18537  -1.13528
 Alpha  occ. eigenvalues --   -1.13445  -1.07430  -1.07084  -1.05050  -1.04966
 Alpha  occ. eigenvalues --   -0.90512  -0.89256  -0.82546  -0.80178  -0.80019
 Alpha  occ. eigenvalues --   -0.78425  -0.75890  -0.75574  -0.70314  -0.68519
 Alpha  occ. eigenvalues --   -0.66707  -0.65566  -0.64064  -0.58852  -0.58550
 Alpha  occ. eigenvalues --   -0.55583  -0.55346  -0.51906  -0.51392  -0.51191
 Alpha  occ. eigenvalues --   -0.51175  -0.50738  -0.50476  -0.49817  -0.48951
 Alpha  occ. eigenvalues --   -0.48346  -0.47100  -0.46353  -0.46212  -0.46173
 Alpha  occ. eigenvalues --   -0.44416  -0.43054  -0.42963  -0.42129  -0.42079
 Alpha  occ. eigenvalues --   -0.41898  -0.41414  -0.40191  -0.39819  -0.39309
 Alpha  occ. eigenvalues --   -0.39046  -0.38669  -0.38635  -0.37392  -0.34362
 Alpha  occ. eigenvalues --   -0.33820  -0.30543  -0.30537  -0.29922  -0.29490
 Alpha  occ. eigenvalues --   -0.28560  -0.28298  -0.28027  -0.27513
 Alpha virt. eigenvalues --   -0.12466  -0.08114  -0.04595  -0.03342  -0.01952
 Alpha virt. eigenvalues --   -0.01495  -0.00826   0.00039   0.00102   0.01286
 Alpha virt. eigenvalues --    0.01531   0.02141   0.02406   0.02460   0.03045

  Beta  occ. eigenvalues --  -19.19129 -19.19127 -19.13862 -19.13735 -19.13372
  Beta  occ. eigenvalues --  -19.13366 -10.32660 -10.32655 -10.29706 -10.29030
  Beta  occ. eigenvalues --  -10.27201 -10.27199 -10.22379 -10.22377 -10.21909
  Beta  occ. eigenvalues --  -10.21907 -10.20771 -10.20769 -10.20702 -10.20699
  Beta  occ. eigenvalues --  -10.20404 -10.20401 -10.18539 -10.18537  -1.13528
  Beta  occ. eigenvalues --   -1.13445  -1.07430  -1.07084  -1.05050  -1.04966
  Beta  occ. eigenvalues --   -0.90512  -0.89256  -0.82546  -0.80178  -0.80019
  Beta  occ. eigenvalues --   -0.78425  -0.75890  -0.75574  -0.70314  -0.68519
  Beta  occ. eigenvalues --   -0.66707  -0.65566  -0.64064  -0.58852  -0.58550
  Beta  occ. eigenvalues --   -0.55583  -0.55346  -0.51906  -0.51392  -0.51191
  Beta  occ. eigenvalues --   -0.51175  -0.50738  -0.50476  -0.49817  -0.48951
  Beta  occ. eigenvalues --   -0.48346  -0.47100  -0.46353  -0.46212  -0.46173
  Beta  occ. eigenvalues --   -0.44416  -0.43054  -0.42963  -0.42129  -0.42079
  Beta  occ. eigenvalues --   -0.41898  -0.41414  -0.40191  -0.39819  -0.39309
  Beta  occ. eigenvalues --   -0.39046  -0.38669  -0.38635  -0.37392  -0.34362
  Beta  occ. eigenvalues --   -0.33820  -0.30543  -0.30537  -0.29922  -0.29490
  Beta  occ. eigenvalues --   -0.28560  -0.28298  -0.28027  -0.27513
  Beta virt. eigenvalues --   -0.12466  -0.08114  -0.04595  -0.03342  -0.01952
  Beta virt. eigenvalues --   -0.01495  -0.00826   0.00039   0.00102   0.01286
  Beta virt. eigenvalues --    0.01531   0.02141   0.02406   0.02460   0.03045

 Mulliken charges and spin densities:
               1          2
     1  C   -0.453091  -0.000000
     2  C   -0.003653   0.000000
     3  O   -0.259745  -0.000000
     4  O    0.040612  -0.000000
     5  C   -0.417106   0.000000
     6  C    0.255109  -0.000000
     7  C   -0.399515  -0.000000
     8  C   -0.115343   0.000000
     9  C    0.482599   0.000000
    10  C   -0.567530  -0.000000
    11  O   -0.268322   0.000000
    12  C    0.486032   0.000000
    13  C   -0.112113  -0.000000
    14  C   -0.400467  -0.000000
    15  C    0.254873   0.000000
    16  C   -0.412421  -0.000000
    17  O    0.040056   0.000000
    18  C   -0.003649   0.000000
    19  C   -0.452491  -0.000000
    20  O   -0.259990  -0.000000
    21  C    0.250227   0.000000
    22  C   -0.120188   0.000000
    23  O   -0.252777  -0.000000
    24  C    0.247325   0.000000
    25  H    0.212794   0.000000
    26  H    0.177458  -0.000000
    27  H    0.189699   0.000000
    28  H    0.219251   0.000000
    29  H    0.226239  -0.000000
    30  H    0.195418  -0.000000
    31  H    0.195499  -0.000000
    32  H    0.226193  -0.000000
    33  H    0.219268  -0.000000
    34  H    0.177483   0.000000
    35  H    0.212453  -0.000000
    36  H    0.189815  -0.000000
 Sum of Mulliken charges =  -0.00000   0.00000

 Dipole moment (field-independent basis, Debye):
    X=              2.0680    Y=              2.0421    Z=             -5.4259  Tot=              6.1553
 Quadrupole moment (field-independent basis, Debye-Ang):
   XX=           -110.2966   YY=           -125.4713   ZZ=           -147.6010
   XY=             -3.1128   XZ=             13.6760   YZ=             -0.2094

  Exact polarizability: 365.086  -8.618 373.586  59.707  20.525 212.748
 Approx polarizability: 401.529  -0.942 444.241  56.684  14.375 253.489

                      1                      2                      3
                      A                      A                      A
 Frequencies --     28.4254                29.1156                45.7177
 Red. masses --      6.9184                 6.0020                 3.5359
 Frc consts  --      0.0033                 0.0030                 0.0044
 IR Inten    --      1.5486                 0.8862                 1.4468

                      4                      5                      6
                      A                      A                      A
 Frequencies --     51.9700                61.2046                67.6675
 Red. masses --      4.6886                 5.1598                 1.6434
 Frc consts  --      0.0075                 0.0114                 0.0044
 IR Inten    --      2.1622                 1.8593                10.8209

                      7                      8                      9
                      A                      A                      A
 Frequencies --     73.8957                90.9627                95.6670
 Red. masses --      1.4811                 1.7980                 2.9075
 Frc consts  --      0.0048                 0.0088                 0.0157
 IR Inten    --      2.5952                 5.1040                 4.8078

                     10                     11                     12
                      A                      A                      A
 Frequencies --    118.0668               129.4106               154.4897
 Red. masses --      6.4635                 7.1358                 7.2490
 Frc consts  --      0.0531                 0.0704                 0.1019
 IR Inten    --      1.1631                 9.4551                 1.7917

                     13                     14                     15
                      A                      A                      A
 Frequencies --    203.3914               207.9499               256.4909
 Red. masses --      4.6496                 8.3662                 5.8507
 Frc consts  --      0.1133                 0.2132                 0.2268
 IR Inten    --      0.0267                 0.4841                 2.2275

                     16                     17                     18
                      A                      A                      A
 Frequencies --    261.1723               301.9826               315.4136
 Red. masses --      6.1789                 5.3389                 6.7525
 Frc consts  --      0.2483                 0.2869                 0.3958
 IR Inten    --      2.4073                 0.0859                 3.3938

                     19                     20                     21
                      A                      A                      A
 Frequencies --    316.9034               339.3135               389.4099
 Red. masses --      3.8701                 5.8855                 7.5235
 Frc consts  --      0.2290                 0.3992                 0.6722
 IR Inten    --      7.4036                 1.1206                12.3150

                     22                     23                     24
                      A                      A                      A
 Frequencies --    408.8043               428.1441               446.4027
 Red. masses --      8.7830                 5.2233                 7.5388
 Frc consts  --      0.8648                 0.5641                 0.8851
 IR Inten    --     29.8237                 1.4894                 2.8761

                     25                     26                     27
                      A                      A                      A
 Frequencies --    465.8525               489.7715               491.6105
 Red. masses --      6.0275                 8.4852                 3.8887
 Frc consts  --      0.7707                 1.1992                 0.5537
 IR Inten    --     10.2645                 5.1055                 0.0144

                     28                     29                     30
                      A                      A                      A
 Frequencies --    514.2488               547.1584               551.7839
 Red. masses --      5.2161                 5.3103                 5.7216
 Frc consts  --      0.8127                 0.9367                 1.0264
 IR Inten    --     13.2277                 2.5512                 4.4576

                     31                     32                     33
                      A                      A                      A
 Frequencies --    558.1063               587.0841               592.8340
 Red. masses --      4.3221                 2.9353                 3.2853
 Frc consts  --      0.7932                 0.5961                 0.6803
 IR Inten    --     30.2985                31.8787                 1.6415

                     34                     35                     36
                      A                      A                      A
 Frequencies --    629.0536               661.5994               676.2307
 Red. masses --      5.5550                 5.7206                 6.0462
 Frc consts  --      1.2951                 1.4753                 1.6290
 IR Inten    --      9.4443                12.5569                 2.8207

                     37                     38                     39
                      A                      A                      A
 Frequencies --    706.0374               712.6817               734.9563
 Red. masses --      3.7559                 7.0678                 3.1781
 Frc consts  --      1.1031                 2.1151                 1.0115
 IR Inten    --     55.2625                 0.0329                 1.7424

                     40                     41                     42
                      A                      A                      A
 Frequencies --    759.3132               787.7242               796.4311
 Red. masses --      3.6677                 5.8865                 2.0047
 Frc consts  --      1.2459                 2.1521                 0.7492
 IR Inten    --     37.0097                18.9255                28.3625

                     43                     44                     45
                      A                      A                      A
 Frequencies --    811.2308               842.5289               846.0234
 Red. masses --      2.6455                 4.0159                 3.3714
 Frc consts  --      1.0258                 1.6796                 1.4217
 IR Inten    --     33.1154                13.6984                47.0294

                     46                     47                     48
                      A                      A                      A
 Frequencies --    892.4077               904.9559               925.1127
 Red. masses --      4.4818                 4.8554                 6.3247
 Frc consts  --      2.1030                 2.3428                 3.1892
 IR Inten    --    138.9665                91.2854                 7.7140

                     49                     50                     51
                      A                      A                      A
 Frequencies --    957.2243               957.7277               981.1314
 Red. masses --      1.5297                 1.5795                 4.1382
 Frc consts  --      0.8258                 0.8536                 2.3470
 IR Inten    --      8.9584                 3.0957                44.8577

                     52                     53                     54
                      A                      A                      A
 Frequencies --   1009.3412              1016.2321              1017.1065
 Red. masses --      2.1532                 1.3475                 1.3425
 Frc consts  --      1.2925                 0.8199                 0.8183
 IR Inten    --     41.3090                 1.1145                 2.1179

                     55                     56                     57
                      A                      A                      A
 Frequencies --   1026.4215              1053.2000              1058.4413
 Red. masses --      2.2750                 3.6182                 1.7895
 Frc consts  --      1.4122                 2.3647                 1.1812
 IR Inten    --    402.7596                37.6015                 8.2603

                     58                     59                     60
                      A                      A                      A
 Frequencies --   1058.6545              1087.5392              1106.4924
 Red. masses --      1.8036                 2.4014                 1.7210
 Frc consts  --      1.1910                 1.6734                 1.2414
 IR Inten    --     17.1610                 0.2039                 3.6463

                     61                     62                     63
                      A                      A                      A
 Frequencies --   1173.9777              1183.3583              1184.4064
 Red. masses --      3.0218                 1.9266                 1.1832
 Frc consts  --      2.4538                 1.5896                 0.9779
 IR Inten    --    230.6013               111.1239                14.0679

                     64                     65                     66
                      A                      A                      A
 Frequencies --   1188.4055              1192.7086              1233.4468
 Red. masses --      1.6409                 3.7018                 2.9779
 Frc consts  --      1.3654                 3.1027                 2.6694
 IR Inten    --     80.4867              1567.4588                31.2540

                     67                     68                     69
                      A                      A                      A
 Frequencies --   1249.1318              1257.4901              1267.3583
 Red. masses --      3.4552                 2.5835                 4.0364
 Frc consts  --      3.1765                 2.4069                 3.8198
 IR Inten    --     57.6754                16.8494               574.3846

                     70                     71                     72
                      A                      A                      A
 Frequencies --   1317.6837              1346.7110              1352.3113
 Red. masses --      3.7778                 8.6826                 9.4903
 Frc consts  --      3.8647                 9.2779                10.2255
 IR Inten    --    317.7134               191.5674                 2.7543

                     73                     74                     75
                      A                      A                      A
 Frequencies --   1391.7263              1392.0532              1458.4344
 Red. masses --      1.2991                 1.2973                 1.0603
 Frc consts  --      1.4825                 1.4812                 1.3288
 IR Inten    --     39.6214               113.1274                17.6006

                     76                     77                     78
                      A                      A                      A
 Frequencies --   1458.7431              1460.1728              1463.3128
 Red. masses --      1.0568                 3.2332                 1.0689
 Frc consts  --      1.3250                 4.0615                 1.3486
 IR Inten    --     38.5651                82.2375                22.6002

                     79                     80                     81
                      A                      A                      A
 Frequencies --   1463.6885              1470.6826              1486.9105
 Red. masses --      1.0720                 3.5491                 2.5554
 Frc consts  --      1.3531                 4.5228                 3.3287
 IR Inten    --     31.8669                 0.2035                 6.5960

                     82                     83                     84
                      A                      A                      A
 Frequencies --   1489.3795              1602.4188              1608.9019
 Red. masses --      2.6598                 6.5865                 6.7639
 Frc consts  --      3.4762                 9.9645                10.3159
 IR Inten    --      3.2766                 6.6681                85.1808

                     85                     86                     87
                      A                      A                      A
 Frequencies --   1620.0533              1624.2232              1702.6093
 Red. masses --      6.8513                 6.2622                12.3310
 Frc consts  --     10.5946                 9.7335                21.0610
 IR Inten    --    348.3592                13.3105                51.9622

                     88                     89                     90
                      A                      A                      A
 Frequencies --   1707.9725              1785.1505              1785.8615
 Red. masses --     12.3525                11.5729                11.5723
 Frc consts  --     21.2308                21.7292                21.7454
 IR Inten    --    818.1073                32.4524               899.8909

                     91                     92                     93
                      A                      A                      A
 Frequencies --   3054.1532              3054.5610              3118.2878
 Red. masses --      1.0368                 1.0367                 1.0993
 Frc consts  --      5.6981                 5.6990                 6.2982
 IR Inten    --      0.8251                 0.0393                 2.2842

                     94                     95                     96
                      A                      A                      A
 Frequencies --   3118.6082              3159.8449              3159.8838
 Red. masses --      1.0994                 1.1040                 1.1040
 Frc consts  --      6.2998                 6.4944                 6.4948
 IR Inten    --      4.7680                13.4136                 5.8276

                     97                     98                     99
                      A                      A                      A
 Frequencies --   3189.6645              3189.8002              3202.4703
 Red. masses --      1.0885                 1.0886                 1.0936
 Frc consts  --      6.5250                 6.5257                 6.6081
 IR Inten    --      4.0073                 4.7261                 3.1155

                    100                    101                    102
                      A                      A                      A
 Frequencies --   3202.7165              3212.2337              3212.8330
 Red. masses --      1.0937                 1.0949                 1.0949
 Frc consts  --      6.6095                 6.6562                 6.6587
 IR Inten    --      2.0103                12.5073                 2.3672

 - Thermochemistry -
 -------------------
 Temperature   298.150 Kelvin.  Pressure   1.00000 Atm.
 Atom     1 has atomic number  6 and mass  12.00000

 Molecular mass:   324.06339 amu.
 Principal axes and moments of inertia in atomic units:
                           1         2         3
     Eigenvalues --  5877.428187483.06054**********
           X            0.94057   0.06579  -0.33316
           Y           -0.14630   0.96385  -0.22270
           Z            0.30646   0.25821   0.91619
 This molecule is an asymmetric top.
 Rotational symmetry number  1.
 Warning -- assumption of classical behavior for rotation
           may cause significant error
 Rotational temperatures (Kelvin)      0.01474     0.01157     0.00689
 Rotational constants (GHZ):           0.30706     0.24118     0.14346
 Zero-point vibrational energy     684446.8 (Joules/Mol)
                                  163.58670 (Kcal/Mol)
 Warning -- explicit consideration of  33 degrees of freedom as
           vibrations may cause significant error
 Vibrational temperatures:     40.90    41.89    65.78    74.77    88.06
          (Kelvin)             97.36   106.32   130.88   137.64   169.87
                              186.19   222.28   292.63   299.19   369.03
                              375.77   434.49   453.81   455.95   488.20
                              560.27   588.18   616.00   642.27   670.26
                              704.67   707.32   739.89   787.24   793.89
                              802.99   844.68   852.96   905.07   951.89
                              972.95  1015.83  1025.39  1057.44  1092.48
                             1133.36  1145.89  1167.18  1212.21  1217.24
                             1283.98  1302.03  1331.03  1377.23  1377.96
                             1411.63  1452.22  1462.13  1463.39  1476.79
                             1515.32  1522.86  1523.17  1564.73  1592.00
                             1689.09  1702.59  1704.10  1709.85  1716.04
                             1774.65  1797.22  1809.25  1823.45  1895.85
                             1937.62  1945.67  2002.38  2002.85  2098.36
                             2098.81  2100.86  2105.38  2105.92  2115.98
                             2139.33  2142.88  2305.52  2314.85  2330.90
                             2336.89  2449.68  2457.39  2568.43  2569.46
                             4394.25  4394.83  4486.52  4486.98  4546.31
                             4546.37  4589.22  4589.41  4607.64  4607.99
                             4621.69  4622.55

 Zero-point correction=                           0.260692 (Hartree/Particle)
 Thermal correction to Energy=                    0.281490
 Thermal correction to Enthalpy=                  0.282434
 Thermal correction to Gibbs Free Energy=         0.208832
 Sum of electronic and zero-point Energies=          -1144.586879
 Sum of electronic and thermal Energies=             -1144.566081
 Sum of electronic and thermal Enthalpies=           -1144.565137
 Sum of electronic and thermal Free Energies=        -1144.638739

                     E (Thermal)             CV                S
                      KCal/Mol        Cal/Mol-Kelvin    Cal/Mol-Kelvin
 Total                  176.638             77.518            154.909
 Electronic               0.000              0.000              0.000
 Translational            0.889              2.981             43.223
 Rotational               0.889              2.981             34.669
 Vibrational            174.860             71.556             77.017
 Vibration     1          0.593              1.984              5.936
 Vibration     2          0.593              1.984              5.889
 Vibration     3          0.595              1.979              4.995
 Vibration     4          0.596              1.977              4.741
 Vibration     5          0.597              1.973              4.418
 Vibration     6          0.598              1.970              4.220
 Vibration     7          0.599              1.966              4.047
 Vibration     8          0.602              1.956              3.639
 Vibration     9          0.603              1.952              3.541
 Vibration    10          0.608              1.934              3.132
 Vibration    11          0.612              1.924              2.955
 Vibration    12          0.620              1.898              2.616
 Vibration    13          0.639              1.835              2.102
 Vibration    14          0.641              1.829              2.062
 Vibration    15          0.666              1.752              1.686
 Vibration    16          0.669              1.744              1.654
 Vibration    17          0.694              1.670              1.406
 Vibration    18          0.703              1.644              1.334
 Vibration    19          0.704              1.641              1.326
 Vibration    20          0.719              1.597              1.215
 Vibration    21          0.757              1.493              1.002
 Vibration    22          0.773              1.451              0.931
 Vibration    23          0.790              1.409              0.865
 Vibration    24          0.806              1.369              0.807
 Vibration    25          0.823              1.326              0.749
 Vibration    26          0.846              1.273              0.684
 Vibration    27          0.847              1.269              0.679
 Vibration    28          0.869              1.218              0.623
 Vibration    29          0.902              1.146              0.550
 Vibration    30          0.907              1.136              0.540
 Vibration    31          0.914              1.122              0.528
 Vibration    32          0.944              1.059              0.472
 Vibration    33          0.950              1.047              0.462

                           ! Non-Optimized Parameters !
 Normal termination of Gaussian 16 at Sat Feb 10 21:10:36 2024.
