 Gaussian 16, Revision A.03,
 Gaussian 16:  ES64L-G16RevA.03 25-Dec-2016

 --------------------------------------
 #P UB3LYP/6-311++G(d,p) nosym opt freq
 --------------------------------------

 -------
 Radical
 -------
 Symbolic Z-matrix:
 Charge = -1 Multiplicity = 2

 SCF Done:  E(UB3LYP) =  -678.689808729     A.U. after   25 cycles
 SCF Done:  E(UB3LYP) =  -678.799358717     A.U. after   23 cycles
 SCF Done:  E(UB3LYP) =  -678.869316123     A.U. after   21 cycles
 SCF Done:  E(UB3LYP) =  -678.887459725     A.U. after   19 cycles
 SCF Done:  E(UB3LYP) =  -678.876798996     A.U. after   22 cycles
 SCF Done:  E(UB3LYP) =  -678.882439298     A.U. after   19 cycles
 SCF Done:  E(UB3LYP) =  -678.890155975     A.U. after   16 cycles
 SCF Done:  E(UB3LYP) =  -678.889852016     A.U. after   17 cycles
 SCF Done:  E(UB3LYP) =  -678.890954715     A.U. after   16 cycles
 SCF Done:  E(UB3LYP) =  -678.891031681     A.U. after   16 cycles
 SCF Done:  E(UB3LYP) =  -678.891078764     A.U. after   15 cycles
 SCF Done:  E(UB3LYP) =  -678.891113740     A.U. after   15 cycles
 SCF Done:  E(UB3LYP) =  -678.891114800     A.U. after   14 cycles
 SCF Done:  E(UB3LYP) =  -678.891117672     A.U. after   12 cycles
 SCF Done:  E(UB3LYP) =  -678.891117804     A.U. after   10 cycles
 SCF Done:  E(UB3LYP) =  -678.891118011     A.U. after   10 cycles
 SCF Done:  E(UB3LYP) =  -678.891118043     A.U. after    9 cycles
 Optimization completed.
    -- Stationary point found.
 Normal termination of Gaussian 16 at Sat Jan  6 02:44:49 2024.

 ----------------------------------------------------------------------
 #P Geom=AllCheck Guess=TCheck SCRF=Check GenChk UB3LYP/6-311++G(d,p) F
 req
 ----------------------------------------------------------------------

 Structure from the checkpoint file:  "347-rad.chk"
 -------
 Radical
 -------
 Charge = -1 Multiplicity = 2

                          Input orientation:
 ---------------------------------------------------------------------
 Center     Atomic      Atomic             Coordinates (Angstroms)
 Number     Number       Type             X           Y           Z
 ---------------------------------------------------------------------
      1          7           0       -4.714467    0.382664    0.339951
      2          6           0       -3.738033   -0.165799    0.651760
      3          6           0       -2.544045   -0.822796    1.021856
      4          6           0       -2.665810   -1.905455    1.920285
      5          7           0       -2.753897   -2.798301    2.659555
      6          6           0       -1.273657   -0.411842    0.511689
      7          6           0       -1.150471    0.679980   -0.393926
      8          6           0        0.069678    1.074577   -0.884066
      9          6           0        1.273663    0.411947   -0.511579
     10          6           0        1.150498   -0.679826    0.394122
     11          6           0       -0.069648   -1.074395    0.884300
     12          6           0        2.544006    0.822704   -1.021956
     13          6           0        3.737937    0.165431   -0.652227
     14          7           0        4.714352   -0.383223   -0.340684
     15          6           0        2.665855    1.905479   -1.920256
     16          7           0        2.753992    2.798346   -2.659492
     17          1           0       -2.044822    1.210046   -0.701410
     18          1           0        0.122294    1.910990   -1.571834
     19          1           0        2.044850   -1.209863    0.701675
     20          1           0       -0.122276   -1.910666    1.572236
 ---------------------------------------------------------------------

 SCF Done:  E(UB3LYP) =  -678.891118043     A.U. after    1 cycles

 Alpha  occ. eigenvalues --  -14.21531 -14.21531 -14.21531 -14.21531 -10.13008
 Alpha  occ. eigenvalues --  -10.13008 -10.11812 -10.11811 -10.11746 -10.11745
 Alpha  occ. eigenvalues --  -10.11741 -10.11741 -10.09601 -10.09599 -10.09537
 Alpha  occ. eigenvalues --  -10.09536  -0.82496  -0.82312  -0.81066  -0.81064
 Alpha  occ. eigenvalues --   -0.78797  -0.73998  -0.69576  -0.67378  -0.62867
 Alpha  occ. eigenvalues --   -0.54683  -0.53211  -0.49210  -0.46019  -0.45555
 Alpha  occ. eigenvalues --   -0.41898  -0.36223  -0.36222  -0.34530  -0.33061
 Alpha  occ. eigenvalues --   -0.31652  -0.30701  -0.28052  -0.27979  -0.27738
 Alpha  occ. eigenvalues --   -0.27726  -0.27454  -0.26321  -0.25316  -0.25301
 Alpha  occ. eigenvalues --   -0.25159  -0.24813  -0.23897  -0.23792  -0.21074
 Alpha  occ. eigenvalues --   -0.18404  -0.14180  -0.08706
 Alpha virt. eigenvalues --    0.06311   0.06922   0.08335   0.09147   0.09531
 Alpha virt. eigenvalues --    0.09658   0.10293   0.11792   0.12300   0.12877
 Alpha virt. eigenvalues --    0.13290   0.13521   0.13570   0.14197   0.14366

  Beta  occ. eigenvalues --  -14.21308 -14.21308 -14.21308 -14.21308 -10.12622
  Beta  occ. eigenvalues --  -10.12622 -10.11829 -10.11829 -10.11825 -10.11825
  Beta  occ. eigenvalues --  -10.11733 -10.11732 -10.09540 -10.09538 -10.09475
  Beta  occ. eigenvalues --  -10.09475  -0.82128  -0.81950  -0.80728  -0.80725
  Beta  occ. eigenvalues --   -0.78438  -0.73388  -0.68837  -0.67221  -0.62173
  Beta  occ. eigenvalues --   -0.54435  -0.53035  -0.48986  -0.45764  -0.45448
  Beta  occ. eigenvalues --   -0.41710  -0.36086  -0.36063  -0.34477  -0.31973
  Beta  occ. eigenvalues --   -0.30532  -0.30422  -0.27718  -0.27671  -0.27434
  Beta  occ. eigenvalues --   -0.27127  -0.26808  -0.26194  -0.25052  -0.24700
  Beta  occ. eigenvalues --   -0.24545  -0.24520  -0.23763  -0.23659  -0.19720
  Beta  occ. eigenvalues --   -0.17968  -0.11533
  Beta virt. eigenvalues --   -0.03383   0.07104   0.07883   0.08353   0.09243
  Beta virt. eigenvalues --    0.09534   0.09741   0.10333   0.11835   0.12319
  Beta virt. eigenvalues --    0.13562   0.13564   0.13632   0.13979   0.14302

 Mulliken charges and spin densities:
               1          2
     1  N   -0.249948   0.114442
     2  C   -1.410417  -0.074834
     3  C    2.317212   0.309139
     4  C   -1.410523  -0.074838
     5  N   -0.249944   0.114450
     6  C    1.541404   0.102259
     7  C   -0.651202   0.009795
     8  C   -0.651205   0.009801
     9  C    1.541384   0.102255
    10  C   -0.651284   0.009796
    11  C   -0.651237   0.009789
    12  C    2.317254   0.309135
    13  C   -1.410424  -0.074836
    14  N   -0.249954   0.114452
    15  C   -1.410529  -0.074837
    16  N   -0.249941   0.114445
    17  H    0.132334  -0.005103
    18  H    0.132341  -0.005104
    19  H    0.132341  -0.005103
    20  H    0.132336  -0.005103
 Sum of Mulliken charges =  -1.00000   1.00000

 Dipole moment (field-independent basis, Debye):
    X=              0.0000    Y=              0.0009    Z=              0.0010  Tot=              0.0013
 Quadrupole moment (field-independent basis, Debye-Ang):
   XX=           -180.8205   YY=           -120.2265   ZZ=           -117.0932
   XY=            -15.5101   XZ=             24.3998   YZ=             22.1049

  Exact polarizability: 429.560  69.774 174.864-104.574 -83.347 166.682
 Approx polarizability: 703.991 105.442 293.576-165.465-148.909 272.736

                      1                      2                      3
                      A                      A                      A
 Frequencies --     41.8027                54.1501                82.2350
 Red. masses --     13.5553                 9.1584                12.3069
 Frc consts  --      0.0140                 0.0158                 0.0490
 IR Inten    --      0.0001                10.5068                 3.7039

                      4                      5                      6
                      A                      A                      A
 Frequencies --     94.4294               122.9409               134.1057
 Red. masses --      4.1362                13.8254                10.4656
 Frc consts  --      0.0217                 0.1231                 0.1109
 IR Inten    --      0.0000                 0.0000                 0.0000

                      7                      8                      9
                      A                      A                      A
 Frequencies --    147.2274               148.0224               227.1674
 Red. masses --     12.3247                 9.5003                 9.3972
 Frc consts  --      0.1574                 0.1226                 0.2857
 IR Inten    --     12.5277                 0.0000                10.2208

                     10                     11                     12
                      A                      A                      A
 Frequencies --    291.5573               338.1239               344.0765
 Red. masses --      9.8164                12.1370                 7.4531
 Frc consts  --      0.4916                 0.8175                 0.5199
 IR Inten    --      0.3557                 0.0000                 0.0000

                     13                     14                     15
                      A                      A                      A
 Frequencies --    387.3396               418.1123               482.2773
 Red. masses --      5.8476                 3.2053                11.8999
 Frc consts  --      0.5169                 0.3302                 1.6307
 IR Inten    --      0.0000                 0.0001                 0.0000

                     16                     17                     18
                      A                      A                      A
 Frequencies --    483.8096               496.3976               529.0371
 Red. masses --     11.4771                 2.9610                11.5091
 Frc consts  --      1.5828                 0.4299                 1.8979
 IR Inten    --      0.0001                29.1929                 0.1650

                     19                     20                     21
                      A                      A                      A
 Frequencies --    545.5017               550.1473               606.8747
 Red. masses --      8.0601                 7.9682                10.5238
 Frc consts  --      1.4131                 1.4209                 2.2836
 IR Inten    --      0.0000                11.2262                 0.0000

                     22                     23                     24
                      A                      A                      A
 Frequencies --    620.4406               631.0784               631.4897
 Red. masses --      5.8160                12.3296                12.4285
 Frc consts  --      1.3191                 2.8931                 2.9201
 IR Inten    --      0.1790                 0.0000                 0.0545

                     25                     26                     27
                      A                      A                      A
 Frequencies --    641.1781               739.4363               745.7451
 Red. masses --      7.2003                 7.5606                 4.9438
 Frc consts  --      1.7441                 2.4356                 1.6199
 IR Inten    --      0.0000                 0.0000                 0.0000

                     28                     29                     30
                      A                      A                      A
 Frequencies --    821.5090               848.7276               973.7809
 Red. masses --      1.2674                 1.7431                 1.2816
 Frc consts  --      0.5039                 0.7398                 0.7160
 IR Inten    --      0.0000                57.8970                 0.0000

                     31                     32                     33
                      A                      A                      A
 Frequencies --    985.1495               993.9656              1003.9714
 Red. masses --      1.3202                 8.7528                 4.8282
 Frc consts  --      0.7549                 5.0949                 2.8674
 IR Inten    --      0.0001                 0.0000                 7.9018

                     34                     35                     36
                      A                      A                      A
 Frequencies --   1028.4781              1139.6567              1218.8251
 Red. masses --      3.1018                 1.9504                 1.1580
 Frc consts  --      1.9331                 1.4925                 1.0135
 IR Inten    --      3.5411                 0.1067                 0.0000

                     37                     38                     39
                      A                      A                      A
 Frequencies --   1223.5780              1230.6905              1332.5937
 Red. masses --      6.6738                 2.7783                 6.8208
 Frc consts  --      5.8869                 2.4793                 7.1364
 IR Inten    --      0.0000                 9.0203                 4.8401

                     40                     41                     42
                      A                      A                      A
 Frequencies --   1347.6574              1371.3119              1389.3374
 Red. masses --      1.5243                 3.0500                 9.7582
 Frc consts  --      1.6311                 3.3793                11.0977
 IR Inten    --      0.0000                73.6495                 0.0001

                     43                     44                     45
                      A                      A                      A
 Frequencies --   1499.1290              1525.5966              1529.7710
 Red. masses --      4.0496                 4.8516                 2.5916
 Frc consts  --      5.3622                 6.6529                 3.5733
 IR Inten    --      0.0217                 0.0016               106.8549

                     46                     47                     48
                      A                      A                      A
 Frequencies --   1642.0013              2239.7969              2240.1256
 Red. masses --      5.3564                12.6716                12.6725
 Frc consts  --      8.5089                37.4541                37.4678
 IR Inten    --      0.0000                 0.0295               347.3285

                     49                     50                     51
                      A                      A                      A
 Frequencies --   2272.2442              2280.1587              3168.1035
 Red. masses --     12.6712                12.6693                 1.0869
 Frc consts  --     38.5459                38.8090                 6.4276
 IR Inten    --    924.4439                 0.0001                 0.5349

                     52                     53                     54
                      A                      A                      A
 Frequencies --   3169.1798              3183.7516              3185.5134
 Red. masses --      1.0866                 1.0939                 1.0950
 Frc consts  --      6.4300                 6.5328                 6.5465
 IR Inten    --      0.0001                 9.0269                 0.0004

 - Thermochemistry -
 -------------------
 Temperature   298.150 Kelvin.  Pressure   1.00000 Atm.
 Atom     1 has atomic number  7 and mass  14.00307

 Molecular mass:   204.04360 amu.
 Principal axes and moments of inertia in atomic units:
                           1         2         3
     Eigenvalues --  1534.079196735.959938270.03902
           X            0.88878  -0.44575   0.10668
           Y            0.28744   0.72338   0.62777
           Z           -0.35700  -0.52728   0.77105
 This molecule is an asymmetric top.
 Rotational symmetry number  1.
 Warning -- assumption of classical behavior for rotation
           may cause significant error
 Rotational temperatures (Kelvin)      0.05646     0.01286     0.01047
 Rotational constants (GHZ):           1.17643     0.26793     0.21823
 Zero-point vibrational energy     331241.8 (Joules/Mol)
                                   79.16870 (Kcal/Mol)
 Warning -- explicit consideration of  22 degrees of freedom as
           vibrations may cause significant error
 Vibrational temperatures:     60.14    77.91   118.32   135.86   176.88
          (Kelvin)            192.95   211.83   212.97   326.84   419.49
                              486.48   495.05   557.30   601.57   693.89
                              696.09   714.21   761.17   784.86   791.54
                              873.16   892.68   907.98   908.57   922.51
                             1063.88  1072.96  1181.97  1221.13  1401.05
                             1417.41  1430.09  1444.49  1479.75  1639.71
                             1753.62  1760.46  1770.69  1917.31  1938.98
                             1973.01  1998.95  2156.91  2194.99  2201.00
                             2362.47  3222.57  3223.04  3269.25  3280.64
                             4558.19  4559.74  4580.71  4583.24

 Zero-point correction=                           0.126163 (Hartree/Particle)
 Thermal correction to Energy=                    0.139808
 Thermal correction to Enthalpy=                  0.140752
 Thermal correction to Gibbs Free Energy=         0.083858
 Sum of electronic and zero-point Energies=           -678.764955
 Sum of electronic and thermal Energies=              -678.751310
 Sum of electronic and thermal Enthalpies=            -678.750366
 Sum of electronic and thermal Free Energies=         -678.807260

                     E (Thermal)             CV                S
                      KCal/Mol        Cal/Mol-Kelvin    Cal/Mol-Kelvin
 Total                   87.731             49.458            119.743
 Electronic               0.000              0.000              1.377
 Translational            0.889              2.981             41.844
 Rotational               0.889              2.981             32.813
 Vibrational             85.953             43.497             43.709
 Vibration     1          0.594              1.980              5.172
 Vibration     2          0.596              1.976              4.660
 Vibration     3          0.600              1.961              3.837
 Vibration     4          0.603              1.953              3.566
 Vibration     5          0.610              1.930              3.054
 Vibration     6          0.613              1.919              2.886
 Vibration     7          0.617              1.906              2.708
 Vibration     8          0.617              1.905              2.697
 Vibration     9          0.651              1.800              1.901
 Vibration    10          0.687              1.689              1.465
 Vibration    11          0.718              1.599              1.221
 Vibration    12          0.723              1.587              1.193
 Vibration    13          0.756              1.497              1.010
 Vibration    14          0.781              1.431              0.898
 Vibration    15          0.839              1.289              0.704
 Vibration    16          0.840              1.286              0.700
 Vibration    17          0.852              1.258              0.667
 Vibration    18          0.884              1.186              0.589
 Vibration    19          0.901              1.150              0.554
 Vibration    20          0.905              1.139              0.544
 Vibration    21          0.966              1.017              0.438
 Vibration    22          0.980              0.989              0.416

 Optimization completed.
    -- Stationary point found.
 Normal termination of Gaussian 16 at Sat Jan  6 03:10:36 2024.
