 Q-Chem 5.4, Q-Chem, Inc., Pleasanton, CA (2021)
 Q-Chem 5.4.0 for Intel X86 EM64T Linux

User input:
--------------------------------------------------------------
$molecule
-2 1
C                  1.7962500000      2.7807440000      1.5201570000
C                  0.4137820000      2.7455610000      1.2711710000
C                 -0.1738650000      1.6539570000      0.6145670000
C                  0.6014330000      0.5231770000      0.1792320000
C                  2.0275450000      0.5990720000      0.4108030000
C                  2.5909050000      1.6999080000      1.0771290000
O                  2.3291140000      3.8065970000      2.2880110000
O                  0.0712500000     -0.4981600000     -0.3984980000
C                 -0.4484310000      3.8974010000      1.7431010000
C                 -1.6586920000      1.6155210000      0.3449820000
C                  2.8324300000     -0.5676710000     -0.1022160000
S                  4.3612550000      1.6969170000      1.4633750000
C                  4.9660990000      3.2936420000      0.7314790000
C                  5.4533910000      4.3531440000      1.7336840000
C                  4.9715770000      5.7931960000      1.3745790000
O                  5.8250300000      6.7082480000      1.3709800000
O                  3.7295140000      5.8921900000      1.1452550000
H                  0.1523520000      4.6174400000      2.2980590000
H                 -1.2647080000      3.5488560000      2.3901990000
H                 -0.9202690000      4.4197950000      0.8997150000
H                 -2.0096650000      2.5019460000     -0.2037330000
H                 -2.2570300000      1.5657040000      1.2690070000
H                 -1.8723560000      0.7220830000     -0.2460900000
H                  2.3769860000     -0.9305550000     -1.0287570000
H                  2.8089550000     -1.4198240000      0.5950040000
H                  3.8786360000     -0.2992890000     -0.2615490000
H                  4.1323420000      3.6825940000      0.1494750000
H                  5.7639700000      3.0278990000      0.0316650000
H                  6.5437720000      4.3453370000      1.8194050000
H                  5.0357060000      4.1244970000      2.7187470000
H                  2.7683670000      4.5212610000      1.7588860000
$end
$rem
MAX_SCF_CYCLES=200
BASIS  =  6-311++G(d,p)
GUI  =  2
JOB_TYPE  =  SP
METHOD  =  B3LYP
SOLVENT_METHOD = PCM
$end
$pcm
theory = CPCM
$end
$solvent
dielectric 37.219
opticaldielectric 1.43
$end

--------------------------------------------------------------

             Standard Nuclear Orientation (Angstroms)
    I     Atom           X                Y                Z
 ----------------------------------------------------------------
    1      C       1.7962500000     2.7807440000     1.5201570000
    2      C       0.4137820000     2.7455610000     1.2711710000
    3      C      -0.1738650000     1.6539570000     0.6145670000
    4      C       0.6014330000     0.5231770000     0.1792320000
    5      C       2.0275450000     0.5990720000     0.4108030000
    6      C       2.5909050000     1.6999080000     1.0771290000
    7      O       2.3291140000     3.8065970000     2.2880110000
    8      O       0.0712500000    -0.4981600000    -0.3984980000
    9      C      -0.4484310000     3.8974010000     1.7431010000
   10      C      -1.6586920000     1.6155210000     0.3449820000
   11      C       2.8324300000    -0.5676710000    -0.1022160000
   12      S       4.3612550000     1.6969170000     1.4633750000
   13      C       4.9660990000     3.2936420000     0.7314790000
   14      C       5.4533910000     4.3531440000     1.7336840000
   15      C       4.9715770000     5.7931960000     1.3745790000
   16      O       5.8250300000     6.7082480000     1.3709800000
   17      O       3.7295140000     5.8921900000     1.1452550000
   18      H       0.1523520000     4.6174400000     2.2980590000
   19      H      -1.2647080000     3.5488560000     2.3901990000
   20      H      -0.9202690000     4.4197950000     0.8997150000
   21      H      -2.0096650000     2.5019460000    -0.2037330000
   22      H      -2.2570300000     1.5657040000     1.2690070000
   23      H      -1.8723560000     0.7220830000    -0.2460900000
   24      H       2.3769860000    -0.9305550000    -1.0287570000
   25      H       2.8089550000    -1.4198240000     0.5950040000
   26      H       3.8786360000    -0.2992890000    -0.2615490000
   27      H       4.1323420000     3.6825940000     0.1494750000
   28      H       5.7639700000     3.0278990000     0.0316650000
   29      H       6.5437720000     4.3453370000     1.8194050000
   30      H       5.0357060000     4.1244970000     2.7187470000
   31      H       2.7683670000     4.5212610000     1.7588860000
 ----------------------------------------------------------------

    9   -1165.3436765179      4.21e-06  Convergence criterion met
 Total energy in the final basis set =    -1165.3436765179

                    Orbital Energies (a.u.)
 --------------------------------------------------------------

 Alpha MOs
 -- Occupied --
-88.8269 -19.1020 -19.0675 -19.0652 -19.0271 -10.2556 -10.1901 -10.1843
-10.1831 -10.1759 -10.1552 -10.1514 -10.1451 -10.1442 -10.1392 -10.1392
-10.1370  -7.9128  -5.8767  -5.8731  -5.8668  -1.0278  -1.0071  -0.9462
 -0.9416  -0.8207  -0.7882  -0.7608  -0.7166  -0.7051  -0.6877  -0.6386
 -0.6268  -0.5919  -0.5484  -0.5283  -0.5020  -0.4877  -0.4793  -0.4506
 -0.4403  -0.4211  -0.4136  -0.4092  -0.4006  -0.3949  -0.3918  -0.3900
 -0.3783  -0.3728  -0.3717  -0.3680  -0.3608  -0.3560  -0.3363  -0.3328
 -0.3257  -0.3236  -0.3033  -0.2772  -0.2702  -0.2598  -0.2456  -0.2438
 -0.2246  -0.2067  -0.1972  -0.1545

          Ground-State Mulliken Net Atomic Charges

     Atom                 Charge (a.u.)
  ----------------------------------------
      1 C                    -0.988764
      2 C                     1.018037
      3 C                     0.531225
      4 C                    -1.636572
      5 C                     0.156208
      6 C                     1.045343
      7 O                    -0.349003
      8 O                    -0.665592
      9 C                    -0.477813
     10 C                    -0.574666
     11 C                    -0.363265
     12 S                    -0.441356
     13 C                    -0.387015
     14 C                    -0.360899
     15 C                     0.073695
     16 O                    -0.544547
     17 O                    -0.557908
     18 H                     0.176673
     19 H                     0.143193
     20 H                     0.157151
     21 H                     0.143014
     22 H                     0.152049
     23 H                     0.165281
     24 H                     0.152001
     25 H                     0.166428
     26 H                     0.113093
     27 H                     0.204011
     28 H                     0.238009
     29 H                     0.187999
     30 H                     0.165053
     31 H                     0.358936
  ----------------------------------------
  Sum of atomic charges =    -2.000000

                    Cartesian Multipole Moments
 -----------------------------------------------------------------
    Charge (ESU x 10^10)
                -9.6064
    Dipole Moment (Debye)
         X     -24.8563      Y     -29.2934      Z      -8.6167
       Tot      39.3724
    Quadrupole Moments (Debye-Ang)
        XX    -230.7495     XY    -139.0840     YY    -310.1736
        XZ     -38.9852     YZ     -47.1482     ZZ    -135.8252

 Total job time:  55.09s(wall), 358.47s(cpu)
        *  Thank you very much for using Q-Chem.  Have a nice day.  *
