 Gaussian 16, Revision A.03,
 Gaussian 16:  ES64L-G16RevA.03 25-Dec-2016

 --------------------------------------
 #P UB3LYP/6-311++G(d,p) nosym opt freq
 --------------------------------------

 --------
 Oxidized
 --------
 Symbolic Z-matrix:
 Charge =  0 Multiplicity = 1

 SCF Done:  E(UB3LYP) =  -728.265048002     A.U. after   15 cycles
 SCF Done:  E(UB3LYP) =  -728.281320757     A.U. after   14 cycles
 SCF Done:  E(UB3LYP) =  -728.282541596     A.U. after   12 cycles
 SCF Done:  E(UB3LYP) =  -728.282615684     A.U. after   11 cycles
 SCF Done:  E(UB3LYP) =  -728.282619575     A.U. after    9 cycles
 SCF Done:  E(UB3LYP) =  -728.282619779     A.U. after    9 cycles
 Optimization completed.
    -- Stationary point found.
 Normal termination of Gaussian 16 at Thu Dec 21 06:03:06 2023.

 ----------------------------------------------------------------------
 #P Geom=AllCheck Guess=TCheck SCRF=Check GenChk UB3LYP/6-311++G(d,p) F
 req
 ----------------------------------------------------------------------

 Structure from the checkpoint file:  "124.chk"
 --------
 Oxidized
 --------
 Charge =  0 Multiplicity = 1

                          Input orientation:
 ---------------------------------------------------------------------
 Center     Atomic      Atomic             Coordinates (Angstroms)
 Number     Number       Type             X           Y           Z
 ---------------------------------------------------------------------
      1          6           0       -4.578416    0.230835    0.034615
      2          6           0       -3.136639   -0.210414    0.007212
      3          6           0       -2.793136   -1.566952   -0.079514
      4          6           0       -1.464462   -1.972963   -0.093270
      5          6           0       -0.437110   -1.029430   -0.021249
      6          6           0        0.978997   -1.488552   -0.038495
      7          8           0        1.264328   -2.673419   -0.112714
      8          6           0        2.041013   -0.441391    0.040616
      9          6           0        3.382921   -0.833951    0.028652
     10          6           0        4.391152    0.119905    0.101034
     11          6           0        4.067677    1.477017    0.186083
     12          6           0        2.736708    1.876710    0.198549
     13          6           0        1.715423    0.924148    0.126191
     14          6           0        0.294992    1.383050    0.141473
     15          8           0        0.013626    2.568342    0.215979
     16          6           0       -0.766199    0.335909    0.064541
     17          6           0       -2.104991    0.728546    0.077178
     18          1           0       -5.255307   -0.602909   -0.159901
     19          1           0       -4.767598    1.005459   -0.713556
     20          1           0       -4.837942    0.653620    1.010373
     21          1           0       -3.579607   -2.312141   -0.137769
     22          1           0       -1.200163   -3.021163   -0.160814
     23          1           0        3.610303   -1.890701   -0.037935
     24          1           0        5.429988   -0.190066    0.091406
     25          1           0        4.855505    2.219590    0.242412
     26          1           0        2.463030    2.922495    0.263798
     27          1           0       -2.324092    1.788427    0.142586
 ---------------------------------------------------------------------

 SCF Done:  E(UB3LYP) =  -728.282619779     A.U. after    1 cycles

 Alpha  occ. eigenvalues --  -19.12531 -19.12353 -10.27754 -10.27613 -10.21046
 Alpha  occ. eigenvalues --  -10.20778 -10.20726 -10.20681 -10.20421 -10.20142
 Alpha  occ. eigenvalues --  -10.20088 -10.19789 -10.19778 -10.19760 -10.19682
 Alpha  occ. eigenvalues --  -10.19434 -10.18440  -1.05959  -1.05697  -0.89425
 Alpha  occ. eigenvalues --   -0.88365  -0.81975  -0.78735  -0.77840  -0.77419
 Alpha  occ. eigenvalues --   -0.72119  -0.68389  -0.66144  -0.63367  -0.61632
 Alpha  occ. eigenvalues --   -0.58511  -0.56048  -0.54835  -0.50213  -0.49432
 Alpha  occ. eigenvalues --   -0.48740  -0.47439  -0.45343  -0.45247  -0.45021
 Alpha  occ. eigenvalues --   -0.44864  -0.44523  -0.43741  -0.43381  -0.41271
 Alpha  occ. eigenvalues --   -0.40399  -0.39581  -0.38791  -0.37472  -0.37372
 Alpha  occ. eigenvalues --   -0.36254  -0.36128  -0.28634  -0.28094  -0.27967
 Alpha  occ. eigenvalues --   -0.27616  -0.26924  -0.26893
 Alpha virt. eigenvalues --   -0.11366  -0.07350  -0.03598  -0.02828  -0.01130
 Alpha virt. eigenvalues --   -0.00656   0.00834   0.01390   0.01551   0.02230
 Alpha virt. eigenvalues --    0.03312   0.03675   0.03834   0.04097   0.04449

  Beta  occ. eigenvalues --  -19.12531 -19.12353 -10.27754 -10.27613 -10.21046
  Beta  occ. eigenvalues --  -10.20778 -10.20726 -10.20681 -10.20421 -10.20142
  Beta  occ. eigenvalues --  -10.20088 -10.19789 -10.19778 -10.19760 -10.19682
  Beta  occ. eigenvalues --  -10.19434 -10.18440  -1.05959  -1.05697  -0.89425
  Beta  occ. eigenvalues --   -0.88365  -0.81975  -0.78735  -0.77840  -0.77419
  Beta  occ. eigenvalues --   -0.72119  -0.68389  -0.66144  -0.63367  -0.61632
  Beta  occ. eigenvalues --   -0.58511  -0.56048  -0.54835  -0.50213  -0.49432
  Beta  occ. eigenvalues --   -0.48740  -0.47439  -0.45343  -0.45247  -0.45021
  Beta  occ. eigenvalues --   -0.44864  -0.44523  -0.43741  -0.43381  -0.41271
  Beta  occ. eigenvalues --   -0.40399  -0.39581  -0.38791  -0.37472  -0.37372
  Beta  occ. eigenvalues --   -0.36254  -0.36128  -0.28634  -0.28094  -0.27967
  Beta  occ. eigenvalues --   -0.27616  -0.26924  -0.26893
  Beta virt. eigenvalues --   -0.11366  -0.07350  -0.03598  -0.02828  -0.01130
  Beta virt. eigenvalues --   -0.00656   0.00834   0.01390   0.01551   0.02230
  Beta virt. eigenvalues --    0.03312   0.03675   0.03834   0.04097   0.04449

 Mulliken charges and spin densities:
               1          2
     1  C   -0.342860  -0.000000
     2  C    0.486614  -0.000000
     3  C   -1.017317   0.000000
     4  C    0.073885  -0.000000
     5  C    0.221416  -0.000000
     6  C   -0.859217   0.000000
     7  O   -0.213744   0.000000
     8  C    0.176669  -0.000000
     9  C    0.184809  -0.000000
    10  C   -0.358228   0.000000
    11  C   -0.348084  -0.000000
    12  C    0.152671   0.000000
    13  C    0.298662   0.000000
    14  C   -0.705204   0.000000
    15  O   -0.212902   0.000000
    16  C    0.404278   0.000000
    17  C    0.340718  -0.000000
    18  H    0.159653   0.000000
    19  H    0.163749  -0.000000
    20  H    0.177434  -0.000000
    21  H    0.135552   0.000000
    22  H    0.192752  -0.000000
    23  H    0.185146  -0.000000
    24  H    0.176321   0.000000
    25  H    0.177004  -0.000000
    26  H    0.182432  -0.000000
    27  H    0.167792   0.000000
 Sum of Mulliken charges =  -0.00000   0.00000

 Dipole moment (field-independent basis, Debye):
    X=             -0.7364    Y=              0.2116    Z=              0.0293  Tot=              0.7668
 Quadrupole moment (field-independent basis, Debye-Ang):
   XX=            -72.4022   YY=           -107.5464   ZZ=           -100.7588
   XY=              7.3810   XZ=              0.6280   YZ=             -0.3525

  Exact polarizability: 271.249   8.788 194.165   1.962   7.040  89.326
 Approx polarizability: 382.310  -7.037 375.551   1.382  15.222 144.556

 ******    1 imaginary frequencies (negative Signs) ******

                      1                      2                      3
                      A                      A                      A
 Frequencies --    -36.2974                38.7484                93.2161
 Red. masses --      1.0278                 6.4541                 4.2328
 Frc consts  --      0.0008                 0.0057                 0.0217
 IR Inten    --      0.2662                 5.7655                 0.5134

                      4                      5                      6
                      A                      A                      A
 Frequencies --    116.9097               142.3420               184.9671
 Red. masses --      5.0225                 5.9318                 4.0953
 Frc consts  --      0.0404                 0.0708                 0.0826
 IR Inten    --      0.0716                 0.6097                 1.1350

                      7                      8                      9
                      A                      A                      A
 Frequencies --    192.2748               275.9506               284.0523
 Red. masses --      4.9132                 5.2272                 4.5131
 Frc consts  --      0.1070                 0.2345                 0.2145
 IR Inten    --      0.4972                 0.2255                 1.2150

                     10                     11                     12
                      A                      A                      A
 Frequencies --    331.1894               372.2982               391.4386
 Red. masses --      6.2372                 4.5283                10.2183
 Frc consts  --      0.4031                 0.3698                 0.9225
 IR Inten    --      0.8161                 0.5976                24.5136

                     13                     14                     15
                      A                      A                      A
 Frequencies --    413.8020               427.7906               444.3957
 Red. masses --      3.3604                 5.8026                 3.6597
 Frc consts  --      0.3390                 0.6257                 0.4258
 IR Inten    --      0.7453                 0.2725                 0.1106

                     16                     17                     18
                      A                      A                      A
 Frequencies --    450.9351               475.9797               528.8659
 Red. masses --      3.9778                12.0535                 3.8260
 Frc consts  --      0.4766                 1.6089                 0.6305
 IR Inten    --      1.1614                 0.0723                 5.7737

                     19                     20                     21
                      A                      A                      A
 Frequencies --    583.6248               648.0480               669.3434
 Red. masses --      5.6221                 6.7712                 4.0760
 Frc consts  --      1.1283                 1.6754                 1.0759
 IR Inten    --      4.4134                 8.7776                 3.6154

                     22                     23                     24
                      A                      A                      A
 Frequencies --    673.5340               701.1962               729.1795
 Red. masses --      6.5286                 6.6446                 3.4811
 Frc consts  --      1.7450                 1.9249                 1.0905
 IR Inten    --      0.6048                 0.2292                25.3738

                     25                     26                     27
                      A                      A                      A
 Frequencies --    732.5487               749.0100               804.3149
 Red. masses --      2.4803                 6.3433                 2.7031
 Frc consts  --      0.7842                 2.0967                 1.0303
 IR Inten    --     55.8963                 0.7407                 0.6896

                     28                     29                     30
                      A                      A                      A
 Frequencies --    808.2360               854.0020               862.7067
 Red. masses --      2.2421                 5.8962                 1.5192
 Frc consts  --      0.8630                 2.5336                 0.6662
 IR Inten    --      4.5540                 6.7986                21.5039

                     31                     32                     33
                      A                      A                      A
 Frequencies --    916.7523               941.7385               944.9331
 Red. masses --      1.3772                 1.3666                 6.7746
 Frc consts  --      0.6820                 0.7141                 3.5640
 IR Inten    --      0.1714                 2.5646                60.3492

                     34                     35                     36
                      A                      A                      A
 Frequencies --    984.0485              1002.1492              1006.3866
 Red. masses --      2.6087                 1.3598                 1.3798
 Frc consts  --      1.4883                 0.8046                 0.8234
 IR Inten    --     18.8544                 0.2747                 2.8687

                     37                     38                     39
                      A                      A                      A
 Frequencies --   1018.7133              1026.9806              1057.8772
 Red. masses --      1.3263                 1.7609                 1.9396
 Frc consts  --      0.8109                 1.0942                 1.2789
 IR Inten    --      0.0026                12.5560                 0.0627

                     40                     41                     42
                      A                      A                      A
 Frequencies --   1062.4510              1110.8838              1123.8427
 Red. masses --      1.5667                 2.6406                 2.3007
 Frc consts  --      1.0420                 1.9199                 1.7121
 IR Inten    --      5.8720                 0.2021                 1.9933

                     43                     44                     45
                      A                      A                      A
 Frequencies --   1162.5330              1180.1127              1194.5182
 Red. masses --      1.4872                 1.2739                 2.0071
 Frc consts  --      1.1842                 1.0453                 1.6874
 IR Inten    --     10.7979                13.7081                 4.1060

                     46                     47                     48
                      A                      A                      A
 Frequencies --   1227.7106              1241.7396              1290.4330
 Red. masses --      2.7821                 1.7670                 1.5566
 Frc consts  --      2.4707                 1.6053                 1.5272
 IR Inten    --     11.5111                 2.0368                11.4873

                     49                     50                     51
                      A                      A                      A
 Frequencies --   1307.4801              1318.8748              1349.1210
 Red. masses --      6.2084                 2.1249                 7.4562
 Frc consts  --      6.2532                 2.1777                 7.9960
 IR Inten    --    666.2540                 1.5310                61.7396

                     52                     53                     54
                      A                      A                      A
 Frequencies --   1360.8107              1415.0402              1439.9085
 Red. masses --      7.8699                 1.2503                 3.1072
 Frc consts  --      8.5865                 1.4750                 3.7956
 IR Inten    --      3.7535                 2.6892                11.4195

                     55                     56                     57
                      A                      A                      A
 Frequencies --   1481.0776              1486.2445              1496.3683
 Red. masses --      2.3238                 1.0503                 1.1715
 Frc consts  --      3.0033                 1.3669                 1.5455
 IR Inten    --      0.3468                 7.8864                 4.7642

                     58                     59                     60
                      A                      A                      A
 Frequencies --   1503.4175              1519.8446              1601.2632
 Red. masses --      2.5712                 2.9137                 6.2647
 Frc consts  --      3.4241                 3.9655                 9.4641
 IR Inten    --      5.9271                 0.2006                 7.4309

                     61                     62                     63
                      A                      A                      A
 Frequencies --   1614.9445              1627.8987              1636.6726
 Red. masses --      7.0274                 5.9260                 6.0077
 Frc consts  --     10.7985                 9.2526                 9.4816
 IR Inten    --      8.5813               128.3903                48.1065

                     64                     65                     66
                      A                      A                      A
 Frequencies --   1716.9664              1728.0037              3027.6899
 Red. masses --     12.5590                11.9604                 1.0376
 Frc consts  --     21.8136                21.0418                 5.6038
 IR Inten    --      7.5039               319.5357                21.2625

                     67                     68                     69
                      A                      A                      A
 Frequencies --   3079.3956              3107.7851              3165.9651
 Red. masses --      1.0991                 1.1014                 1.0895
 Frc consts  --      6.1406                 6.2675                 6.4340
 IR Inten    --     11.6960                15.7127                12.8731

                     70                     71                     72
                      A                      A                      A
 Frequencies --   3169.7363              3182.5521              3184.1583
 Red. masses --      1.0870                 1.0904                 1.0918
 Frc consts  --      6.4344                 6.5072                 6.5219
 IR Inten    --      3.3809                 3.0790                10.8565

                     73                     74                     75
                      A                      A                      A
 Frequencies --   3198.5933              3199.7270              3202.2978
 Red. masses --      1.0927                 1.0925                 1.0949
 Frc consts  --      6.5868                 6.5900                 6.6154
 IR Inten    --      4.9204                 0.4067                11.5327

 - Thermochemistry -
 -------------------
 Temperature   298.150 Kelvin.  Pressure   1.00000 Atm.
 Atom     1 has atomic number  6 and mass  12.00000

 Molecular mass:   222.06808 amu.
 Principal axes and moments of inertia in atomic units:
                           1         2         3
     Eigenvalues --  1714.162685348.301037051.28877
           X            0.99150  -0.12981  -0.00889
           Y            0.12896   0.98950  -0.06532
           Z            0.01727   0.06361   0.99783
 This molecule is an asymmetric top.
 Rotational symmetry number  1.
 Warning -- assumption of classical behavior for rotation
           may cause significant error
 Rotational temperatures (Kelvin)      0.05053     0.01619     0.01228
 Rotational constants (GHZ):           1.05284     0.33744     0.25594
    1 imaginary frequencies ignored.
 Zero-point vibrational energy     541887.7 (Joules/Mol)
                                  129.51426 (Kcal/Mol)
 Warning -- explicit consideration of  18 degrees of freedom as
           vibrations may cause significant error
 Vibrational temperatures:     55.75   134.12   168.21   204.80   266.13
          (Kelvin)            276.64   397.03   408.69   476.51   535.65
                              563.19   595.37   615.50   639.39   648.79
                              684.83   760.92   839.71   932.40   963.04
                              969.07  1008.86  1049.13  1053.97  1077.66
                             1157.23  1162.87  1228.72  1241.24  1319.00
                             1354.95  1359.55  1415.83  1441.87  1447.97
                             1465.70  1477.60  1522.05  1528.63  1598.31
                             1616.96  1672.63  1697.92  1718.65  1766.40
                             1786.59  1856.65  1881.17  1897.57  1941.08
                             1957.90  2035.93  2071.71  2130.94  2138.37
                             2152.94  2163.08  2186.72  2303.86  2323.54
                             2342.18  2354.81  2470.33  2486.21  4356.17
                             4430.56  4471.41  4555.12  4560.54  4578.98
                             4581.29  4602.06  4603.69  4607.39

 Zero-point correction=                           0.206394 (Hartree/Particle)
 Thermal correction to Energy=                    0.218693
 Thermal correction to Enthalpy=                  0.219637
 Thermal correction to Gibbs Free Energy=         0.167398
 Sum of electronic and zero-point Energies=           -728.076226
 Sum of electronic and thermal Energies=              -728.063927
 Sum of electronic and thermal Enthalpies=            -728.062982
 Sum of electronic and thermal Free Energies=         -728.115222

                     E (Thermal)             CV                S
                      KCal/Mol        Cal/Mol-Kelvin    Cal/Mol-Kelvin
 Total                  137.232             49.769            109.948
 Electronic               0.000              0.000              0.000
 Translational            0.889              2.981             42.096
 Rotational               0.889              2.981             32.536
 Vibrational            135.455             43.808             35.316
 Vibration     1          0.594              1.981              5.322
 Vibration     2          0.602              1.954              3.591
 Vibration     3          0.608              1.935              3.151
 Vibration     4          0.616              1.911              2.772
 Vibration     5          0.631              1.860              2.278
 Vibration     6          0.634              1.851              2.206
 Vibration     7          0.678              1.718              1.559
 Vibration     8          0.682              1.703              1.509
 Vibration     9          0.714              1.613              1.254
 Vibration    10          0.744              1.529              1.070
 Vibration    11          0.759              1.488              0.995
 Vibration    12          0.777              1.440              0.913
 Vibration    13          0.789              1.410              0.866
 Vibration    14          0.804              1.373              0.813
 Vibration    15          0.810              1.359              0.793
 Vibration    16          0.833              1.303              0.721
 Vibration    17          0.884              1.186              0.590
 Vibration    18          0.941              1.067              0.479

                           ! Non-Optimized Parameters !
 Normal termination of Gaussian 16 at Thu Dec 21 06:48:37 2023.
