 Gaussian 16, Revision A.03,
 Gaussian 16:  ES64L-G16RevA.03 25-Dec-2016

 --------------------------------------
 #P UB3LYP/6-311++G(d,p) nosym opt freq
 --------------------------------------

 -------
 Radical
 -------
 Symbolic Z-matrix:
 Charge = -1 Multiplicity = 2

 SCF Done:  E(UB3LYP) =  -878.794764245     A.U. after   23 cycles
 SCF Done:  E(UB3LYP) =  -878.837436597     A.U. after   18 cycles
 SCF Done:  E(UB3LYP) =  -878.862960495     A.U. after   19 cycles
 SCF Done:  E(UB3LYP) =  -878.874883959     A.U. after   18 cycles
 SCF Done:  E(UB3LYP) =  -878.876701449     A.U. after   17 cycles
 SCF Done:  E(UB3LYP) =  -878.877351301     A.U. after   16 cycles
 SCF Done:  E(UB3LYP) =  -878.877422663     A.U. after   16 cycles
 SCF Done:  E(UB3LYP) =  -878.877532534     A.U. after   15 cycles
 SCF Done:  E(UB3LYP) =  -878.877561869     A.U. after   14 cycles
 SCF Done:  E(UB3LYP) =  -878.877581605     A.U. after   15 cycles
 SCF Done:  E(UB3LYP) =  -878.877684438     A.U. after   11 cycles
 SCF Done:  E(UB3LYP) =  -878.877677229     A.U. after   12 cycles
 SCF Done:  E(UB3LYP) =  -878.877690735     A.U. after   12 cycles
 SCF Done:  E(UB3LYP) =  -878.877674052     A.U. after   12 cycles
 SCF Done:  E(UB3LYP) =  -878.877690741     A.U. after   12 cycles
 SCF Done:  E(UB3LYP) =  -878.877674075     A.U. after   12 cycles
 SCF Done:  E(UB3LYP) =  -878.877690770     A.U. after   12 cycles
 SCF Done:  E(UB3LYP) =  -878.877674071     A.U. after   12 cycles
 SCF Done:  E(UB3LYP) =  -878.877690771     A.U. after   12 cycles
 Optimization completed.
    -- Stationary point found.
 Normal termination of Gaussian 16 at Thu Dec 21 21:32:41 2023.

 ----------------------------------------------------------------------
 #P Geom=AllCheck Guess=TCheck SCRF=Check GenChk UB3LYP/6-311++G(d,p) F
 req
 ----------------------------------------------------------------------

 Structure from the checkpoint file:  "196-rad.chk"
 -------
 Radical
 -------
 Charge = -1 Multiplicity = 2

                          Input orientation:
 ---------------------------------------------------------------------
 Center     Atomic      Atomic             Coordinates (Angstroms)
 Number     Number       Type             X           Y           Z
 ---------------------------------------------------------------------
      1          6           0       -4.671969    0.288257   -0.083253
      2          6           0       -3.207834   -0.079727   -0.028946
      3          6           0       -2.830475   -1.437935   -0.061845
      4          6           0       -1.495601   -1.809254   -0.014006
      5          8           0       -1.181956   -3.123789   -0.048188
      6          6           0       -0.470047   -0.814419    0.070128
      7          6           0        0.916804   -1.197050    0.119814
      8          8           0        1.260967   -2.453478    0.089168
      9          6           0        1.917222   -0.162916    0.204092
     10          6           0        3.305975   -0.503189    0.255202
     11          8           0        3.705003   -1.794544    0.225774
     12          6           0        4.268925    0.494188    0.336201
     13          6           0        3.883221    1.844113    0.368467
     14          6           0        2.548027    2.202241    0.320558
     15          6           0        1.547980    1.214991    0.238179
     16          6           0        0.139296    1.625833    0.188757
     17          8           0       -0.192624    2.832737    0.218391
     18          6           0       -0.860138    0.555063    0.102936
     19          6           0       -2.226280    0.894019    0.052505
     20          1           0       -5.142363   -0.080914   -1.002182
     21          1           0       -5.224656   -0.148468    0.756849
     22          1           0       -4.806841    1.371725   -0.048007
     23          1           0       -3.577375   -2.223057   -0.125401
     24          1           0       -0.184402   -3.161607   -0.003546
     25          1           0        2.864813   -2.332490    0.167346
     26          1           0        5.312511    0.202359    0.373233
     27          1           0        4.648437    2.612227    0.431928
     28          1           0        2.233434    3.237944    0.344461
     29          1           0       -2.480057    1.947138    0.079877
 ---------------------------------------------------------------------

 SCF Done:  E(UB3LYP) =  -878.877690771     A.U. after    1 cycles

 Alpha  occ. eigenvalues --  -19.01723 -19.01701 -18.98350 -18.95718 -10.12288
 Alpha  occ. eigenvalues --  -10.12264 -10.12169 -10.10811 -10.07505 -10.07413
 Alpha  occ. eigenvalues --  -10.06552 -10.06285 -10.06160 -10.06048 -10.06022
 Alpha  occ. eigenvalues --  -10.05483 -10.05228 -10.04996 -10.04778  -0.94424
 Alpha  occ. eigenvalues --   -0.93561  -0.88916  -0.88411  -0.74905  -0.73604
 Alpha  occ. eigenvalues --   -0.68639  -0.64700  -0.63231  -0.62705  -0.59612
 Alpha  occ. eigenvalues --   -0.55407  -0.52540  -0.50868  -0.47856  -0.46786
 Alpha  occ. eigenvalues --   -0.42272  -0.40951  -0.40148  -0.38567  -0.36535
 Alpha  occ. eigenvalues --   -0.35537  -0.35440  -0.32982  -0.32690  -0.31879
 Alpha  occ. eigenvalues --   -0.31405  -0.30650  -0.29599  -0.29073  -0.29062
 Alpha  occ. eigenvalues --   -0.27883  -0.27303  -0.27111  -0.25538  -0.25035
 Alpha  occ. eigenvalues --   -0.24968  -0.23810  -0.22665  -0.21858  -0.20577
 Alpha  occ. eigenvalues --   -0.15726  -0.14888  -0.13475  -0.11973  -0.11873
 Alpha  occ. eigenvalues --   -0.11042  -0.02898
 Alpha virt. eigenvalues --    0.06927   0.07428   0.08437   0.08644   0.10048
 Alpha virt. eigenvalues --    0.10579   0.11011   0.11032   0.12296   0.12302
 Alpha virt. eigenvalues --    0.12638   0.13700   0.14858   0.15356   0.15571

  Beta  occ. eigenvalues --  -19.01702 -19.01676 -18.97897 -18.95148 -10.12267
  Beta  occ. eigenvalues --  -10.12239 -10.11871 -10.10716 -10.07434 -10.07409
  Beta  occ. eigenvalues --  -10.06477 -10.06297 -10.06178 -10.05928 -10.05894
  Beta  occ. eigenvalues --  -10.05420 -10.05177 -10.04998 -10.04775  -0.94255
  Beta  occ. eigenvalues --   -0.93515  -0.88179  -0.87431  -0.74646  -0.73455
  Beta  occ. eigenvalues --   -0.68314  -0.64530  -0.62929  -0.62520  -0.59447
  Beta  occ. eigenvalues --   -0.54802  -0.52344  -0.50669  -0.47735  -0.46615
  Beta  occ. eigenvalues --   -0.42040  -0.40820  -0.40042  -0.38372  -0.36435
  Beta  occ. eigenvalues --   -0.35353  -0.35312  -0.32721  -0.32587  -0.31225
  Beta  occ. eigenvalues --   -0.31126  -0.30440  -0.29518  -0.28868  -0.28655
  Beta  occ. eigenvalues --   -0.27765  -0.27009  -0.25902  -0.24972  -0.24884
  Beta  occ. eigenvalues --   -0.23822  -0.23689  -0.22504  -0.21440  -0.19507
  Beta  occ. eigenvalues --   -0.14549  -0.13972  -0.12950  -0.11447  -0.10756
  Beta  occ. eigenvalues --   -0.10642
  Beta virt. eigenvalues --    0.02711   0.07423   0.08090   0.08432   0.09487
  Beta virt. eigenvalues --    0.10040   0.10578   0.11043   0.11243   0.12301
  Beta virt. eigenvalues --    0.12581   0.12637   0.13695   0.14856   0.15425

 Mulliken charges and spin densities:
               1          2
     1  C   -0.314795  -0.003910
     2  C    0.508512   0.059854
     3  C   -0.219467   0.041441
     4  C   -0.072740   0.033121
     5  O   -0.364985   0.007516
     6  C    0.303195  -0.038010
     7  C   -0.575217   0.167627
     8  O   -0.533548   0.158292
     9  C    0.506035  -0.020187
    10  C   -0.160392   0.033364
    11  O   -0.366015   0.008510
    12  C   -0.168897   0.041669
    13  C   -0.307361   0.061297
    14  C   -0.256585   0.018537
    15  C    0.383142   0.072567
    16  C   -0.640197   0.045684
    17  O   -0.348229   0.214710
    18  C    0.191727   0.097337
    19  C   -0.433340   0.012516
    20  H    0.136968   0.004388
    21  H    0.136822   0.004378
    22  H    0.153143   0.000137
    23  H    0.135102  -0.003857
    24  H    0.383876  -0.002410
    25  H    0.381916  -0.002321
    26  H    0.141652  -0.004213
    27  H    0.134549  -0.004605
    28  H    0.151655  -0.001562
    29  H    0.113475  -0.001873
 Sum of Mulliken charges =  -1.00000   1.00000

 Dipole moment (field-independent basis, Debye):
    X=             -3.0918    Y=              0.6191    Z=             -0.7057  Tot=              3.2312
 Quadrupole moment (field-independent basis, Debye-Ang):
   XX=           -137.0902   YY=           -146.5505   ZZ=           -116.8425
   XY=              4.0059   XZ=             -1.1669   YZ=             -0.8507

  Exact polarizability: 353.542  23.190 240.470  12.384   6.156 103.880
 Approx polarizability: 520.260  13.437 454.163  16.828  11.322 166.504

                      1                      2                      3
                      A                      A                      A
 Frequencies --     48.1819                74.8041                82.1280
 Red. masses --      5.3722                 6.3347                 1.0802
 Frc consts  --      0.0073                 0.0209                 0.0043
 IR Inten    --      2.7321                 0.1460                 0.0160

                      4                      5                      6
                      A                      A                      A
 Frequencies --    117.1551               150.4016               190.9586
 Red. masses --      9.7292                 5.9556                 4.9012
 Frc consts  --      0.0787                 0.0794                 0.1053
 IR Inten    --      1.2947                 0.6836                 0.5467

                      7                      8                      9
                      A                      A                      A
 Frequencies --    191.7050               215.9402               253.8804
 Red. masses --      4.4201                 4.4730                 5.1081
 Frc consts  --      0.0957                 0.1229                 0.1940
 IR Inten    --      0.8498                 0.5113                 0.0226

                     10                     11                     12
                      A                      A                      A
 Frequencies --    274.3672               314.3107               337.8954
 Red. masses --      4.7844                 5.7351                 6.4030
 Frc consts  --      0.2122                 0.3338                 0.4307
 IR Inten    --      0.2492                 0.9896                 2.6701

                     13                     14                     15
                      A                      A                      A
 Frequencies --    349.7069               372.1820               426.2228
 Red. masses --      5.4208                 7.4060                 6.2725
 Frc consts  --      0.3906                 0.6044                 0.6714
 IR Inten    --      3.2675                 1.6851                 1.0851

                     16                     17                     18
                      A                      A                      A
 Frequencies --    443.3175               460.5817               492.9617
 Red. masses --      7.2826                 9.5345                10.7637
 Frc consts  --      0.8433                 1.1917                 1.5411
 IR Inten    --     31.4897                21.2002                 3.0294

                     19                     20                     21
                      A                      A                      A
 Frequencies --    500.4825               505.7285               554.0356
 Red. masses --      5.4030                 4.3230                 8.1454
 Frc consts  --      0.7974                 0.6514                 1.4731
 IR Inten    --      0.6655                 4.3430                 2.0512

                     22                     23                     24
                      A                      A                      A
 Frequencies --    558.7209               572.1513               599.6255
 Red. masses --      4.8014                 7.2095                 4.6440
 Frc consts  --      0.8831                 1.3905                 0.9838
 IR Inten    --      0.0220                21.7596                 0.4672

                     25                     26                     27
                      A                      A                      A
 Frequencies --    613.1227               636.0941               678.7510
 Red. masses --      4.9881                 3.9297                 5.8330
 Frc consts  --      1.1048                 0.9368                 1.5833
 IR Inten    --      5.3104                 6.5346                17.8780

                     28                     29                     30
                      A                      A                      A
 Frequencies --    719.9711               741.7067               744.0120
 Red. masses --      3.1085                 5.7015                 6.5168
 Frc consts  --      0.9494                 1.8480                 2.1254
 IR Inten    --      5.8570                 4.4051                 0.9254

                     31                     32                     33
                      A                      A                      A
 Frequencies --    762.1084               798.6217               822.1181
 Red. masses --      2.3577                 2.5881                 8.0125
 Frc consts  --      0.8068                 0.9726                 3.1907
 IR Inten    --     44.7720                20.7901                28.6530

                     34                     35                     36
                      A                      A                      A
 Frequencies --    839.4424               870.9634               876.3211
 Red. masses --      1.5148                 1.1221                 1.3270
 Frc consts  --      0.6289                 0.5015                 0.6004
 IR Inten    --     49.5099               113.7261                12.6159

                     37                     38                     39
                      A                      A                      A
 Frequencies --    890.3797               900.1939               913.0686
 Red. masses --      1.0597                 1.3885                 5.7465
 Frc consts  --      0.4950                 0.6630                 2.8227
 IR Inten    --      0.1928                 4.1800                16.2630

                     40                     41                     42
                      A                      A                      A
 Frequencies --    964.4975               975.3131              1005.0103
 Red. masses --      1.2791                 5.4810                 1.7871
 Frc consts  --      0.7011                 3.0718                 1.0635
 IR Inten    --      1.1840                 3.1789                16.1830

                     43                     44                     45
                      A                      A                      A
 Frequencies --   1029.6514              1053.3582              1068.7990
 Red. masses --      3.3581                 1.4924                 2.2406
 Frc consts  --      2.0976                 0.9756                 1.5080
 IR Inten    --     63.4157                 2.5270                22.4734

                     46                     47                     48
                      A                      A                      A
 Frequencies --   1089.3987              1147.1026              1168.9826
 Red. masses --      2.6982                 2.4301                 1.3326
 Frc consts  --      1.8867                 1.8840                 1.0729
 IR Inten    --      2.2340                 3.2244                26.7062

                     49                     50                     51
                      A                      A                      A
 Frequencies --   1178.2269              1219.4669              1242.1526
 Red. masses --      2.0979                 1.7462                 4.0252
 Frc consts  --      1.7159                 1.5300                 3.6592
 IR Inten    --     84.6756                 6.1566                16.2104

                     52                     53                     54
                      A                      A                      A
 Frequencies --   1281.5280              1306.9155              1309.6024
 Red. masses --      2.3499                 3.5316                 6.1797
 Frc consts  --      2.2738                 3.5540                 6.2445
 IR Inten    --     23.7095                32.2189                27.1004

                     55                     56                     57
                      A                      A                      A
 Frequencies --   1342.3775              1371.5549              1390.9534
 Red. masses --      5.3193                 6.6674                 4.9749
 Frc consts  --      5.6474                 7.3898                 5.6710
 IR Inten    --    270.4666                27.6261               124.0733

                     58                     59                     60
                      A                      A                      A
 Frequencies --   1401.8005              1415.9679              1420.7492
 Red. masses --      1.3128                 2.6674                 3.1939
 Frc consts  --      1.5199                 3.1510                 3.7985
 IR Inten    --     11.6963                71.7232                46.3403

                     61                     62                     63
                      A                      A                      A
 Frequencies --   1462.8209              1483.0167              1489.7847
 Red. masses --      3.6030                 1.0452                 3.3855
 Frc consts  --      4.5425                 1.3544                 4.4272
 IR Inten    --     27.5087                 5.2120                68.6184

                     64                     65                     66
                      A                      A                      A
 Frequencies --   1498.1624              1528.7146              1544.0662
 Red. masses --      1.3039                 2.0748                 5.3369
 Frc consts  --      1.7243                 2.8568                 7.4967
 IR Inten    --     40.7475                37.9659               710.1607

                     67                     68                     69
                      A                      A                      A
 Frequencies --   1569.3640              1582.6222              1609.0983
 Red. masses --      3.7246                 2.6037                 6.0561
 Frc consts  --      5.4048                 3.8423                 9.2387
 IR Inten    --    173.3436                 4.8113               154.5852

                     70                     71                     72
                      A                      A                      A
 Frequencies --   1638.9537              1672.8546              3001.2395
 Red. masses --      3.6152                 2.9262                 1.0381
 Frc consts  --      5.7215                 4.8246                 5.5092
 IR Inten    --    123.9336                19.9184               127.5365

                     73                     74                     75
                      A                      A                      A
 Frequencies --   3040.3253              3073.2201              3088.9472
 Red. masses --      1.0997                 1.0696                 1.0978
 Frc consts  --      5.9892                 5.9519                 6.1717
 IR Inten    --     34.1340               807.1368                30.3431

                     76                     77                     78
                      A                      A                      A
 Frequencies --   3137.5016              3143.0179              3158.1570
 Red. masses --      1.0729                 1.0860                 1.0894
 Frc consts  --      6.2227                 6.3207                 6.4020
 IR Inten    --      7.0860                21.2839                26.4920

                     79                     80                     81
                      A                      A                      A
 Frequencies --   3175.1321              3182.3898              3195.4899
 Red. masses --      1.0917                 1.0895                 1.0919
 Frc consts  --      6.4848                 6.5014                 6.5692
 IR Inten    --     31.2898                11.2172                15.2829

 - Thermochemistry -
 -------------------
 Temperature   298.150 Kelvin.  Pressure   1.00000 Atm.
 Atom     1 has atomic number  6 and mass  12.00000

 Molecular mass:   254.05791 amu.
 Principal axes and moments of inertia in atomic units:
                           1         2         3
     Eigenvalues --  2553.149776050.723698592.69651
           X            0.98978  -0.13498  -0.04595
           Y            0.13335   0.99038  -0.03698
           Z            0.05050   0.03047   0.99826
 This molecule is an asymmetric top.
 Rotational symmetry number  1.
 Warning -- assumption of classical behavior for rotation
           may cause significant error
 Rotational temperatures (Kelvin)      0.03392     0.01431     0.01008
 Rotational constants (GHZ):           0.70687     0.29827     0.21003
 Zero-point vibrational energy     559568.9 (Joules/Mol)
                                  133.74017 (Kcal/Mol)
 Warning -- explicit consideration of  25 degrees of freedom as
           vibrations may cause significant error
 Vibrational temperatures:     69.32   107.63   118.16   168.56   216.39
          (Kelvin)            274.75   275.82   310.69   365.28   394.75
                              452.22   486.16   503.15   535.49   613.24
                              637.83   662.67   709.26   720.08   727.63
                              797.13   803.87   823.20   862.73   882.15
                              915.20   976.57  1035.88  1067.15  1070.47
                             1096.50  1149.04  1182.84  1207.77  1253.12
                             1260.83  1281.06  1295.18  1313.70  1387.70
                             1403.26  1445.99  1481.44  1515.55  1537.76
                             1567.40  1650.42  1681.91  1695.21  1754.54
                             1787.18  1843.83  1880.36  1884.23  1931.38
                             1973.36  2001.27  2016.88  2037.26  2044.14
                             2104.67  2133.73  2143.47  2155.52  2199.48
                             2221.57  2257.96  2277.04  2315.13  2358.09
                             2406.86  4318.11  4374.35  4421.68  4444.31
                             4514.17  4522.10  4543.88  4568.31  4578.75
                             4597.60

 Zero-point correction=                           0.213129 (Hartree/Particle)
 Thermal correction to Energy=                    0.227735
 Thermal correction to Enthalpy=                  0.228679
 Thermal correction to Gibbs Free Energy=         0.171074
 Sum of electronic and zero-point Energies=           -878.664562
 Sum of electronic and thermal Energies=              -878.649955
 Sum of electronic and thermal Enthalpies=            -878.649011
 Sum of electronic and thermal Free Energies=         -878.706617

                     E (Thermal)             CV                S
                      KCal/Mol        Cal/Mol-Kelvin    Cal/Mol-Kelvin
 Total                  142.906             58.894            121.241
 Electronic               0.000              0.000              1.377
 Translational            0.889              2.981             42.497
 Rotational               0.889              2.981             33.251
 Vibrational            141.129             52.932             44.116
 Vibration     1          0.595              1.978              4.891
 Vibration     2          0.599              1.966              4.023
 Vibration     3          0.600              1.961              3.839
 Vibration     4          0.608              1.935              3.147
 Vibration     5          0.618              1.902              2.667
 Vibration     6          0.634              1.852              2.219
 Vibration     7          0.634              1.851              2.211
 Vibration     8          0.645              1.817              1.993
 Vibration     9          0.665              1.756              1.703
 Vibration    10          0.677              1.721              1.569
 Vibration    11          0.702              1.646              1.340
 Vibration    12          0.718              1.600              1.222
 Vibration    13          0.727              1.576              1.168
 Vibration    14          0.744              1.529              1.071
 Vibration    15          0.788              1.413              0.871
 Vibration    16          0.803              1.376              0.816
 Vibration    17          0.818              1.337              0.764
 Vibration    18          0.849              1.266              0.676
 Vibration    19          0.856              1.249              0.657
 Vibration    20          0.861              1.237              0.644
 Vibration    21          0.909              1.131              0.536
 Vibration    22          0.914              1.121              0.526
 Vibration    23          0.928              1.091              0.500
 Vibration    24          0.958              1.033              0.450
 Vibration    25          0.972              1.004              0.428

 Optimization completed.
    -- Stationary point found.
 Normal termination of Gaussian 16 at Thu Dec 21 22:35:49 2023.
