 Q-Chem 5.4, Q-Chem, Inc., Pleasanton, CA (2021)
 Q-Chem 5.4.0 for Intel X86 EM64T Linux

User input:
--------------------------------------------------------------
$molecule
0 1
C                 -1.8831200000      3.5057350000     -0.9505460000
C                 -2.9893010000      2.9093670000     -0.3631540000
C                 -0.6632560000      2.8231180000     -1.0196650000
C                 -0.5215960000      1.5193390000     -0.4990370000
C                 -2.8709110000      1.6174380000      0.1593600000
C                 -1.6613440000      0.9444510000      0.0891910000
C                  0.4753590000      3.5240410000     -1.6616710000
C                  1.8322660000      2.7743430000     -1.7426800000
C                  1.9002910000      1.4066390000     -1.1729020000
C                  0.7722230000      0.8044250000     -0.5764020000
C                  3.1270360000      0.7373470000     -1.2500960000
C                  3.2612310000     -0.5444350000     -0.7369400000
C                  2.1556380000     -1.1600560000     -0.1412710000
C                  0.9423550000     -0.4942840000     -0.0666010000
O                  0.3919130000      4.6425240000     -2.1194300000
O                  2.7788530000      3.3236980000     -2.2620000000
O                  4.4270200000     -1.2515120000     -0.7797120000
O                 -4.2057050000      3.5186960000     -0.2634240000
H                 -1.9322820000      4.5063320000     -1.3677730000
H                 -3.7368860000      1.1548640000      0.6173690000
H                 -1.6170970000     -0.0524090000      0.5064590000
H                  3.9596550000      1.2507140000     -1.7200780000
H                  2.2641290000     -2.1611310000      0.2584060000
H                  0.1154200000     -1.0098270000      0.4026460000
H                  5.1136470000     -0.7301280000     -1.2098100000
H                 -4.1672490000      4.3983120000     -0.6546780000
$end
$rem
MAX_SCF_CYCLES=200
BASIS  =  6-311++G(d,p)
GUI  =  2
JOB_TYPE  =  SP
METHOD  =  B3LYP
SOLVENT_METHOD = COSMO
$end
$solvent
dielectric 37.219
opticaldielectric 1.43
$end

--------------------------------------------------------------

             Standard Nuclear Orientation (Angstroms)
    I     Atom           X                Y                Z
 ----------------------------------------------------------------
    1      C       2.8659747243    -0.5287081995    -0.0002001146
    2      C       3.5755237885     0.6632904072    -0.0001296181
    3      C       1.4664251302    -0.5201933369    -0.0000808090
    4      C       0.7401188400     0.6895338587     0.0001084888
    5      C       2.8753789991     1.8740401042     0.0001122184
    6      C       1.4894259153     1.8786817802     0.0002622544
    7      C       0.7761697430    -1.8329981077     0.0000102956
    8      C      -0.7761852851    -1.8329988099     0.0001613455
    9      C      -1.4664348308    -0.5201986961    -0.0000044150
   10      C      -0.7401024189     0.6895337442     0.0001164144
   11      C      -2.8659852773    -0.5287147289    -0.0001259645
   12      C      -3.5755330923     0.6632770379    -0.0001185724
   13      C      -2.8753641499     1.8740247688     0.0000789427
   14      C      -1.4894124526     1.8786601015     0.0001758658
   15      O       1.3653848802    -2.8914574968     0.0000556214
   16      O      -1.3653862102    -2.8914662816     0.0002509109
   17      O      -4.9382538725     0.7252719014    -0.0002986107
   18      O       4.9382525231     0.7252337592    -0.0002361890
   19      H       3.3704053096    -1.4895616791    -0.0002590650
   20      H       3.4328281206     2.8029696610     0.0001863513
   21      H       0.9910984226     2.8386140173     0.0004874816
   22      H      -3.3703727600    -1.4895874665    -0.0002014522
   23      H      -3.4328006412     2.8029637955     0.0000845327
   24      H      -0.9910825665     2.8385903811     0.0002701939
   25      H      -5.3090773330    -0.1639817739    -0.0005521752
   26      H       5.3090250824    -0.1640415358    -0.0003877197
 ----------------------------------------------------------------

    9    -839.4320180972      3.44e-06  Convergence criterion met
 Total energy in the final basis set =     -839.4320180972
    5    -839.4605817943      3.79e-06  Convergence criterion met
 Total energy in the final basis set =     -839.4605817943

                    Orbital Energies (a.u.)
 --------------------------------------------------------------

 Alpha MOs
 -- Occupied --
-19.1688 -19.1688 -19.1454 -19.1454 -10.2872 -10.2870 -10.2558 -10.2558
-10.2124 -10.2121 -10.2066 -10.2066 -10.1961 -10.1961 -10.1958 -10.1958
-10.1949 -10.1949  -1.0920  -1.0806  -1.0805  -1.0651  -0.9004  -0.8724
 -0.8086  -0.7900  -0.7783  -0.7422  -0.7143  -0.6615  -0.6495  -0.6224
 -0.6191  -0.5826  -0.5673  -0.5384  -0.5224  -0.5092  -0.4948  -0.4859
 -0.4692  -0.4656  -0.4587  -0.4581  -0.4506  -0.4336  -0.4303  -0.4281
 -0.4181  -0.4026  -0.3995  -0.3847  -0.3818  -0.3794  -0.3609  -0.3449
 -0.3194  -0.2851  -0.2782  -0.2775  -0.2709  -0.2258

          Ground-State Mulliken Net Atomic Charges

     Atom                 Charge (a.u.)
  ----------------------------------------
      1 C                     0.251906
      2 C                    -0.510340
      3 C                     0.757316
      4 C                     0.493119
      5 C                    -0.450218
      6 C                    -0.344342
      7 C                    -0.526038
      8 C                    -0.525538
      9 C                     0.757324
     10 C                     0.492982
     11 C                     0.252800
     12 C                    -0.510483
     13 C                    -0.450282
     14 C                    -0.344260
     15 O                    -0.291799
     16 O                    -0.291811
     17 O                    -0.291626
     18 O                    -0.291621
     19 H                     0.185699
     20 H                     0.249502
     21 H                     0.146156
     22 H                     0.185692
     23 H                     0.249476
     24 H                     0.146311
     25 H                     0.330042
     26 H                     0.330036
  ----------------------------------------
  Sum of atomic charges =     0.000000

                    Cartesian Multipole Moments
 -----------------------------------------------------------------
    Charge (ESU x 10^10)
                 0.0000
    Dipole Moment (Debye)
         X      -0.0005      Y       5.6657      Z      -0.0010
       Tot       5.6657
    Quadrupole Moments (Debye-Ang)
        XX     -83.9676     XY       0.0018     YY    -115.8431
        XZ       0.0010     YZ       0.0051     ZZ    -105.1780

 Total job time:  55.30s(wall), 414.07s(cpu)
        *  Thank you very much for using Q-Chem.  Have a nice day.  *
