 Gaussian 16, Revision A.03,
 Gaussian 16:  ES64L-G16RevA.03 25-Dec-2016

 ----------------------------------------------------------------------
 #P UB3LYP/6-311++G(d,p) nosym opt freq SCRF=(PCM,Solvent=n,n-DiMethylF
 ormamide)
 ----------------------------------------------------------------------

 --------
 Oxidized
 --------
 Symbolic Z-matrix:
 Charge =  0 Multiplicity = 1

 SCF Done:  E(UB3LYP) =  -1144.84555509     A.U. after   15 cycles
 SCF Done:  E(UB3LYP) =  -1144.84589126     A.U. after   13 cycles
 SCF Done:  E(UB3LYP) =  -1144.84571741     A.U. after   13 cycles
 SCF Done:  E(UB3LYP) =  -1144.84615290     A.U. after   12 cycles
 SCF Done:  E(UB3LYP) =  -1144.84619677     A.U. after   12 cycles
 SCF Done:  E(UB3LYP) =  -1144.84624211     A.U. after   12 cycles
 SCF Done:  E(UB3LYP) =  -1144.84627722     A.U. after   12 cycles
 SCF Done:  E(UB3LYP) =  -1144.84629800     A.U. after   12 cycles
 SCF Done:  E(UB3LYP) =  -1144.84630312     A.U. after   11 cycles
 SCF Done:  E(UB3LYP) =  -1144.84630879     A.U. after   10 cycles
 SCF Done:  E(UB3LYP) =  -1144.84631107     A.U. after    9 cycles
 SCF Done:  E(UB3LYP) =  -1144.84631151     A.U. after    9 cycles
 SCF Done:  E(UB3LYP) =  -1144.84631174     A.U. after    9 cycles
 SCF Done:  E(UB3LYP) =  -1144.84631201     A.U. after    9 cycles
 SCF Done:  E(UB3LYP) =  -1144.84631222     A.U. after    8 cycles
 SCF Done:  E(UB3LYP) =  -1144.84631231     A.U. after    8 cycles
 SCF Done:  E(UB3LYP) =  -1144.84631236     A.U. after    8 cycles
 SCF Done:  E(UB3LYP) =  -1144.84631238     A.U. after    8 cycles
 SCF Done:  E(UB3LYP) =  -1144.84631239     A.U. after    8 cycles
 Optimization completed.
    -- Stationary point found.
 Normal termination of Gaussian 16 at Sat Feb 10 20:12:54 2024.

 ----------------------------------------------------------------------
 #P Geom=AllCheck Guess=TCheck SCRF=Check GenChk UB3LYP/6-311++G(d,p) F
 req
 ----------------------------------------------------------------------

 Structure from the checkpoint file:  "145.chk"
 --------
 Oxidized
 --------
 Charge =  0 Multiplicity = 1

                          Input orientation:
 ---------------------------------------------------------------------
 Center     Atomic      Atomic             Coordinates (Angstroms)
 Number     Number       Type             X           Y           Z
 ---------------------------------------------------------------------
      1          6           0       -4.990046   -1.553085   -0.637788
      2          6           0       -3.544271   -1.795344   -0.333481
      3          8           0       -3.092798   -2.402827    0.602221
      4          8           0       -2.749323   -1.227054   -1.298719
      5          6           0       -1.372830   -1.248844   -1.128330
      6          6           0       -0.675371   -2.226650   -1.827556
      7          6           0        0.707847   -2.256790   -1.777398
      8          6           0        1.394593   -1.309483   -1.027470
      9          8           0        2.779545   -1.347371   -1.097387
     10          6           0        3.476658   -1.953450   -0.080966
     11          6           0        4.949973   -1.775423   -0.279257
     12          8           0        2.932325   -2.542985    0.816020
     13          6           0        0.715572   -0.300472   -0.328275
     14          6           0        1.465231    0.745279    0.437750
     15          8           0        2.654306    0.630665    0.696795
     16          6           0        0.713387    1.953011    0.868485
     17          6           0        1.415637    3.056170    1.364730
     18          6           0        0.727548    4.188548    1.785133
     19          6           0       -0.669137    4.220449    1.732361
     20          6           0       -1.374490    3.119863    1.259395
     21          6           0       -0.687891    1.984927    0.815659
     22          6           0       -1.459617    0.811775    0.328050
     23          8           0       -2.669007    0.753002    0.495624
     24          6           0       -0.702993   -0.268983   -0.380376
     25          1           0       -5.205784   -0.493218   -0.482044
     26          1           0       -5.611103   -2.153776    0.022877
     27          1           0       -5.205956   -1.788145   -1.681103
     28          1           0       -1.228169   -2.952399   -2.410381
     29          1           0        1.269342   -3.006597   -2.320057
     30          1           0        5.200313   -0.725257   -0.110331
     31          1           0        5.230424   -2.024914   -1.303767
     32          1           0        5.494489   -2.399679    0.425576
     33          1           0        2.496178    3.013334    1.410642
     34          1           0        1.275438    5.046374    2.156615
     35          1           0       -1.203773    5.103020    2.062942
     36          1           0       -2.456246    3.126333    1.223816
 ---------------------------------------------------------------------

 SCF Done:  E(UB3LYP) =  -1144.84631239     A.U. after    1 cycles

 Alpha  occ. eigenvalues --  -19.19226 -19.19225 -19.13754 -19.13752 -19.13438
 Alpha  occ. eigenvalues --  -19.13436 -10.32725 -10.32724 -10.29330 -10.29329
 Alpha  occ. eigenvalues --  -10.27461 -10.27459 -10.22986 -10.22940 -10.21333
 Alpha  occ. eigenvalues --  -10.21301 -10.21282 -10.21242 -10.20193 -10.20169
 Alpha  occ. eigenvalues --  -10.20132 -10.20104 -10.18545 -10.18542  -1.13628
 Alpha  occ. eigenvalues --   -1.13584  -1.07314  -1.07129  -1.05144  -1.05094
 Alpha  occ. eigenvalues --   -0.90645  -0.89029  -0.82595  -0.81107  -0.78285
 Alpha  occ. eigenvalues --   -0.78272  -0.77389  -0.74969  -0.70514  -0.68678
 Alpha  occ. eigenvalues --   -0.66121  -0.66114  -0.62287  -0.60994  -0.57542
 Alpha  occ. eigenvalues --   -0.57417  -0.54457  -0.52782  -0.51324  -0.51240
 Alpha  occ. eigenvalues --   -0.50982  -0.50506  -0.49997  -0.49534  -0.48517
 Alpha  occ. eigenvalues --   -0.47612  -0.46571  -0.46245  -0.46166  -0.45494
 Alpha  occ. eigenvalues --   -0.45479  -0.44212  -0.43179  -0.42625  -0.42430
 Alpha  occ. eigenvalues --   -0.41887  -0.41294  -0.40659  -0.39506  -0.39492
 Alpha  occ. eigenvalues --   -0.38743  -0.38694  -0.37494  -0.37269  -0.34495
 Alpha  occ. eigenvalues --   -0.34021  -0.30708  -0.30504  -0.30056  -0.29324
 Alpha  occ. eigenvalues --   -0.28429  -0.28307  -0.28016  -0.27420
 Alpha virt. eigenvalues --   -0.12467  -0.08089  -0.04596  -0.03386  -0.01777
 Alpha virt. eigenvalues --   -0.01663  -0.00783  -0.00088   0.00089   0.01229
 Alpha virt. eigenvalues --    0.01786   0.01963   0.02442   0.02489   0.03139

  Beta  occ. eigenvalues --  -19.19226 -19.19225 -19.13754 -19.13752 -19.13438
  Beta  occ. eigenvalues --  -19.13436 -10.32725 -10.32724 -10.29330 -10.29329
  Beta  occ. eigenvalues --  -10.27461 -10.27459 -10.22986 -10.22940 -10.21333
  Beta  occ. eigenvalues --  -10.21301 -10.21282 -10.21242 -10.20193 -10.20169
  Beta  occ. eigenvalues --  -10.20132 -10.20104 -10.18545 -10.18542  -1.13628
  Beta  occ. eigenvalues --   -1.13584  -1.07314  -1.07129  -1.05144  -1.05094
  Beta  occ. eigenvalues --   -0.90645  -0.89029  -0.82595  -0.81107  -0.78285
  Beta  occ. eigenvalues --   -0.78272  -0.77389  -0.74969  -0.70514  -0.68678
  Beta  occ. eigenvalues --   -0.66121  -0.66114  -0.62287  -0.60994  -0.57542
  Beta  occ. eigenvalues --   -0.57417  -0.54457  -0.52782  -0.51324  -0.51240
  Beta  occ. eigenvalues --   -0.50982  -0.50506  -0.49997  -0.49534  -0.48517
  Beta  occ. eigenvalues --   -0.47612  -0.46571  -0.46245  -0.46166  -0.45494
  Beta  occ. eigenvalues --   -0.45479  -0.44212  -0.43179  -0.42625  -0.42430
  Beta  occ. eigenvalues --   -0.41887  -0.41294  -0.40659  -0.39506  -0.39492
  Beta  occ. eigenvalues --   -0.38743  -0.38694  -0.37494  -0.37269  -0.34495
  Beta  occ. eigenvalues --   -0.34021  -0.30708  -0.30504  -0.30056  -0.29324
  Beta  occ. eigenvalues --   -0.28429  -0.28307  -0.28016  -0.27420
  Beta virt. eigenvalues --   -0.12467  -0.08089  -0.04596  -0.03386  -0.01777
  Beta virt. eigenvalues --   -0.01663  -0.00783  -0.00088   0.00089   0.01229
  Beta virt. eigenvalues --    0.01786   0.01963   0.02442   0.02489   0.03139

 Mulliken charges and spin densities:
               1          2
     1  C   -0.482462   0.000000
     2  C    0.060276  -0.000000
     3  O   -0.253745  -0.000000
     4  O    0.034317  -0.000000
     5  C   -0.463509   0.000000
     6  C    0.132368   0.000000
     7  C    0.134379  -0.000000
     8  C   -0.470826  -0.000000
     9  O    0.034650  -0.000000
    10  C    0.060429  -0.000000
    11  C   -0.482331   0.000000
    12  O   -0.253802   0.000000
    13  C    1.081785   0.000000
    14  C   -0.266038  -0.000000
    15  O   -0.249994  -0.000000
    16  C   -0.277128  -0.000000
    17  C   -0.035936  -0.000000
    18  C   -0.475252   0.000000
    19  C   -0.474196   0.000000
    20  C   -0.034576   0.000000
    21  C   -0.274178   0.000000
    22  C   -0.262797  -0.000000
    23  O   -0.249550  -0.000000
    24  C    1.073430  -0.000000
    25  H    0.198043  -0.000000
    26  H    0.178597  -0.000000
    27  H    0.187440  -0.000000
    28  H    0.235035   0.000000
    29  H    0.234906  -0.000000
    30  H    0.197902  -0.000000
    31  H    0.187506  -0.000000
    32  H    0.178672  -0.000000
    33  H    0.186951   0.000000
    34  H    0.211394   0.000000
    35  H    0.211469  -0.000000
    36  H    0.186769   0.000000
 Sum of Mulliken charges =  -0.00000  -0.00000

 Dipole moment (field-independent basis, Debye):
    X=              0.2557    Y=              3.7889    Z=             -4.6884  Tot=              6.0334
 Quadrupole moment (field-independent basis, Debye-Ang):
   XX=           -120.4400   YY=           -119.8206   ZZ=           -134.6399
   XY=             -0.8606   XZ=              1.0402   YZ=             24.8260

  Exact polarizability: 377.201  -3.682 345.624   7.210  79.096 231.204
 Approx polarizability: 446.699  -4.453 378.981   8.140  77.769 276.119

                      1                      2                      3
                      A                      A                      A
 Frequencies --     28.1487                30.9644                44.2678
 Red. masses --      8.5992                 8.1972                 5.4672
 Frc consts  --      0.0040                 0.0046                 0.0063
 IR Inten    --      1.2903                 5.9082                 1.0498

                      4                      5                      6
                      A                      A                      A
 Frequencies --     59.7899                64.8496                71.6595
 Red. masses --      4.2287                 4.0302                 1.4279
 Frc consts  --      0.0089                 0.0100                 0.0043
 IR Inten    --      5.0976                 0.3957                 2.9963

                      7                      8                      9
                      A                      A                      A
 Frequencies --     73.8558                91.1120                94.1603
 Red. masses --      1.4171                 2.1290                 2.3684
 Frc consts  --      0.0046                 0.0104                 0.0124
 IR Inten    --      4.3438                 0.4468                 7.8038

                     10                     11                     12
                      A                      A                      A
 Frequencies --    112.9489               126.5190               151.5467
 Red. masses --      5.2464                 8.1019                 7.3043
 Frc consts  --      0.0394                 0.0764                 0.0988
 IR Inten    --      0.1513                 4.8894                 0.2856

                     13                     14                     15
                      A                      A                      A
 Frequencies --    180.7345               213.2346               247.5672
 Red. masses --      6.9461                 6.8914                 7.4840
 Frc consts  --      0.1337                 0.1846                 0.2703
 IR Inten    --      4.4620                 0.4403                 0.9924

                     16                     17                     18
                      A                      A                      A
 Frequencies --    278.0194               287.9197               314.7690
 Red. masses --      3.8189                 5.7109                 8.3110
 Frc consts  --      0.1739                 0.2789                 0.4852
 IR Inten    --     12.4982                 0.6577                 5.1145

                     19                     20                     21
                      A                      A                      A
 Frequencies --    333.4941               372.0830               400.2236
 Red. masses --      7.0080                 5.3005                11.9739
 Frc consts  --      0.4592                 0.4324                 1.1300
 IR Inten    --      0.5194                 0.7938                33.6966

                     22                     23                     24
                      A                      A                      A
 Frequencies --    413.4644               418.5921               430.2982
 Red. masses --      4.2995                 4.9138                 5.4170
 Frc consts  --      0.4331                 0.5073                 0.5909
 IR Inten    --      3.9124                 6.7014                 1.1587

                     25                     26                     27
                      A                      A                      A
 Frequencies --    440.3608               487.2271               487.5064
 Red. masses --      5.3406                 6.2094                 8.9138
 Frc consts  --      0.6102                 0.8685                 1.2482
 IR Inten    --     13.6548                 0.1031                 2.1735

                     28                     29                     30
                      A                      A                      A
 Frequencies --    500.9734               524.2394               565.0026
 Red. masses --      4.7056                 4.8501                 5.3587
 Frc consts  --      0.6958                 0.7853                 1.0079
 IR Inten    --      1.9824                13.6991                27.5416

                     31                     32                     33
                      A                      A                      A
 Frequencies --    578.8744               586.4473               606.3619
 Red. masses --      3.2679                 2.9200                 4.2429
 Frc consts  --      0.6452                 0.5917                 0.9191
 IR Inten    --     13.3072                31.3939                23.2698

                     34                     35                     36
                      A                      A                      A
 Frequencies --    643.3795               661.9729               668.4362
 Red. masses --      6.1895                 6.4607                 5.1794
 Frc consts  --      1.5095                 1.6680                 1.3635
 IR Inten    --     14.9855                15.7491                 0.0020

                     37                     38                     39
                      A                      A                      A
 Frequencies --    699.2068               720.7481               726.8624
 Red. masses --      4.2759                 6.6814                 6.3635
 Frc consts  --      1.2316                 2.0450                 1.9808
 IR Inten    --     30.4564                 1.1889                 3.7856

                     40                     41                     42
                      A                      A                      A
 Frequencies --    744.1099               784.0917               814.6892
 Red. masses --      1.9518                 5.8782                 2.3623
 Frc consts  --      0.6367                 2.1293                 0.9238
 IR Inten    --     51.8667                 3.3558                34.2237

                     43                     44                     45
                      A                      A                      A
 Frequencies --    823.7212               830.3059               871.7330
 Red. masses --      6.2927                 2.2823                 6.5470
 Frc consts  --      2.5156                 0.9270                 2.9313
 IR Inten    --      9.4260                16.8977                 3.2893

                     46                     47                     48
                      A                      A                      A
 Frequencies --    881.7280               913.4471               921.4148
 Red. masses --      3.6974                 1.4796                 4.3020
 Frc consts  --      1.6936                 0.7274                 2.1520
 IR Inten    --     98.4336                 1.5139               224.0871

                     49                     50                     51
                      A                      A                      A
 Frequencies --    923.9386               952.7500               991.9448
 Red. masses --      6.2710                 5.4926                 1.4223
 Frc consts  --      3.1541                 2.9376                 0.8245
 IR Inten    --     12.4343                87.5731                 4.7518

                     52                     53                     54
                      A                      A                      A
 Frequencies --   1000.8724              1009.9898              1020.2893
 Red. masses --      1.3875                 2.0949                 2.0755
 Frc consts  --      0.8189                 1.2591                 1.2730
 IR Inten    --      1.6804                54.6286               342.7686

                     55                     56                     57
                      A                      A                      A
 Frequencies --   1023.2370              1047.5000              1058.3928
 Red. masses --      1.3334                 2.7699                 1.7754
 Frc consts  --      0.8225                 1.7907                 1.1718
 IR Inten    --      0.1642                20.9124                26.1966

                     58                     59                     60
                      A                      A                      A
 Frequencies --   1058.4633              1083.0198              1114.2864
 Red. masses --      1.7746                 2.2294                 2.3102
 Frc consts  --      1.1714                 1.5407                 1.6900
 IR Inten    --     10.4307                26.3271                 0.0001

                     61                     62                     63
                      A                      A                      A
 Frequencies --   1173.1103              1177.2407              1182.8051
 Red. masses --      1.2916                 3.7867                 1.1843
 Frc consts  --      1.0473                 3.0920                 0.9762
 IR Inten    --      6.4909              1333.7118                43.2729

                     64                     65                     66
                      A                      A                      A
 Frequencies --   1189.3526              1192.6709              1242.4381
 Red. masses --      2.4075                 3.8541                 6.6371
 Frc consts  --      2.0065                 3.2301                 6.0364
 IR Inten    --    114.3241               550.7096                 4.9604

                     67                     68                     69
                      A                      A                      A
 Frequencies --   1253.6455              1256.1639              1274.2459
 Red. masses --      2.4067                 2.0107                 5.4874
 Frc consts  --      2.2285                 1.8693                 5.2496
 IR Inten    --     12.0666                22.2335               772.9114

                     70                     71                     72
                      A                      A                      A
 Frequencies --   1318.2264              1341.5089              1360.7365
 Red. masses --      2.6561                 9.5133                 8.1955
 Frc consts  --      2.7194                10.0871                 8.9408
 IR Inten    --      0.3944               305.1976                 0.5718

                     73                     74                     75
                      A                      A                      A
 Frequencies --   1391.7518              1392.1930              1423.4878
 Red. masses --      1.2955                 1.2993                 6.2417
 Frc consts  --      1.4784                 1.4837                 7.4518
 IR Inten    --    120.2252                31.4802               136.2859

                     76                     77                     78
                      A                      A                      A
 Frequencies --   1458.6263              1458.8407              1463.1705
 Red. masses --      1.0528                 1.0492                 1.0536
 Frc consts  --      1.3197                 1.3156                 1.3290
 IR Inten    --     10.7859                44.8709                 9.4956

                     79                     80                     81
                      A                      A                      A
 Frequencies --   1463.4708              1474.8128              1482.2060
 Red. masses --      1.0542                 2.9115                 2.6069
 Frc consts  --      1.3302                 3.7312                 3.3744
 IR Inten    --     22.2496                 5.6900                10.5413

                     82                     83                     84
                      A                      A                      A
 Frequencies --   1507.8636              1608.3873              1609.3430
 Red. masses --      2.6039                 7.1642                 6.7789
 Frc consts  --      3.4881                10.9194                10.3444
 IR Inten    --      5.9575               269.6688                 6.0045

                     85                     86                     87
                      A                      A                      A
 Frequencies --   1618.0123              1622.3393              1702.2874
 Red. masses --      7.4784                 5.8228                12.2985
 Frc consts  --     11.5351                 9.0295                20.9975
 IR Inten    --      4.5384               131.0837                57.9803

                     88                     89                     90
                      A                      A                      A
 Frequencies --   1706.7934              1787.0611              1788.9646
 Red. masses --     12.3131                11.6181                11.5619
 Frc consts  --     21.1338                21.8608                21.8014
 IR Inten    --    828.6318                71.2677               847.5677

                     91                     92                     93
                      A                      A                      A
 Frequencies --   3055.0175              3055.1079              3119.2454
 Red. masses --      1.0366                 1.0366                 1.0994
 Frc consts  --      5.7000                 5.7006                 6.3026
 IR Inten    --      0.4478                 0.4287                 3.2961

                     94                     95                     96
                      A                      A                      A
 Frequencies --   3119.5859              3159.9809              3160.0441
 Red. masses --      1.0993                 1.1041                 1.1041
 Frc consts  --      6.3032                 6.4958                 6.4957
 IR Inten    --      3.5411                 9.1519                 9.8018

                     97                     98                     99
                      A                      A                      A
 Frequencies --   3180.6857              3192.9290              3199.5832
 Red. masses --      1.0876                 1.0916                 1.0896
 Frc consts  --      6.4829                 6.5565                 6.5722
 IR Inten    --      3.0018                10.2729                 1.8362

                    100                    101                    102
                      A                      A                      A
 Frequencies --   3205.6554              3208.4944              3211.3045
 Red. masses --      1.0926                 1.0955                 1.0966
 Frc consts  --      6.6155                 6.6443                 6.6629
 IR Inten    --      2.4746                17.9520                 0.5604

 - Thermochemistry -
 -------------------
 Temperature   298.150 Kelvin.  Pressure   1.00000 Atm.
 Atom     1 has atomic number  6 and mass  12.00000

 Molecular mass:   324.06339 amu.
 Principal axes and moments of inertia in atomic units:
                           1         2         3
     Eigenvalues --  6406.806417736.31743**********
           X            0.99907   0.00897  -0.04213
           Y           -0.02431   0.92487  -0.37951
           Z            0.03556   0.38019   0.92423
 This molecule is an asymmetric top.
 Rotational symmetry number  1.
 Warning -- assumption of classical behavior for rotation
           may cause significant error
 Rotational temperatures (Kelvin)      0.01352     0.01120     0.00656
 Rotational constants (GHZ):           0.28169     0.23328     0.13668
 Zero-point vibrational energy     684246.8 (Joules/Mol)
                                  163.53892 (Kcal/Mol)
 Warning -- explicit consideration of  33 degrees of freedom as
           vibrations may cause significant error
 Vibrational temperatures:     40.50    44.55    63.69    86.02    93.30
          (Kelvin)            103.10   106.26   131.09   135.48   162.51
                              182.03   218.04   260.04   306.80   356.19
                              400.01   414.25   452.88   479.82   535.34
                              575.83   594.88   602.26   619.10   633.58
                              701.01   701.41   720.79   754.26   812.91
                              832.87   843.77   872.42   925.68   952.43
                              961.73  1006.00  1037.00  1045.79  1070.61
                             1128.13  1172.16  1185.15  1194.63  1254.23
                             1268.61  1314.25  1325.71  1329.34  1370.79
                             1427.19  1440.03  1453.15  1467.97  1472.21
                             1507.12  1522.79  1522.89  1558.22  1603.21
                             1687.84  1693.79  1701.79  1711.21  1715.99
                             1787.59  1803.72  1807.34  1833.36  1896.63
                             1930.13  1957.80  2002.42  2003.06  2048.08
                             2098.64  2098.95  2105.18  2105.61  2121.93
                             2132.56  2169.48  2314.11  2315.49  2327.96
                             2334.18  2449.21  2455.70  2571.18  2573.92
                             4395.49  4395.62  4487.90  4488.39  4546.51
                             4546.60  4576.30  4593.91  4603.49  4612.22
                             4616.31  4620.35

 Zero-point correction=                           0.260616 (Hartree/Particle)
 Thermal correction to Energy=                    0.281419
 Thermal correction to Enthalpy=                  0.282364
 Thermal correction to Gibbs Free Energy=         0.208799
 Sum of electronic and zero-point Energies=          -1144.585697
 Sum of electronic and thermal Energies=             -1144.564893
 Sum of electronic and thermal Enthalpies=           -1144.563949
 Sum of electronic and thermal Free Energies=        -1144.637513

                     E (Thermal)             CV                S
                      KCal/Mol        Cal/Mol-Kelvin    Cal/Mol-Kelvin
 Total                  176.593             77.555            154.830
 Electronic               0.000              0.000              0.000
 Translational            0.889              2.981             43.223
 Rotational               0.889              2.981             34.836
 Vibrational            174.816             71.593             76.771
 Vibration     1          0.593              1.984              5.956
 Vibration     2          0.594              1.984              5.767
 Vibration     3          0.595              1.980              5.058
 Vibration     4          0.597              1.973              4.464
 Vibration     5          0.597              1.971              4.304
 Vibration     6          0.598              1.968              4.107
 Vibration     7          0.599              1.966              4.048
 Vibration     8          0.602              1.955              3.636
 Vibration     9          0.603              1.953              3.572
 Vibration    10          0.607              1.939              3.218
 Vibration    11          0.611              1.927              2.998
 Vibration    12          0.619              1.901              2.653
 Vibration    13          0.630              1.866              2.321
 Vibration    14          0.644              1.821              2.016
 Vibration    15          0.661              1.767              1.748
 Vibration    16          0.679              1.714              1.546
 Vibration    17          0.685              1.696              1.486
 Vibration    18          0.702              1.645              1.337
 Vibration    19          0.715              1.609              1.243
 Vibration    20          0.744              1.529              1.071
 Vibration    21          0.766              1.470              0.962
 Vibration    22          0.777              1.441              0.914
 Vibration    23          0.781              1.430              0.897
 Vibration    24          0.791              1.404              0.858
 Vibration    25          0.800              1.382              0.825
 Vibration    26          0.843              1.278              0.691
 Vibration    27          0.843              1.278              0.690
 Vibration    28          0.856              1.248              0.656
 Vibration    29          0.879              1.196              0.600
 Vibration    30          0.921              1.107              0.514
 Vibration    31          0.935              1.077              0.487
 Vibration    32          0.944              1.061              0.474
 Vibration    33          0.965              1.018              0.439

                           ! Non-Optimized Parameters !
 Normal termination of Gaussian 16 at Sat Feb 10 23:23:48 2024.
