 Q-Chem 5.4, Q-Chem, Inc., Pleasanton, CA (2021)
 Q-Chem 5.4.0 for Intel X86 EM64T Linux

User input:
--------------------------------------------------------------
$molecule
0 1
C                  7.2459180000      1.2040960000      0.2094050000
C                  8.3778690000      1.0668200000      1.1793160000
C                  8.9441830000     -0.1434890000      1.3749170000
C                  8.4346650000     -1.3415580000      0.6434010000
C                  7.2949290000     -1.2058560000     -0.3142040000
C                  6.7477290000      0.0086680000     -0.5344600000
O                  6.7244370000      2.2954920000      0.0238210000
O                  8.9571170000     -2.4313860000      0.8330500000
C                  5.6000030000      0.2458480000     -1.4930300000
C                  6.8318730000     -2.4633100000     -0.9972180000
C                  8.8181220000      2.3252790000      1.8811930000
C                 10.0889350000     -0.4020630000      2.3113680000
C                  4.2563530000      0.1010520000     -0.8125740000
H                  5.6885650000     -0.4303500000     -2.3435010000
H                  5.6880960000      1.2675490000     -1.8743540000
H                  7.2705350000     -3.3368130000     -0.5178160000
H                  7.1400750000     -2.4714850000     -2.0487110000
H                  5.7434440000     -2.5437090000     -0.9712460000
H                  8.1641020000      3.1523890000      1.6115590000
H                  9.8415240000      2.5942410000      1.6019560000
H                  8.7968680000      2.2017860000      2.9671070000
H                 10.4611210000      0.5145520000      2.7649900000
H                 10.9083760000     -0.8959420000      1.7828120000
H                  9.7851460000     -1.0903100000      3.1059430000
C                  3.1972930000     -0.6173580000     -1.2102880000
C                  3.1536960000     -1.4613580000     -2.4607990000
C                  1.9222580000     -0.6019250000     -0.3908150000
C                  0.7227820000      0.0698280000     -1.0878360000
C                 -0.5276880000      0.0977340000     -0.1997410000
C                 -1.8019200000      0.6547090000     -0.8660660000
C                 -3.0205260000      0.4209550000      0.0496630000
C                 -4.3882990000      0.7151470000     -0.5810920000
C                 -5.5560600000      0.3689700000      0.3525860000
C                 -6.9646560000      0.5435500000     -0.2504030000
C                 -8.0223340000     -0.0563760000      0.6980760000
C                 -9.4432130000     -0.1571370000      0.1271320000
C                 -1.6468900000      2.1345990000     -1.2485790000
C                -10.4179680000     -0.8550220000      1.0848510000
C                -11.8424950000     -1.0702650000      0.5387610000
C                -12.5779220000      0.2513550000      0.2726560000
C                -12.6568970000     -1.9545120000      1.4938140000
H                  4.1576120000      0.6815550000      0.1021390000
H                  4.1268790000     -1.5706650000     -2.9393260000
H                  2.4725810000     -1.0304200000     -3.2024390000
H                  2.7740990000     -2.4640080000     -2.2336200000
H                  2.1113550000     -0.0906190000      0.5585090000
H                  1.6461170000     -1.6355540000     -0.1391350000
H                  0.4870180000     -0.4606560000     -2.0179130000
H                  1.0127980000      1.0859990000     -1.3736900000
H                 -0.3159600000      0.6807830000      0.7070980000
H                 -0.7341030000     -0.9250590000      0.1404000000
H                 -1.9686620000      0.0810580000     -1.7897180000
H                 -2.9027610000      1.0257480000      0.9594760000
H                 -3.0092050000     -0.6253970000      0.3800660000
H                 -4.4873940000      0.1372610000     -1.5099640000
H                 -4.4440100000      1.7691350000     -0.8673890000
H                 -5.4824860000      0.9756100000      1.2658550000
H                 -5.4450490000     -0.6742100000      0.6743620000
C                 -7.2653160000      2.0119440000     -0.5880600000
H                 -8.0446240000      0.5337550000      1.6247630000
H                 -7.6941370000     -1.0620920000      0.9894920000
H                 -9.4112870000     -0.7119640000     -0.8203410000
H                 -9.8173620000      0.8419530000     -0.1142980000
H                 -0.8041150000      2.2921860000     -1.9255520000
H                 -1.4763390000      2.7476820000     -0.3560370000
H                 -2.5381950000      2.5184300000     -1.7501460000
H                -10.4804950000     -0.2829850000      2.0211350000
H                -10.0003290000     -1.8328140000      1.3566890000
H                -11.7533710000     -1.6047240000     -0.4174070000
H                -12.0612980000      0.8697330000     -0.4653140000
H                -12.6691430000      0.8366730000      1.1948400000
H                -13.5887780000      0.0671070000     -0.1032940000
H                -12.1687830000     -2.9198820000      1.6580170000
H                -13.6588660000     -2.1483580000      1.0993320000
H                -12.7731550000     -1.4703780000      2.4699500000
H                 -6.9964010000     -0.0330830000     -1.1866100000
H                 -7.2443110000      2.6279820000      0.3184630000
H                 -8.2500200000      2.1287420000     -1.0464790000
H                 -6.5346600000      2.4247910000     -1.2874640000
$end
$rem
MAX_SCF_CYCLES=200
BASIS  =  6-311++G(d,p)
GUI  =  2
JOB_TYPE  =  SP
METHOD  =  B3LYP
SCF_ALGORITHM = DIIS_GDM
THRESH = 14
SOLVENT_METHOD = PCM
$end
$pcm
theory = CPCM
$end
$solvent
dielectric 37.219
opticaldielectric 1.43
$end

--------------------------------------------------------------

             Standard Nuclear Orientation (Angstroms)
    I     Atom           X                Y                Z
 ----------------------------------------------------------------
    1      C       7.2459180000     1.2040960000     0.2094050000
    2      C       8.3778690000     1.0668200000     1.1793160000
    3      C       8.9441830000    -0.1434890000     1.3749170000
    4      C       8.4346650000    -1.3415580000     0.6434010000
    5      C       7.2949290000    -1.2058560000    -0.3142040000
    6      C       6.7477290000     0.0086680000    -0.5344600000
    7      O       6.7244370000     2.2954920000     0.0238210000
    8      O       8.9571170000    -2.4313860000     0.8330500000
    9      C       5.6000030000     0.2458480000    -1.4930300000
   10      C       6.8318730000    -2.4633100000    -0.9972180000
   11      C       8.8181220000     2.3252790000     1.8811930000
   12      C      10.0889350000    -0.4020630000     2.3113680000
   13      C       4.2563530000     0.1010520000    -0.8125740000
   14      H       5.6885650000    -0.4303500000    -2.3435010000
   15      H       5.6880960000     1.2675490000    -1.8743540000
   16      H       7.2705350000    -3.3368130000    -0.5178160000
   17      H       7.1400750000    -2.4714850000    -2.0487110000
   18      H       5.7434440000    -2.5437090000    -0.9712460000
   19      H       8.1641020000     3.1523890000     1.6115590000
   20      H       9.8415240000     2.5942410000     1.6019560000
   21      H       8.7968680000     2.2017860000     2.9671070000
   22      H      10.4611210000     0.5145520000     2.7649900000
   23      H      10.9083760000    -0.8959420000     1.7828120000
   24      H       9.7851460000    -1.0903100000     3.1059430000
   25      C       3.1972930000    -0.6173580000    -1.2102880000
   26      C       3.1536960000    -1.4613580000    -2.4607990000
   27      C       1.9222580000    -0.6019250000    -0.3908150000
   28      C       0.7227820000     0.0698280000    -1.0878360000
   29      C      -0.5276880000     0.0977340000    -0.1997410000
   30      C      -1.8019200000     0.6547090000    -0.8660660000
   31      C      -3.0205260000     0.4209550000     0.0496630000
   32      C      -4.3882990000     0.7151470000    -0.5810920000
   33      C      -5.5560600000     0.3689700000     0.3525860000
   34      C      -6.9646560000     0.5435500000    -0.2504030000
   35      C      -8.0223340000    -0.0563760000     0.6980760000
   36      C      -9.4432130000    -0.1571370000     0.1271320000
   37      C      -1.6468900000     2.1345990000    -1.2485790000
   38      C     -10.4179680000    -0.8550220000     1.0848510000
   39      C     -11.8424950000    -1.0702650000     0.5387610000
   40      C     -12.5779220000     0.2513550000     0.2726560000
   41      C     -12.6568970000    -1.9545120000     1.4938140000
   42      H       4.1576120000     0.6815550000     0.1021390000
   43      H       4.1268790000    -1.5706650000    -2.9393260000
   44      H       2.4725810000    -1.0304200000    -3.2024390000
   45      H       2.7740990000    -2.4640080000    -2.2336200000
   46      H       2.1113550000    -0.0906190000     0.5585090000
   47      H       1.6461170000    -1.6355540000    -0.1391350000
   48      H       0.4870180000    -0.4606560000    -2.0179130000
   49      H       1.0127980000     1.0859990000    -1.3736900000
   50      H      -0.3159600000     0.6807830000     0.7070980000
   51      H      -0.7341030000    -0.9250590000     0.1404000000
   52      H      -1.9686620000     0.0810580000    -1.7897180000
   53      H      -2.9027610000     1.0257480000     0.9594760000
   54      H      -3.0092050000    -0.6253970000     0.3800660000
   55      H      -4.4873940000     0.1372610000    -1.5099640000
   56      H      -4.4440100000     1.7691350000    -0.8673890000
   57      H      -5.4824860000     0.9756100000     1.2658550000
   58      H      -5.4450490000    -0.6742100000     0.6743620000
   59      C      -7.2653160000     2.0119440000    -0.5880600000
   60      H      -8.0446240000     0.5337550000     1.6247630000
   61      H      -7.6941370000    -1.0620920000     0.9894920000
   62      H      -9.4112870000    -0.7119640000    -0.8203410000
   63      H      -9.8173620000     0.8419530000    -0.1142980000
   64      H      -0.8041150000     2.2921860000    -1.9255520000
   65      H      -1.4763390000     2.7476820000    -0.3560370000
   66      H      -2.5381950000     2.5184300000    -1.7501460000
   67      H     -10.4804950000    -0.2829850000     2.0211350000
   68      H     -10.0003290000    -1.8328140000     1.3566890000
   69      H     -11.7533710000    -1.6047240000    -0.4174070000
   70      H     -12.0612980000     0.8697330000    -0.4653140000
   71      H     -12.6691430000     0.8366730000     1.1948400000
   72      H     -13.5887780000     0.0671070000    -0.1032940000
   73      H     -12.1687830000    -2.9198820000     1.6580170000
   74      H     -13.6588660000    -2.1483580000     1.0993320000
   75      H     -12.7731550000    -1.4703780000     2.4699500000
   76      H      -6.9964010000    -0.0330830000    -1.1866100000
   77      H      -7.2443110000     2.6279820000     0.3184630000
   78      H      -8.2500200000     2.1287420000    -1.0464790000
   79      H      -6.5346600000     2.4247910000    -1.2874640000
 ----------------------------------------------------------------

   13   -1284.8201193136      9.12e-06  Convergence criterion met
 Total energy in the final basis set =    -1284.8201193136

                    Orbital Energies (a.u.)
 --------------------------------------------------------------

 Alpha MOs
 -- Occupied --
-19.1342 -19.1337 -10.2780 -10.2770 -10.2069 -10.2067 -10.2057 -10.2046
-10.1775 -10.1765 -10.1695 -10.1677 -10.1677 -10.1663 -10.1649 -10.1649
-10.1642 -10.1626 -10.1593 -10.1585 -10.1555 -10.1545 -10.1543 -10.1542
-10.1541 -10.1539 -10.1539 -10.1499 -10.1496 -10.1487 -10.1485  -1.0669
 -1.0650  -0.8645  -0.8324  -0.8209  -0.8159  -0.8071  -0.7967  -0.7679
 -0.7533  -0.7454  -0.7378  -0.7232  -0.7166  -0.6854  -0.6778  -0.6751
 -0.6723  -0.6648  -0.6564  -0.6419  -0.6151  -0.5903  -0.5755  -0.5723
 -0.5676  -0.5571  -0.5530  -0.5453  -0.5404  -0.5179  -0.4830  -0.4763
 -0.4727  -0.4715  -0.4665  -0.4617  -0.4609  -0.4472  -0.4392  -0.4383
 -0.4371  -0.4317  -0.4288  -0.4260  -0.4259  -0.4213  -0.4174  -0.4155
 -0.4143  -0.4110  -0.4093  -0.4048  -0.4017  -0.3929  -0.3901  -0.3881
 -0.3847  -0.3838  -0.3786  -0.3782  -0.3747  -0.3735  -0.3692  -0.3665
 -0.3635  -0.3566  -0.3541  -0.3502  -0.3474  -0.3402  -0.3377  -0.3316
 -0.3271  -0.3206  -0.3193  -0.3150  -0.3137  -0.3122  -0.3097  -0.3088
 -0.3035  -0.2900  -0.2890  -0.2846  -0.2711  -0.2631  -0.2389

          Ground-State Mulliken Net Atomic Charges

     Atom                 Charge (a.u.)
  ----------------------------------------
      1 C                    -1.306927
      2 C                     0.189337
      3 C                     0.495107
      4 C                    -0.951186
      5 C                     0.960922
      6 C                     1.090833
      7 O                    -0.269551
      8 O                    -0.285062
      9 C                    -0.098021
     10 C                    -0.663139
     11 C                    -0.542690
     12 C                    -0.570204
     13 C                    -0.631220
     14 H                     0.202734
     15 H                     0.249923
     16 H                     0.187973
     17 H                     0.217721
     18 H                     0.182028
     19 H                     0.192920
     20 H                     0.195293
     21 H                     0.185761
     22 H                     0.180764
     23 H                     0.187465
     24 H                     0.195631
     25 C                     1.420199
     26 C                    -0.821321
     27 C                    -1.260303
     28 C                    -0.160063
     29 C                    -0.879203
     30 C                     1.366184
     31 C                    -0.980897
     32 C                    -0.088487
     33 C                    -1.029572
     34 C                     1.339381
     35 C                    -0.762471
     36 C                     0.026230
     37 C                    -0.806119
     38 C                    -0.772186
     39 C                     0.547562
     40 C                    -0.713810
     41 C                    -0.684969
     42 H                     0.248397
     43 H                     0.118446
     44 H                     0.183686
     45 H                     0.179155
     46 H                     0.135835
     47 H                     0.186711
     48 H                     0.140305
     49 H                     0.151440
     50 H                     0.144223
     51 H                     0.129303
     52 H                     0.142229
     53 H                     0.155119
     54 H                     0.112069
     55 H                     0.160044
     56 H                     0.107349
     57 H                     0.151188
     58 H                     0.116997
     59 C                    -0.790657
     60 H                     0.146236
     61 H                     0.112350
     62 H                     0.150642
     63 H                     0.105592
     64 H                     0.146448
     65 H                     0.165277
     66 H                     0.148081
     67 H                     0.145712
     68 H                     0.133340
     69 H                     0.143638
     70 H                     0.146763
     71 H                     0.151593
     72 H                     0.151060
     73 H                     0.140702
     74 H                     0.161696
     75 H                     0.144491
     76 H                     0.136684
     77 H                     0.163374
     78 H                     0.150045
     79 H                     0.147872
  ----------------------------------------
  Sum of atomic charges =     0.000000

                    Cartesian Multipole Moments
 -----------------------------------------------------------------
    Charge (ESU x 10^10)
                 0.0000
    Dipole Moment (Debye)
         X      -0.4384      Y      -0.4588      Z      -0.5958
       Tot       0.8704
    Quadrupole Moments (Debye-Ang)
        XX    -200.9897     XY      12.1366     YY    -212.6942
        XZ       6.1391     YZ       9.3086     ZZ    -191.9230

 Total job time:  939.66s(wall), 6499.85s(cpu)
        *  Thank you very much for using Q-Chem.  Have a nice day.  *
