 Gaussian 16, Revision A.03,
 Gaussian 16:  ES64L-G16RevA.03 25-Dec-2016

 ----------------------------------------------------------------
 #P UB3LYP/6-311++G(d,p) SCRF=(PCM,Solvent=n,n-DiMethylFormamide)
 ----------------------------------------------------------------

 ------------------
 Quinone PCM in DMF
 ------------------
 Symbolic Z-matrix:
 Charge =  0 Multiplicity = 1

                         Standard orientation:
 ---------------------------------------------------------------------
 Center     Atomic      Atomic             Coordinates (Angstroms)
 Number     Number       Type             X           Y           Z
 ---------------------------------------------------------------------
      1          6           0        0.436699   -1.378135    0.000006
      2          6           0       -0.961893   -1.090587   -0.000073
      3          6           0       -1.426715    0.201504    0.000091
      4          6           0       -0.436676    1.378135    0.000191
      5          6           0        0.961919    1.090600    0.000071
      6          6           0        1.426733   -0.201483   -0.000293
      7          8           0        0.904584   -2.519322    0.000284
      8          8           0       -0.904524    2.519342    0.000325
      9          7           0        2.693697   -0.635889   -0.000812
     10          7           0       -2.693686    0.635896    0.000413
     11          6           0        3.973005    0.104386   -0.000078
     12          6           0        5.075866   -0.966473   -0.001214
     13          6           0        4.101437    0.966029   -1.270789
     14          6           0        4.101338    0.963292    1.272502
     15          6           0       -3.973025   -0.104405   -0.000052
     16          6           0       -4.101272   -0.964093   -1.272076
     17          6           0       -5.075879    0.966448    0.000180
     18          6           0       -4.101573   -0.965240    1.271211
     19          1           0       -1.615502   -1.950170    0.000113
     20          1           0        1.615577    1.950152    0.000038
     21          1           0        2.736057   -1.653301   -0.000470
     22          1           0       -2.736095    1.653288    0.000691
     23          1           0        5.005089   -1.602463    0.885766
     24          1           0        6.059714   -0.493345   -0.000562
     25          1           0        5.005264   -1.600497   -0.889607
     26          1           0        4.026218    0.341292   -2.164089
     27          1           0        5.073300    1.466267   -1.281990
     28          1           0        3.329065    1.733323   -1.329671
     29          1           0        4.026963    0.336499    2.164437
     30          1           0        3.328279    1.729732    1.333345
     31          1           0        5.072758    1.464379    1.284524
     32          1           0       -3.328742   -1.731116   -1.332134
     33          1           0       -4.026144   -0.337972   -2.164424
     34          1           0       -5.073029   -1.464533   -1.284140
     35          1           0       -5.005013    1.601775   -0.887266
     36          1           0       -5.005370    1.601138    0.888109
     37          1           0       -6.059739    0.493346   -0.000175
     38          1           0       -3.328866   -1.732140    1.330846
     39          1           0       -5.073220   -1.465898    1.282436
     40          1           0       -4.026915   -0.339841    2.164092
 ---------------------------------------------------------------------

 SCF Done:  E(UB3LYP) =  -806.949049118     A.U. after   14 cycles

 The electronic state is 1-A.
 Alpha  occ. eigenvalues --  -19.11634 -19.11634 -14.35521 -14.35521 -10.26926
 Alpha  occ. eigenvalues --  -10.26925 -10.24884 -10.24883 -10.23639 -10.23638
 Alpha  occ. eigenvalues --  -10.17176 -10.17175 -10.16846 -10.16846 -10.16601
 Alpha  occ. eigenvalues --  -10.16601 -10.16601 -10.16600  -1.05395  -1.05127
 Alpha  occ. eigenvalues --   -0.96493  -0.96480  -0.84265  -0.82046  -0.79728
 Alpha  occ. eigenvalues --   -0.75224  -0.70240  -0.70216  -0.69947  -0.69947
 Alpha  occ. eigenvalues --   -0.68395  -0.64291  -0.60835  -0.59782  -0.56537
 Alpha  occ. eigenvalues --   -0.54659  -0.52095  -0.50849  -0.48693  -0.47543
 Alpha  occ. eigenvalues --   -0.46607  -0.46209  -0.45105  -0.44587  -0.44464
 Alpha  occ. eigenvalues --   -0.44348  -0.44235  -0.43035  -0.41701  -0.40956
 Alpha  occ. eigenvalues --   -0.40247  -0.40242  -0.39386  -0.39355  -0.38316
 Alpha  occ. eigenvalues --   -0.37704  -0.37687  -0.36686  -0.36486  -0.36109
 Alpha  occ. eigenvalues --   -0.34561  -0.34461  -0.33607  -0.32694  -0.28403
 Alpha  occ. eigenvalues --   -0.27163  -0.24922  -0.22178
 Alpha virt. eigenvalues --   -0.10426  -0.01032  -0.00407  -0.00080   0.00883
 Alpha virt. eigenvalues --    0.01434   0.01862   0.01897   0.02136   0.02199
 Alpha virt. eigenvalues --    0.02899   0.03194   0.03542   0.03596   0.04111

  Beta  occ. eigenvalues --  -19.11634 -19.11634 -14.35521 -14.35521 -10.26926
  Beta  occ. eigenvalues --  -10.26925 -10.24884 -10.24883 -10.23639 -10.23638
  Beta  occ. eigenvalues --  -10.17176 -10.17175 -10.16846 -10.16846 -10.16601
  Beta  occ. eigenvalues --  -10.16601 -10.16601 -10.16600  -1.05395  -1.05127
  Beta  occ. eigenvalues --   -0.96493  -0.96480  -0.84265  -0.82046  -0.79728
  Beta  occ. eigenvalues --   -0.75224  -0.70240  -0.70216  -0.69947  -0.69947
  Beta  occ. eigenvalues --   -0.68395  -0.64291  -0.60835  -0.59782  -0.56537
  Beta  occ. eigenvalues --   -0.54659  -0.52095  -0.50849  -0.48693  -0.47543
  Beta  occ. eigenvalues --   -0.46607  -0.46209  -0.45105  -0.44587  -0.44464
  Beta  occ. eigenvalues --   -0.44348  -0.44235  -0.43035  -0.41701  -0.40956
  Beta  occ. eigenvalues --   -0.40247  -0.40242  -0.39386  -0.39355  -0.38316
  Beta  occ. eigenvalues --   -0.37704  -0.37687  -0.36686  -0.36486  -0.36109
  Beta  occ. eigenvalues --   -0.34561  -0.34461  -0.33607  -0.32694  -0.28403
  Beta  occ. eigenvalues --   -0.27163  -0.24922  -0.22178
  Beta virt. eigenvalues --   -0.10426  -0.01032  -0.00407  -0.00080   0.00883
  Beta virt. eigenvalues --    0.01434   0.01862   0.01897   0.02136   0.02199
  Beta virt. eigenvalues --    0.02899   0.03194   0.03542   0.03596   0.04111

 Mulliken charges and spin densities:
               1          2
     1  C   -0.374632  -0.000000
     2  C   -0.113667  -0.000000
     3  C    0.113705   0.000000
     4  C   -0.374729   0.000000
     5  C   -0.113732   0.000000
     6  C    0.113744  -0.000000
     7  O   -0.361676   0.000000
     8  O   -0.361685   0.000000
     9  N    0.095809  -0.000000
    10  N    0.095814  -0.000000
    11  C   -0.093043   0.000000
    12  C   -0.498013  -0.000000
    13  C   -0.417900   0.000000
    14  C   -0.417972  -0.000000
    15  C   -0.093086  -0.000000
    16  C   -0.417940  -0.000000
    17  C   -0.497989   0.000000
    18  C   -0.417953   0.000000
    19  H    0.253009  -0.000000
    20  H    0.253005   0.000000
    21  H    0.389150   0.000000
    22  H    0.389144  -0.000000
    23  H    0.161678  -0.000000
    24  H    0.165770  -0.000000
    25  H    0.161714  -0.000000
    26  H    0.166541   0.000000
    27  H    0.177151  -0.000000
    28  H    0.124311  -0.000000
    29  H    0.166564   0.000000
    30  H    0.124472  -0.000000
    31  H    0.177093   0.000000
    32  H    0.124449   0.000000
    33  H    0.166559  -0.000000
    34  H    0.177124   0.000000
    35  H    0.161703   0.000000
    36  H    0.161697   0.000000
    37  H    0.165770   0.000000
    38  H    0.124367   0.000000
    39  H    0.177126   0.000000
    40  H    0.166551  -0.000000
 Sum of Mulliken charges =  -0.00000   0.00000

 Dipole moment (field-independent basis, Debye):
    X=             -0.0005    Y=             -0.0002    Z=             -0.0003  Tot=              0.0006
 Quadrupole moment (field-independent basis, Debye-Ang):
   XX=            -68.7590   YY=           -131.4180   ZZ=           -111.9469
   XY=              6.0180   XZ=              0.0017   YZ=              0.0004

 Normal termination of Gaussian 16 at Wed Jan 24 22:53:04 2024.
