 Gaussian 16, Revision A.03,
 Gaussian 16:  ES64L-G16RevA.03 25-Dec-2016

 ----------------------------------------------------------------------
 #P UB3LYP/6-311++G(d,p) nosym opt freq SCRF=(PCM,Solvent=n,n-DiMethylF
 ormamide)
 ----------------------------------------------------------------------

 --------
 Oxidized
 --------
 Symbolic Z-matrix:
 Charge =  0 Multiplicity = 1

 SCF Done:  E(UB3LYP) =  -885.803956387     A.U. after   16 cycles
 SCF Done:  E(UB3LYP) =  -885.804029858     A.U. after   11 cycles
 SCF Done:  E(UB3LYP) =  -885.804025916     A.U. after   11 cycles
 SCF Done:  E(UB3LYP) =  -885.804013351     A.U. after   12 cycles
 SCF Done:  E(UB3LYP) =  -885.804038662     A.U. after   11 cycles
 SCF Done:  E(UB3LYP) =  -885.804040060     A.U. after   10 cycles
 SCF Done:  E(UB3LYP) =  -885.804040073     A.U. after   10 cycles
 SCF Done:  E(UB3LYP) =  -885.804040292     A.U. after    9 cycles
 SCF Done:  E(UB3LYP) =  -885.804040323     A.U. after   10 cycles
 SCF Done:  E(UB3LYP) =  -885.804040327     A.U. after    9 cycles
 Optimization completed.
    -- Stationary point found.
 Normal termination of Gaussian 16 at Sun Feb 11 01:35:50 2024.

 ----------------------------------------------------------------------
 #P Geom=AllCheck Guess=TCheck SCRF=Check GenChk UB3LYP/6-311++G(d,p) F
 req
 ----------------------------------------------------------------------

 Structure from the checkpoint file:  "285.chk"
 --------
 Oxidized
 --------
 Charge =  0 Multiplicity = 1

                          Input orientation:
 ---------------------------------------------------------------------
 Center     Atomic      Atomic             Coordinates (Angstroms)
 Number     Number       Type             X           Y           Z
 ---------------------------------------------------------------------
      1          6           0       -0.222337    3.845000   -0.128985
      2          6           0       -1.454420    3.211864   -0.270489
      3          6           0       -1.507173    1.847159   -0.556907
      4          6           0        0.956969    3.110876   -0.274886
      5          6           0        0.907444    1.735589   -0.563425
      6          6           0       -0.330964    1.111648   -0.702501
      7          6           0        2.266800    3.766852   -0.127526
      8          6           0        3.494581    2.937009   -0.303086
      9          6           0        3.471755    1.607943   -0.571114
     10          6           0        2.166993    0.935749   -0.721084
     11          8           0        2.416273    4.957167    0.131203
     12          8           0        2.105741   -0.265417   -0.968074
     13          1           0       -0.163203    4.903063    0.093462
     14          1           0       -2.370236    3.779626   -0.158114
     15          1           0       -2.466029    1.354427   -0.667104
     16          1           0       -0.363665    0.052693   -0.924538
     17          8           0        4.642833    3.618276   -0.163450
     18          6           0        4.729248    0.803330   -0.749510
     19          6           0        5.197029    0.733882   -2.219340
     20          6           0        6.472580   -0.097583   -2.390504
     21          6           0        6.955049   -0.177799   -3.843278
     22          6           0        8.231220   -1.008605   -4.018745
     23          1           0        4.397232    4.541074    0.039215
     24          1           0        4.549206   -0.210893   -0.385043
     25          1           0        5.523969    1.240810   -0.139962
     26          1           0        5.368634    1.750562   -2.590445
     27          1           0        4.395479    0.306695   -2.831659
     28          1           0        6.295890   -1.111971   -2.010705
     29          1           0        7.268718    0.329509   -1.767327
     30          1           0        7.129784    0.837298   -4.222657
     31          1           0        6.157814   -0.604406   -4.465589
     32          1           0        8.057355   -2.023635   -3.638102
     33          1           0        9.029292   -0.581834   -3.397164
     34          6           0        8.715564   -1.092546   -5.470753
     35          6           0        9.991021   -1.924349   -5.636307
     36          1           0        8.889446   -0.078651   -5.851475
     37          1           0        7.918638   -1.519413   -6.091923
     38          1           0       10.816015   -1.501855   -5.053615
     39          1           0       10.309077   -1.964575   -6.682064
     40          1           0        9.837999   -2.953370   -5.295212
 ---------------------------------------------------------------------

 SCF Done:  E(UB3LYP) =  -885.804040327     A.U. after    1 cycles

 Alpha  occ. eigenvalues --  -19.18102 -19.15113 -19.13028 -10.29535 -10.28229
 Alpha  occ. eigenvalues --  -10.26929 -10.21329 -10.21216 -10.20551 -10.20383
 Alpha  occ. eigenvalues --  -10.20194 -10.20024 -10.20007 -10.17802 -10.16908
 Alpha  occ. eigenvalues --  -10.16298 -10.16194 -10.16101 -10.15996 -10.15544
 Alpha  occ. eigenvalues --   -1.11026  -1.06873  -1.06155  -0.89496  -0.84625
 Alpha  occ. eigenvalues --   -0.81132  -0.79415  -0.78256  -0.77137  -0.73674
 Alpha  occ. eigenvalues --   -0.70312  -0.67946  -0.65758  -0.63833  -0.61060
 Alpha  occ. eigenvalues --   -0.60501  -0.58116  -0.57681  -0.57474  -0.54495
 Alpha  occ. eigenvalues --   -0.52085  -0.49997  -0.48399  -0.47957  -0.47341
 Alpha  occ. eigenvalues --   -0.46895  -0.46008  -0.45523  -0.44598  -0.43882
 Alpha  occ. eigenvalues --   -0.43184  -0.42553  -0.41646  -0.41507  -0.41059
 Alpha  occ. eigenvalues --   -0.40178  -0.38743  -0.37976  -0.37862  -0.37439
 Alpha  occ. eigenvalues --   -0.37304  -0.36656  -0.34465  -0.34208  -0.32747
 Alpha  occ. eigenvalues --   -0.32653  -0.32154  -0.31612  -0.30410  -0.29181
 Alpha  occ. eigenvalues --   -0.28237  -0.28057  -0.25861
 Alpha virt. eigenvalues --   -0.12794  -0.05863  -0.02810  -0.00976  -0.00251
 Alpha virt. eigenvalues --    0.00220   0.00801   0.00882   0.01521   0.01786
 Alpha virt. eigenvalues --    0.02214   0.02573   0.02647   0.03403   0.03833

  Beta  occ. eigenvalues --  -19.18102 -19.15113 -19.13028 -10.29535 -10.28229
  Beta  occ. eigenvalues --  -10.26929 -10.21329 -10.21216 -10.20551 -10.20383
  Beta  occ. eigenvalues --  -10.20194 -10.20024 -10.20007 -10.17802 -10.16908
  Beta  occ. eigenvalues --  -10.16298 -10.16194 -10.16101 -10.15996 -10.15544
  Beta  occ. eigenvalues --   -1.11026  -1.06873  -1.06155  -0.89496  -0.84625
  Beta  occ. eigenvalues --   -0.81132  -0.79415  -0.78256  -0.77137  -0.73674
  Beta  occ. eigenvalues --   -0.70312  -0.67946  -0.65758  -0.63833  -0.61060
  Beta  occ. eigenvalues --   -0.60501  -0.58116  -0.57681  -0.57474  -0.54495
  Beta  occ. eigenvalues --   -0.52085  -0.49997  -0.48399  -0.47957  -0.47341
  Beta  occ. eigenvalues --   -0.46895  -0.46008  -0.45523  -0.44598  -0.43882
  Beta  occ. eigenvalues --   -0.43184  -0.42553  -0.41646  -0.41507  -0.41059
  Beta  occ. eigenvalues --   -0.40178  -0.38743  -0.37976  -0.37862  -0.37439
  Beta  occ. eigenvalues --   -0.37304  -0.36656  -0.34465  -0.34208  -0.32747
  Beta  occ. eigenvalues --   -0.32653  -0.32154  -0.31612  -0.30410  -0.29181
  Beta  occ. eigenvalues --   -0.28237  -0.28057  -0.25861
  Beta virt. eigenvalues --   -0.12794  -0.05863  -0.02810  -0.00976  -0.00251
  Beta virt. eigenvalues --    0.00220   0.00801   0.00882   0.01521   0.01786
  Beta virt. eigenvalues --    0.02214   0.02573   0.02647   0.03403   0.03833

 Mulliken charges and spin densities:
               1          2
     1  C    0.189884  -0.000000
     2  C   -0.372733   0.000000
     3  C   -0.395009  -0.000000
     4  C    0.525285  -0.000000
     5  C   -0.120898   0.000000
     6  C    0.173430   0.000000
     7  C   -0.815978   0.000000
     8  C   -0.466996  -0.000000
     9  C    1.910847  -0.000000
    10  C   -0.801198   0.000000
    11  O   -0.313684  -0.000000
    12  O   -0.279721   0.000000
    13  H    0.191082  -0.000000
    14  H    0.211542   0.000000
    15  H    0.207702  -0.000000
    16  H    0.191358  -0.000000
    17  O   -0.220196   0.000000
    18  C   -0.370383  -0.000000
    19  C   -0.617736   0.000000
    20  C   -0.079036  -0.000000
    21  C   -0.101509   0.000000
    22  C   -0.274734   0.000000
    23  H    0.307875   0.000000
    24  H    0.219109  -0.000000
    25  H    0.230752   0.000000
    26  H    0.174730  -0.000000
    27  H    0.175925   0.000000
    28  H    0.118807  -0.000000
    29  H    0.117697   0.000000
    30  H    0.125567   0.000000
    31  H    0.125456  -0.000000
    32  H    0.126785   0.000000
    33  H    0.126552   0.000000
    34  C   -0.225598   0.000000
    35  C   -0.681781  -0.000000
    36  H    0.131331   0.000000
    37  H    0.131361   0.000000
    38  H    0.139838   0.000000
    39  H    0.144357  -0.000000
    40  H    0.139915   0.000000
 Sum of Mulliken charges =  -0.00000  -0.00000

 Dipole moment (field-independent basis, Debye):
    X=             -2.6310    Y=              1.5289    Z=              0.0511  Tot=              3.0434
 Quadrupole moment (field-independent basis, Debye-Ang):
   XX=           -116.1353   YY=           -124.3083   ZZ=           -122.7202
   XY=             -3.3516   XZ=              0.5149   YZ=             -1.9684

  Exact polarizability: 345.656  -8.460 339.795 -10.718  38.982 201.787
 Approx polarizability: 363.404  12.087 433.174   2.555  48.260 221.896

                      1                      2                      3
                      A                      A                      A
 Frequencies --     15.7509                24.3052                37.9646
 Red. masses --      5.2422                 5.3976                 1.7191
 Frc consts  --      0.0008                 0.0019                 0.0015
 IR Inten    --      0.2385                 1.3780                 0.1057

                      4                      5                      6
                      A                      A                      A
 Frequencies --     57.6997                61.4004                83.9845
 Red. masses --      3.1951                 5.1640                 5.2275
 Frc consts  --      0.0063                 0.0115                 0.0217
 IR Inten    --      2.0024                 4.7670                 0.6240

                      7                      8                      9
                      A                      A                      A
 Frequencies --    101.9506               115.8328               124.8884
 Red. masses --      1.8324                 4.4366                 6.1947
 Frc consts  --      0.0112                 0.0351                 0.0569
 IR Inten    --      0.1029                 0.1816                 0.2247

                     10                     11                     12
                      A                      A                      A
 Frequencies --    132.4880               154.2725               175.9534
 Red. masses --      2.1595                 1.9139                 6.4810
 Frc consts  --      0.0223                 0.0268                 0.1182
 IR Inten    --      0.1315                 0.0212                 1.0535

                     13                     14                     15
                      A                      A                      A
 Frequencies --    202.1742               243.7729               253.4548
 Red. masses --      3.7943                 1.1188                 4.2988
 Frc consts  --      0.0914                 0.0392                 0.1627
 IR Inten    --      0.1056                 0.0004                 0.4369

                     16                     17                     18
                      A                      A                      A
 Frequencies --    267.1414               304.6896               336.5562
 Red. masses --      4.2026                 2.9012                 5.2387
 Frc consts  --      0.1767                 0.1587                 0.3496
 IR Inten    --      0.1213                 5.9665                14.9721

                     19                     20                     21
                      A                      A                      A
 Frequencies --    358.4754               385.5145               395.5054
 Red. masses --      4.2004                 7.8531                 4.9186
 Frc consts  --      0.3180                 0.6877                 0.4533
 IR Inten    --      4.6233                13.7627                36.4111

                     22                     23                     24
                      A                      A                      A
 Frequencies --    418.7550               424.5908               444.6108
 Red. masses --      9.5177                 3.4544                 4.7784
 Frc consts  --      0.9833                 0.3669                 0.5565
 IR Inten    --     13.6290                 1.9735                 6.1290

                     25                     26                     27
                      A                      A                      A
 Frequencies --    473.4561               477.8788               526.4846
 Red. masses --      3.3758                 6.0323                 7.0484
 Frc consts  --      0.4459                 0.8117                 1.1511
 IR Inten    --      1.9316                 9.3342                 5.4237

                     28                     29                     30
                      A                      A                      A
 Frequencies --    580.4851               602.6712               653.0084
 Red. masses --      2.2474                 1.5742                 6.4160
 Frc consts  --      0.4462                 0.3369                 1.6120
 IR Inten    --     83.3671                61.0907                 8.6691

                     31                     32                     33
                      A                      A                      A
 Frequencies --    676.1926               705.7094               711.0482
 Red. masses --      5.9966                 3.1059                 4.6463
 Frc consts  --      1.6155                 0.9114                 1.3841
 IR Inten    --      5.2330                 3.6158                 9.2145

                     34                     35                     36
                      A                      A                      A
 Frequencies --    729.8505               733.8996               736.7975
 Red. masses --      1.0792                 2.4287                 1.1951
 Frc consts  --      0.3387                 0.7707                 0.3823
 IR Inten    --     14.4537               110.8545                 1.1862

                     37                     38                     39
                      A                      A                      A
 Frequencies --    764.4160               771.0622               805.8145
 Red. masses --      1.2758                 7.2896                 1.9435
 Frc consts  --      0.4392                 2.5535                 0.7435
 IR Inten    --      2.9822                 2.6283                17.0765

                     40                     41                     42
                      A                      A                      A
 Frequencies --    818.8234               870.1063               894.9087
 Red. masses --      1.5030                 2.0729                 1.9429
 Frc consts  --      0.5937                 0.9247                 0.9167
 IR Inten    --      4.9297                18.0212                 2.8716

                     43                     44                     45
                      A                      A                      A
 Frequencies --    911.0864               931.0549               945.9059
 Red. masses --      1.3400                 1.4739                 5.5096
 Frc consts  --      0.6553                 0.7528                 2.9045
 IR Inten    --      0.0315                 8.6843                67.4559

                     46                     47                     48
                      A                      A                      A
 Frequencies --    986.4624               998.2837              1008.2450
 Red. masses --      4.6566                 1.3879                 1.6958
 Frc consts  --      2.6698                 0.8149                 1.0157
 IR Inten    --     33.2093                 1.7701                 8.3645

                     49                     50                     51
                      A                      A                      A
 Frequencies --   1022.1667              1024.1585              1036.5997
 Red. masses --      1.3331                 2.8685                 3.0775
 Frc consts  --      0.8206                 1.7727                 1.9483
 IR Inten    --      0.0982                24.1497                10.4935

                     52                     53                     54
                      A                      A                      A
 Frequencies --   1040.6436              1056.2253              1056.7223
 Red. masses --      2.4267                 1.9931                 2.4893
 Frc consts  --      1.5484                 1.3101                 1.6377
 IR Inten    --     43.8850                 5.1572                 0.8631

                     55                     56                     57
                      A                      A                      A
 Frequencies --   1065.4535              1109.5003              1129.5017
 Red. masses --      2.2468                 2.1574                 1.7989
 Frc consts  --      1.5028                 1.5647                 1.3522
 IR Inten    --      0.6256                 5.5285                54.2717

                     58                     59                     60
                      A                      A                      A
 Frequencies --   1131.8614              1178.7665              1192.3867
 Red. masses --      2.1978                 1.1804                 2.2424
 Frc consts  --      1.6589                 0.9663                 1.8784
 IR Inten    --     29.6095                44.8518                57.7345

                     61                     62                     63
                      A                      A                      A
 Frequencies --   1213.1945              1228.1734              1244.1507
 Red. masses --      1.7035                 2.5518                 1.2639
 Frc consts  --      1.4772                 2.2678                 1.1527
 IR Inten    --     19.4669               183.7137                 0.7395

                     64                     65                     66
                      A                      A                      A
 Frequencies --   1263.4573              1278.4018              1297.5285
 Red. masses --      1.4320                 1.8740                 1.4364
 Frc consts  --      1.3469                 1.8045                 1.4248
 IR Inten    --    181.2604               120.2712               234.6770

                     67                     68                     69
                      A                      A                      A
 Frequencies --   1298.5307              1306.2455              1320.9404
 Red. masses --      1.5431                 1.7212                 1.4562
 Frc consts  --      1.5330                 1.7303                 1.4970
 IR Inten    --    153.3991                 3.4718                77.9884

                     70                     71                     72
                      A                      A                      A
 Frequencies --   1327.7487              1332.5565              1338.1459
 Red. masses --      1.1325                 1.1386                 1.7065
 Frc consts  --      1.1763                 1.1912                 1.8004
 IR Inten    --     25.0275                10.8109                85.3214

                     73                     74                     75
                      A                      A                      A
 Frequencies --   1341.7681              1367.3085              1369.4432
 Red. masses --      1.3860                 6.4273                 1.4226
 Frc consts  --      1.4701                 7.0796                 1.5719
 IR Inten    --      2.2915               120.7825                11.8550

                     76                     77                     78
                      A                      A                      A
 Frequencies --   1378.2906              1389.2934              1395.8331
 Red. masses --      2.2261                 1.5399                 1.5925
 Frc consts  --      2.4916                 1.7512                 1.8281
 IR Inten    --    592.3840                 7.5118                 1.5041

                     79                     80                     81
                      A                      A                      A
 Frequencies --   1403.9836              1470.2335              1471.3939
 Red. masses --      1.2638                 1.1124                 1.0685
 Frc consts  --      1.4677                 1.4167                 1.3630
 IR Inten    --      2.5270                 9.9792                 0.5589

                     82                     83                     84
                      A                      A                      A
 Frequencies --   1475.4526              1482.7788              1484.0431
 Red. masses --      1.0779                 1.1825                 1.9562
 Frc consts  --      1.3825                 1.5318                 2.5384
 IR Inten    --      2.4646                 0.1934                 8.3151

                     85                     86                     87
                      A                      A                      A
 Frequencies --   1488.0339              1491.9359              1500.6865
 Red. masses --      1.0401                 1.0876                 1.0960
 Frc consts  --      1.3569                 1.4263                 1.4543
 IR Inten    --     10.3430                 4.7538                 0.5903

                     88                     89                     90
                      A                      A                      A
 Frequencies --   1504.7912              1507.1477              1610.2222
 Red. masses --      2.6769                 1.0993                 6.6268
 Frc consts  --      3.5713                 1.4712                10.1233
 IR Inten    --      8.0697                23.9373                28.8680

                     91                     92                     93
                      A                      A                      A
 Frequencies --   1618.9855              1673.2536              1686.3231
 Red. masses --      6.0626                10.5238                12.0078
 Frc consts  --      9.3626                17.3599                20.1184
 IR Inten    --    307.6873               599.1944               372.1456

                     94                     95                     96
                      A                      A                      A
 Frequencies --   1688.1239              2989.8234              2992.0950
 Red. masses --      7.5811                 1.0574                 1.0576
 Frc consts  --     12.7289                 5.5690                 5.5785
 IR Inten    --    138.2185                 3.3963                 0.8607

                     97                     98                     99
                      A                      A                      A
 Frequencies --   2997.9602              3003.3763              3006.7417
 Red. masses --      1.0587                 1.0595                 1.0989
 Frc consts  --      5.6065                 5.6307                 5.8532
 IR Inten    --     54.8232               168.9466                 0.3744

                    100                    101                    102
                      A                      A                      A
 Frequencies --   3013.2451              3015.4279              3016.7875
 Red. masses --      1.0355                 1.0903                 1.0693
 Frc consts  --      5.5396                 5.8409                 5.7336
 IR Inten    --     61.2410                16.4182                47.8771

                    103                    104                    105
                      A                      A                      A
 Frequencies --   3029.2870              3041.3682              3046.5907
 Red. masses --      1.1039                 1.1051                 1.0591
 Frc consts  --      5.9686                 6.0228                 5.7920
 IR Inten    --      0.5451               113.6872                60.2259

                    106                    107                    108
                      A                      A                      A
 Frequencies --   3054.4764              3071.9512              3076.9980
 Red. masses --      1.1042                 1.1026                 1.1011
 Frc consts  --      6.0700                 6.1308                 6.1424
 IR Inten    --    128.3005               118.3610                72.1540

                    109                    110                    111
                      A                      A                      A
 Frequencies --   3092.3409              3180.2098              3192.0105
 Red. masses --      1.1051                 1.0875                 1.0910
 Frc consts  --      6.2263                 6.4800                 6.5495
 IR Inten    --     35.4250                 3.0895                 7.9037

                    112                    113                    114
                      A                      A                      A
 Frequencies --   3202.6483              3206.8570              3617.7349
 Red. masses --      1.0937                 1.0952                 1.0645
 Frc consts  --      6.6093                 6.6358                 8.2088
 IR Inten    --      5.6482                13.9338               280.6746

 - Thermochemistry -
 -------------------
 Temperature   298.150 Kelvin.  Pressure   1.00000 Atm.
 Atom     1 has atomic number  6 and mass  12.00000

 Molecular mass:   272.14124 amu.
 Principal axes and moments of inertia in atomic units:
                           1         2         3
     Eigenvalues --  2351.86922********************
           X            0.81411   0.53736   0.22014
           Y           -0.39435   0.78987  -0.46968
           Z           -0.42627   0.29556   0.85495
 This molecule is an asymmetric top.
 Rotational symmetry number  1.
 Warning -- assumption of classical behavior for rotation
           may cause significant error
 Rotational temperatures (Kelvin)      0.03683     0.00551     0.00503
 Rotational constants (GHZ):           0.76736     0.11477     0.10480
 Zero-point vibrational energy     876717.4 (Joules/Mol)
                                  209.54048 (Kcal/Mol)
 Warning -- explicit consideration of  29 degrees of freedom as
           vibrations may cause significant error
 Vibrational temperatures:     22.66    34.97    54.62    83.02    88.34
          (Kelvin)            120.83   146.68   166.66   179.69   190.62
                              221.96   253.16   290.88   350.73   364.66
                              384.36   438.38   484.23   515.77   554.67
                              569.04   602.50   610.89   639.70   681.20
                              687.56   757.49   835.19   867.11   939.53
                              972.89  1015.36  1023.04  1050.09  1055.92
                             1060.09  1099.82  1109.39  1159.39  1178.10
                             1251.89  1287.57  1310.85  1339.58  1360.95
                             1419.30  1436.31  1450.64  1470.67  1473.54
                             1491.44  1497.25  1519.67  1520.39  1532.95
                             1596.32  1625.10  1628.50  1695.98  1715.58
                             1745.52  1767.07  1790.06  1817.83  1839.34
                             1866.85  1868.30  1879.40  1900.54  1910.33
                             1917.25  1925.29  1930.50  1967.25  1970.32
                             1983.05  1998.88  2008.29  2020.02  2115.34
                             2117.01  2122.85  2133.39  2135.21  2140.95
                             2146.56  2159.15  2165.06  2168.45  2316.75
                             2329.36  2407.44  2426.24  2428.83  4301.69
                             4304.96  4313.40  4321.19  4326.03  4335.39
                             4338.53  4340.48  4358.47  4375.85  4383.36
                             4394.71  4419.85  4427.11  4449.19  4575.61
                             4592.59  4607.90  4613.95  5205.11

 Zero-point correction=                           0.333924 (Hartree/Particle)
 Thermal correction to Energy=                    0.353548
 Thermal correction to Enthalpy=                  0.354493
 Thermal correction to Gibbs Free Energy=         0.283050
 Sum of electronic and zero-point Energies=           -885.470116
 Sum of electronic and thermal Energies=              -885.450492
 Sum of electronic and thermal Enthalpies=            -885.449548
 Sum of electronic and thermal Free Energies=         -885.520990

                     E (Thermal)             CV                S
                      KCal/Mol        Cal/Mol-Kelvin    Cal/Mol-Kelvin
 Total                  221.855             73.526            150.363
 Electronic               0.000              0.000              0.000
 Translational            0.889              2.981             42.702
 Rotational               0.889              2.981             34.809
 Vibrational            220.078             67.564             72.852
 Vibration     1          0.593              1.986              7.109
 Vibration     2          0.593              1.985              6.247
 Vibration     3          0.594              1.982              5.363
 Vibration     4          0.596              1.974              4.534
 Vibration     5          0.597              1.973              4.412
 Vibration     6          0.601              1.960              3.796
 Vibration     7          0.604              1.948              3.417
 Vibration     8          0.608              1.936              3.169
 Vibration     9          0.610              1.928              3.023
 Vibration    10          0.613              1.921              2.910
 Vibration    11          0.620              1.898              2.619
 Vibration    12          0.628              1.872              2.371
 Vibration    13          0.639              1.837              2.113
 Vibration    14          0.659              1.773              1.775
 Vibration    15          0.665              1.757              1.706
 Vibration    16          0.672              1.733              1.615
 Vibration    17          0.696              1.665              1.391
 Vibration    18          0.717              1.602              1.228
 Vibration    19          0.733              1.558              1.129
 Vibration    20          0.754              1.501              1.017
 Vibration    21          0.762              1.480              0.979
 Vibration    22          0.782              1.429              0.896
 Vibration    23          0.787              1.417              0.877
 Vibration    24          0.804              1.373              0.812
 Vibration    25          0.830              1.309              0.728
 Vibration    26          0.834              1.299              0.716
 Vibration    27          0.881              1.191              0.595
 Vibration    28          0.937              1.074              0.484
 Vibration    29          0.961              1.026              0.445

 Optimization completed.
    -- Stationary point found.
 Normal termination of Gaussian 16 at Sun Feb 11 02:52:42 2024.
