 Q-Chem 5.4, Q-Chem, Inc., Pleasanton, CA (2021)
 Q-Chem 5.4.0 for Intel X86 EM64T Linux

User input:
--------------------------------------------------------------
$molecule
-1 2
C                 -3.2802860000      3.5961180000      0.0854890000
C                 -4.5065600000      2.9561540000      0.0920170000
C                 -4.5474780000      1.5437100000      0.0687320000
C                 -2.0667310000      2.8839230000      0.0563890000
C                 -2.1207910000      1.4569750000      0.0330700000
C                 -3.3747250000      0.8153750000      0.0398470000
C                 -0.8037610000      3.6218430000      0.0509810000
C                  0.4121070000      2.8067370000      0.0199520000
C                  0.3580470000      1.3797890000     -0.0033660000
C                 -0.9049210000      0.6418660000      0.0021970000
C                  1.6660380000      3.4483400000      0.0130270000
C                  2.8387890000      2.7200060000     -0.0160030000
C                  2.7978720000      1.3075620000     -0.0392900000
C                  1.5716000000      0.6675970000     -0.0326190000
O                 -0.7634140000      4.8784560000      0.0716210000
O                 -0.9452710000     -0.6147420000     -0.0187030000
H                 -3.4014950000     -0.2672890000      0.0218720000
H                  1.5131170000     -0.4147870000     -0.0500360000
H                 -3.2218020000      4.6785010000      0.1029120000
H                  1.6928090000      4.5310030000      0.0310110000
O                  4.0179180000      3.4477520000     -0.0209500000
O                 -5.7266090000      0.8159650000      0.0735280000
C                 -6.9482170000      1.5219910000      0.0951480000
C                  5.2395230000      2.7417190000     -0.0424940000
H                 -5.4155630000      3.5440120000      0.1148470000
H                  3.7068750000      0.7197080000     -0.0622360000
H                 -7.7345910000      0.7656680000      0.0916220000
H                 -7.0670090000      2.1646790000     -0.7868080000
H                 -7.0506030000      2.1389250000      0.9973430000
H                  6.0259010000      3.4980400000     -0.0390020000
H                  5.3419320000      2.1247240000     -0.9446440000
H                  5.3582880000      2.0990900000      0.8395080000
$end
$rem
MAX_SCF_CYCLES=200
BASIS  =  6-311++G(d,p)
GUI  =  2
JOB_TYPE  =  SP
METHOD  =  B3LYP
SOLVENT_METHOD = PCM
$end
$pcm
theory = CPCM
$end
$solvent
dielectric 37.219
opticaldielectric 1.43
$end

--------------------------------------------------------------

             Standard Nuclear Orientation (Angstroms)
    I     Atom           X                Y                Z
 ----------------------------------------------------------------
    1      C      -3.2802860000     3.5961180000     0.0854890000
    2      C      -4.5065600000     2.9561540000     0.0920170000
    3      C      -4.5474780000     1.5437100000     0.0687320000
    4      C      -2.0667310000     2.8839230000     0.0563890000
    5      C      -2.1207910000     1.4569750000     0.0330700000
    6      C      -3.3747250000     0.8153750000     0.0398470000
    7      C      -0.8037610000     3.6218430000     0.0509810000
    8      C       0.4121070000     2.8067370000     0.0199520000
    9      C       0.3580470000     1.3797890000    -0.0033660000
   10      C      -0.9049210000     0.6418660000     0.0021970000
   11      C       1.6660380000     3.4483400000     0.0130270000
   12      C       2.8387890000     2.7200060000    -0.0160030000
   13      C       2.7978720000     1.3075620000    -0.0392900000
   14      C       1.5716000000     0.6675970000    -0.0326190000
   15      O      -0.7634140000     4.8784560000     0.0716210000
   16      O      -0.9452710000    -0.6147420000    -0.0187030000
   17      H      -3.4014950000    -0.2672890000     0.0218720000
   18      H       1.5131170000    -0.4147870000    -0.0500360000
   19      H      -3.2218020000     4.6785010000     0.1029120000
   20      H       1.6928090000     4.5310030000     0.0310110000
   21      O       4.0179180000     3.4477520000    -0.0209500000
   22      O      -5.7266090000     0.8159650000     0.0735280000
   23      C      -6.9482170000     1.5219910000     0.0951480000
   24      C       5.2395230000     2.7417190000    -0.0424940000
   25      H      -5.4155630000     3.5440120000     0.1148470000
   26      H       3.7068750000     0.7197080000    -0.0622360000
   27      H      -7.7345910000     0.7656680000     0.0916220000
   28      H      -7.0670090000     2.1646790000    -0.7868080000
   29      H      -7.0506030000     2.1389250000     0.9973430000
   30      H       6.0259010000     3.4980400000    -0.0390020000
   31      H       5.3419320000     2.1247240000    -0.9446440000
   32      H       5.3582880000     2.0990900000     0.8395080000
 ----------------------------------------------------------------

    8    -918.2150490000      8.14e-06  Convergence criterion met
 Total energy in the final basis set =     -918.2150490000

                    Orbital Energies (a.u.)
 --------------------------------------------------------------

 Alpha MOs
 -- Occupied --
-19.1542 -19.1542 -19.0751 -19.0751 -10.2349 -10.2349 -10.2238 -10.2238
-10.2145 -10.2145 -10.1747 -10.1747 -10.1740 -10.1740 -10.1733 -10.1733
-10.1688 -10.1688 -10.1659 -10.1659  -1.0656  -1.0656  -1.0028  -1.0004
 -0.8621  -0.8520  -0.7862  -0.7609  -0.7587  -0.7435  -0.7007  -0.6987
 -0.6514  -0.6433  -0.6016  -0.5963  -0.5606  -0.5430  -0.5347  -0.5117
 -0.4899  -0.4839  -0.4696  -0.4664  -0.4661  -0.4529  -0.4342  -0.4249
 -0.4234  -0.4219  -0.4193  -0.4133  -0.4036  -0.3946  -0.3816  -0.3781
 -0.3704  -0.3626  -0.3618  -0.3534  -0.3311  -0.3270  -0.3196  -0.3104
 -0.2650  -0.2558  -0.2475  -0.2394  -0.2384  -0.2266  -0.1377

 Beta MOs
 -- Occupied --
-19.1539 -19.1539 -19.0702 -19.0702 -10.2344 -10.2344 -10.2217 -10.2217
-10.2145 -10.2145 -10.1738 -10.1738 -10.1737 -10.1737 -10.1732 -10.1732
-10.1685 -10.1685 -10.1656 -10.1656  -1.0649  -1.0649  -0.9940  -0.9913
 -0.8596  -0.8508  -0.7826  -0.7589  -0.7573  -0.7418  -0.6981  -0.6980
 -0.6455  -0.6417  -0.5996  -0.5954  -0.5583  -0.5419  -0.5330  -0.5101
 -0.4888  -0.4832  -0.4674  -0.4652  -0.4650  -0.4518  -0.4329  -0.4245
 -0.4223  -0.4158  -0.4122  -0.4096  -0.4007  -0.3933  -0.3762  -0.3700
 -0.3607  -0.3582  -0.3552  -0.3521  -0.3308  -0.3261  -0.3168  -0.3005
 -0.2536  -0.2475  -0.2430  -0.2338  -0.2304  -0.2208

          Ground-State Mulliken Net Atomic Charges

     Atom                 Charge (a.u.)    Spin (a.u.)
  --------------------------------------------------------
      1 C                    -0.016935       0.032404
      2 C                     0.072516       0.012518
      3 C                    -0.804031       0.030765
      4 C                     0.537747       0.009207
      5 C                     0.692981       0.062212
      6 C                    -0.548362       0.041710
      7 C                    -0.488862       0.121164
      8 C                     0.693131       0.062208
      9 C                     0.537523       0.009211
     10 C                    -0.488855       0.121161
     11 C                    -0.548302       0.041710
     12 C                    -0.804079       0.030764
     13 C                     0.072585       0.012522
     14 C                    -0.016856       0.032409
     15 O                    -0.488124       0.189051
     16 O                    -0.488121       0.189051
     17 H                     0.179356      -0.003212
     18 H                     0.175658      -0.001869
     19 H                     0.175655      -0.001869
     20 H                     0.179352      -0.003212
     21 O                    -0.223204       0.007118
     22 O                    -0.223214       0.007118
     23 C                    -0.368763      -0.000264
     24 C                    -0.368738      -0.000264
     25 H                     0.240919      -0.001837
     26 H                     0.240930      -0.001837
     27 H                     0.196966      -0.000030
     28 H                     0.171148       0.000533
     29 H                     0.170930       0.000527
     30 H                     0.196964      -0.000030
     31 H                     0.170928       0.000527
     32 H                     0.171145       0.000533
  --------------------------------------------------------
  Sum of atomic charges =    -1.000014

                    Cartesian Multipole Moments
 -----------------------------------------------------------------
    Charge (ESU x 10^10)
                -4.8033
    Dipole Moment (Debye)
         X       4.1036      Y     -10.2399      Z      -0.1269
       Tot      11.0323
    Quadrupole Moments (Debye-Ang)
        XX     -88.4141     XY      -7.2779     YY    -181.9032
        XZ      -0.5644     YZ      -0.6502     ZZ    -122.6667

 Total job time:  114.25s(wall), 484.13s(cpu)
        *  Thank you very much for using Q-Chem.  Have a nice day.  *
