 Gaussian 16, Revision A.03,
 Gaussian 16:  ES64L-G16RevA.03 25-Dec-2016

 ----------------------------------------------------------------
 #P UB3LYP/6-311++G(d,p) SCRF=(PCM,Solvent=n,n-DiMethylFormamide)
 ----------------------------------------------------------------

 -------
 Reduced
 -------
 Symbolic Z-matrix:
 Charge = -2 Multiplicity = 1

                         Standard orientation:
 ---------------------------------------------------------------------
 Center     Atomic      Atomic             Coordinates (Angstroms)
 Number     Number       Type             X           Y           Z
 ---------------------------------------------------------------------
      1          6           0        1.226109   -0.694881    0.043120
      2          6           0        1.226047    0.695498   -0.040618
      3          6           0       -0.000142    1.457072    0.001395
      4          6           0       -1.226166    0.695205    0.042738
      5          6           0       -1.226010   -0.695226   -0.040829
      6          6           0        0.000141   -1.456762    0.001478
      7          8           0        0.000355   -2.750149    0.001845
      8          8           0       -0.000316    2.750452    0.001807
      9          6           0       -2.508975   -1.480485   -0.206466
     10          6           0       -2.509441    1.480132    0.207195
     11          6           0       -3.779677    0.668684    0.052885
     12          6           0       -3.779553   -0.669091   -0.055094
     13          6           0        2.509300   -1.479963    0.207372
     14          6           0        3.779703   -0.668825    0.053210
     15          6           0        3.779698    0.668957   -0.054849
     16          6           0        2.509169    1.480526   -0.206178
     17          1           0       -2.513250   -2.288993    0.541801
     18          6           0       -2.516331   -2.194785   -1.588798
     19          1           0       -2.512523    2.289388   -0.540247
     20          6           0       -2.519153    2.193046    1.590159
     21          6           0       -5.069143    1.471883    0.087115
     22          6           0       -5.068786   -1.472391   -0.091872
     23          6           0        5.068929   -1.472307    0.087027
     24          6           0        5.069014    1.472174   -0.092160
     25          6           0        2.516646    2.194664   -1.588534
     26          1           0       -2.543769   -1.449318   -2.391361
     27          1           0       -3.386069   -2.856417   -1.703302
     28          1           0       -1.607319   -2.791678   -1.672142
     29          1           0       -2.547175    1.446823    2.391983
     30          1           0       -3.389499    2.853989    1.704075
     31          1           0       -1.610607    2.790421    1.675260
     32          1           0       -4.894103    2.485973   -0.286965
     33          1           0       -5.474875    1.578949    1.104067
     34          1           0       -5.856069    1.025292   -0.527471
     35          1           0       -5.858200   -1.023934    0.518113
     36          1           0       -4.895047   -2.485228    0.286247
     37          1           0       -5.470285   -1.582939   -1.110124
     38          1           0        4.893915   -2.485591   -0.289265
     39          1           0        5.473587   -1.581575    1.104167
     40          1           0        5.856430   -1.024609   -0.525994
     41          1           0        5.858617    1.023698    0.517564
     42          1           0        4.895549    2.485118    0.285815
     43          1           0        5.470097    1.582474   -1.110596
     44          6           0        2.518728   -2.193070    1.590296
     45          1           0        2.512230   -2.289113   -0.540188
     46          1           0        2.513574    2.289067    0.542056
     47          1           0        2.543072    1.448983   -2.390935
     48          1           0        3.386945    2.855517   -1.703440
     49          1           0        1.608091    2.792289   -1.671638
     50          1           0        2.547105   -1.446830    2.392102
     51          1           0        3.388720   -2.854503    1.704242
     52          1           0        1.609900   -2.790013    1.675393
 ---------------------------------------------------------------------

 SCF Done:  E(UB3LYP) =  -1006.12614852     A.U. after   17 cycles

 The electronic state is 1-A.
 Alpha  occ. eigenvalues --  -18.99524 -18.99523 -10.14813 -10.14813 -10.14812
 Alpha  occ. eigenvalues --  -10.14812 -10.14537 -10.14536 -10.14460 -10.14459
 Alpha  occ. eigenvalues --  -10.14439 -10.14437 -10.14412 -10.14411 -10.14410
 Alpha  occ. eigenvalues --  -10.14409 -10.13074 -10.13073 -10.13071 -10.13071
 Alpha  occ. eigenvalues --  -10.10682 -10.10680 -10.10627 -10.10626  -0.91512
 Alpha  occ. eigenvalues --   -0.91125  -0.81909  -0.81846  -0.75927  -0.75751
 Alpha  occ. eigenvalues --   -0.75516  -0.73747  -0.69837  -0.68919  -0.68871
 Alpha  occ. eigenvalues --   -0.66657  -0.64808  -0.63475  -0.62668  -0.61072
 Alpha  occ. eigenvalues --   -0.57860  -0.57170  -0.54892  -0.53273  -0.49576
 Alpha  occ. eigenvalues --   -0.46725  -0.46234  -0.45011  -0.43873  -0.42944
 Alpha  occ. eigenvalues --   -0.42845  -0.41488  -0.41215  -0.40601  -0.40131
 Alpha  occ. eigenvalues --   -0.39192  -0.38876  -0.38733  -0.38315  -0.38256
 Alpha  occ. eigenvalues --   -0.37802  -0.37486  -0.37297  -0.36569  -0.36265
 Alpha  occ. eigenvalues --   -0.35901  -0.35830  -0.35295  -0.34643  -0.33846
 Alpha  occ. eigenvalues --   -0.33757  -0.33415  -0.31966  -0.31891  -0.31889
 Alpha  occ. eigenvalues --   -0.31636  -0.29936  -0.29918  -0.29255  -0.27839
 Alpha  occ. eigenvalues --   -0.27658  -0.26844  -0.20992  -0.20785  -0.20140
 Alpha  occ. eigenvalues --   -0.17827  -0.17799  -0.16724  -0.09469
 Alpha virt. eigenvalues --   -0.00503   0.00089   0.00981   0.01183   0.01372
 Alpha virt. eigenvalues --    0.01763   0.02355   0.02724   0.02800   0.03088
 Alpha virt. eigenvalues --    0.03385   0.03563   0.03613   0.04200   0.04348

  Beta  occ. eigenvalues --  -18.99524 -18.99523 -10.14813 -10.14813 -10.14812
  Beta  occ. eigenvalues --  -10.14812 -10.14537 -10.14536 -10.14460 -10.14459
  Beta  occ. eigenvalues --  -10.14439 -10.14437 -10.14412 -10.14411 -10.14410
  Beta  occ. eigenvalues --  -10.14409 -10.13074 -10.13073 -10.13071 -10.13071
  Beta  occ. eigenvalues --  -10.10682 -10.10680 -10.10627 -10.10626  -0.91512
  Beta  occ. eigenvalues --   -0.91125  -0.81909  -0.81846  -0.75927  -0.75751
  Beta  occ. eigenvalues --   -0.75516  -0.73747  -0.69837  -0.68919  -0.68871
  Beta  occ. eigenvalues --   -0.66657  -0.64808  -0.63475  -0.62668  -0.61072
  Beta  occ. eigenvalues --   -0.57860  -0.57170  -0.54892  -0.53273  -0.49576
  Beta  occ. eigenvalues --   -0.46725  -0.46234  -0.45011  -0.43873  -0.42944
  Beta  occ. eigenvalues --   -0.42845  -0.41488  -0.41215  -0.40601  -0.40131
  Beta  occ. eigenvalues --   -0.39192  -0.38876  -0.38733  -0.38315  -0.38256
  Beta  occ. eigenvalues --   -0.37802  -0.37486  -0.37297  -0.36569  -0.36265
  Beta  occ. eigenvalues --   -0.35901  -0.35830  -0.35295  -0.34643  -0.33846
  Beta  occ. eigenvalues --   -0.33757  -0.33415  -0.31966  -0.31891  -0.31889
  Beta  occ. eigenvalues --   -0.31636  -0.29936  -0.29918  -0.29255  -0.27839
  Beta  occ. eigenvalues --   -0.27658  -0.26844  -0.20992  -0.20785  -0.20140
  Beta  occ. eigenvalues --   -0.17827  -0.17799  -0.16724  -0.09469
  Beta virt. eigenvalues --   -0.00503   0.00089   0.00981   0.01183   0.01372
  Beta virt. eigenvalues --    0.01763   0.02355   0.02724   0.02800   0.03088
  Beta virt. eigenvalues --    0.03385   0.03563   0.03613   0.04200   0.04348

 Mulliken charges and spin densities:
               1          2
     1  C    0.338725  -0.000000
     2  C    0.338837  -0.000000
     3  C   -0.610574   0.000000
     4  C    0.338631  -0.000000
     5  C    0.338409  -0.000000
     6  C   -0.609681   0.000000
     7  O   -0.647512  -0.000000
     8  O   -0.647507   0.000000
     9  C    0.072701  -0.000000
    10  C    0.072455  -0.000000
    11  C    0.094744   0.000000
    12  C    0.095293  -0.000000
    13  C    0.072683   0.000000
    14  C    0.095086  -0.000000
    15  C    0.094644   0.000000
    16  C    0.072979   0.000000
    17  H    0.168586  -0.000000
    18  C   -0.803398   0.000000
    19  H    0.168468   0.000000
    20  C   -0.802915  -0.000000
    21  C   -0.670989  -0.000000
    22  C   -0.671247   0.000000
    23  C   -0.670879  -0.000000
    24  C   -0.671363   0.000000
    25  C   -0.803510   0.000000
    26  H    0.124330  -0.000000
    27  H    0.119563  -0.000000
    28  H    0.196950  -0.000000
    29  H    0.124232   0.000000
    30  H    0.119651   0.000000
    31  H    0.196998  -0.000000
    32  H    0.154816  -0.000000
    33  H    0.180572  -0.000000
    34  H    0.152194  -0.000000
    35  H    0.152136   0.000000
    36  H    0.154828   0.000000
    37  H    0.180461   0.000000
    38  H    0.154814  -0.000000
    39  H    0.180501  -0.000000
    40  H    0.152124  -0.000000
    41  H    0.152096  -0.000000
    42  H    0.154813   0.000000
    43  H    0.180489   0.000000
    44  C   -0.803012   0.000000
    45  H    0.168487  -0.000000
    46  H    0.168621  -0.000000
    47  H    0.124309  -0.000000
    48  H    0.119565   0.000000
    49  H    0.196946  -0.000000
    50  H    0.124260   0.000000
    51  H    0.119612   0.000000
    52  H    0.196983  -0.000000
 Sum of Mulliken charges =  -2.00000  -0.00000

 Dipole moment (field-independent basis, Debye):
    X=              0.0000    Y=             -0.0014    Z=             -0.0151  Tot=              0.0151
 Quadrupole moment (field-independent basis, Debye-Ang):
   XX=           -174.2067   YY=           -218.1443   ZZ=           -164.6137
   XY=              0.0048   XZ=             -0.0050   YZ=              0.0009

 Normal termination of Gaussian 16 at Sun Jan 21 08:00:16 2024.
