 Gaussian 16, Revision A.03,
 Gaussian 16:  ES64L-G16RevA.03 25-Dec-2016

 ----------------------------------------------------------------------
 #P UB3LYP/6-311++G(d,p) nosym opt freq SCRF=(PCM,Solvent=n,n-DiMethylF
 ormamide)
 ----------------------------------------------------------------------

 --------
 Oxidized
 --------
 Symbolic Z-matrix:
 Charge =  0 Multiplicity = 1

 SCF Done:  E(UB3LYP) =  -769.961815414     A.U. after   16 cycles
 SCF Done:  E(UB3LYP) =  -769.961880845     A.U. after   13 cycles
 SCF Done:  E(UB3LYP) =  -769.961894058     A.U. after   13 cycles
 SCF Done:  E(UB3LYP) =  -769.961860793     A.U. after   13 cycles
 SCF Done:  E(UB3LYP) =  -769.961865827     A.U. after   14 cycles
 SCF Done:  E(UB3LYP) =  -769.961932670     A.U. after   13 cycles
 SCF Done:  E(UB3LYP) =  -769.961937048     A.U. after   12 cycles
 SCF Done:  E(UB3LYP) =  -769.961939477     A.U. after   11 cycles
 SCF Done:  E(UB3LYP) =  -769.961940102     A.U. after   11 cycles
 SCF Done:  E(UB3LYP) =  -769.961940758     A.U. after   10 cycles
 SCF Done:  E(UB3LYP) =  -769.961941317     A.U. after   10 cycles
 SCF Done:  E(UB3LYP) =  -769.961941576     A.U. after   10 cycles
 SCF Done:  E(UB3LYP) =  -769.961941669     A.U. after   10 cycles
 Optimization completed.
    -- Stationary point found.
 Normal termination of Gaussian 16 at Sat Mar  2 21:34:18 2024.

 ----------------------------------------------------------------------
 #P Geom=AllCheck Guess=TCheck SCRF=Check GenChk UB3LYP/6-311++G(d,p) F
 req
 ----------------------------------------------------------------------

 Structure from the checkpoint file:  "036.chk"
 --------
 Oxidized
 --------
 Charge =  0 Multiplicity = 1

                          Input orientation:
 ---------------------------------------------------------------------
 Center     Atomic      Atomic             Coordinates (Angstroms)
 Number     Number       Type             X           Y           Z
 ---------------------------------------------------------------------
      1          6           0       -3.152104    1.800287    0.398433
      2          6           0       -4.202516    1.410265   -0.562307
      3          6           0       -4.053474    0.299523   -1.283885
      4          6           0       -2.819591   -0.517165   -1.163520
      5          6           0       -1.940677   -0.347924    0.044212
      6          6           0       -2.032392    0.842937    0.698721
      7          8           0       -3.220865    2.880734    0.972208
      8          8           0       -2.520376   -1.244297   -2.101105
      9          6           0       -1.107958    1.341594    1.774542
     10          6           0       -0.965641   -1.480679    0.475831
     11          6           0        0.500960   -1.043441    0.285684
     12          6           0        0.887978   -0.410555   -0.904471
     13          6           0        1.494137   -1.326010    1.230395
     14          6           0        2.827153   -0.979000    0.999002
     15          6           0        2.216099   -0.062040   -1.138492
     16          6           0        3.194961   -0.343737   -0.184556
     17          1           0       -5.045535    2.083034   -0.668697
     18          1           0       -4.754323   -0.009706   -2.050843
     19          1           0       -1.596594    1.306758    2.753620
     20          1           0       -0.873387    2.391166    1.586106
     21          1           0       -0.181642    0.778884    1.823940
     22          1           0        0.144022   -0.187421   -1.661239
     23          1           0        1.239987   -1.814241    2.162643
     24          1           0        3.575558   -1.205722    1.750479
     25          1           0        2.486068    0.429692   -2.066669
     26          6           0       -1.316655   -1.840134    1.945155
     27          1           0       -2.375618   -2.100889    2.007667
     28          1           0       -0.747426   -2.714015    2.267827
     29          1           0       -1.126212   -1.033053    2.649780
     30          6           0       -1.131390   -2.810200   -0.313755
     31          1           0       -2.160235   -3.175629   -0.267656
     32          1           0       -0.844493   -2.718592   -1.357113
     33          1           0       -0.487915   -3.556494    0.158696
     34          1           0        4.229083   -0.071582   -0.363035
 ---------------------------------------------------------------------

 SCF Done:  E(UB3LYP) =  -769.961941669     A.U. after    1 cycles

 Alpha  occ. eigenvalues --  -19.14012 -19.13987 -10.28833 -10.28467 -10.21874
 Alpha  occ. eigenvalues --  -10.21749 -10.21532 -10.21109 -10.20861 -10.19303
 Alpha  occ. eigenvalues --  -10.18068 -10.18061 -10.17911 -10.17880 -10.17869
 Alpha  occ. eigenvalues --  -10.17337 -10.16669 -10.16119  -1.07193  -1.06915
 Alpha  occ. eigenvalues --   -0.87971  -0.86201  -0.82814  -0.79404  -0.75442
 Alpha  occ. eigenvalues --   -0.74461  -0.72578  -0.69357  -0.68785  -0.64296
 Alpha  occ. eigenvalues --   -0.61615  -0.60911  -0.59251  -0.56373  -0.52878
 Alpha  occ. eigenvalues --   -0.52542  -0.50332  -0.48727  -0.46676  -0.46622
 Alpha  occ. eigenvalues --   -0.45902  -0.45479  -0.44770  -0.43952  -0.43329
 Alpha  occ. eigenvalues --   -0.43003  -0.42103  -0.41273  -0.40729  -0.40090
 Alpha  occ. eigenvalues --   -0.39424  -0.38775  -0.37989  -0.37355  -0.36538
 Alpha  occ. eigenvalues --   -0.35214  -0.34355  -0.33923  -0.31108  -0.29006
 Alpha  occ. eigenvalues --   -0.28099  -0.27419  -0.26324  -0.25320
 Alpha virt. eigenvalues --   -0.13034  -0.02971  -0.02256  -0.02036  -0.01061
 Alpha virt. eigenvalues --   -0.00808   0.00318   0.00831   0.00917   0.01702
 Alpha virt. eigenvalues --    0.02541   0.02779   0.02926   0.03737   0.03952

  Beta  occ. eigenvalues --  -19.14012 -19.13987 -10.28833 -10.28467 -10.21874
  Beta  occ. eigenvalues --  -10.21749 -10.21532 -10.21109 -10.20861 -10.19303
  Beta  occ. eigenvalues --  -10.18068 -10.18061 -10.17911 -10.17880 -10.17869
  Beta  occ. eigenvalues --  -10.17337 -10.16669 -10.16119  -1.07193  -1.06915
  Beta  occ. eigenvalues --   -0.87971  -0.86201  -0.82814  -0.79404  -0.75442
  Beta  occ. eigenvalues --   -0.74461  -0.72578  -0.69357  -0.68785  -0.64296
  Beta  occ. eigenvalues --   -0.61615  -0.60911  -0.59251  -0.56373  -0.52878
  Beta  occ. eigenvalues --   -0.52542  -0.50332  -0.48727  -0.46676  -0.46622
  Beta  occ. eigenvalues --   -0.45902  -0.45479  -0.44770  -0.43952  -0.43329
  Beta  occ. eigenvalues --   -0.43003  -0.42103  -0.41273  -0.40729  -0.40090
  Beta  occ. eigenvalues --   -0.39424  -0.38775  -0.37989  -0.37355  -0.36538
  Beta  occ. eigenvalues --   -0.35214  -0.34355  -0.33923  -0.31108  -0.29006
  Beta  occ. eigenvalues --   -0.28099  -0.27419  -0.26324  -0.25320
  Beta virt. eigenvalues --   -0.13034  -0.02971  -0.02256  -0.02036  -0.01061
  Beta virt. eigenvalues --   -0.00808   0.00318   0.00831   0.00917   0.01702
  Beta virt. eigenvalues --    0.02541   0.02779   0.02926   0.03737   0.03952

 Mulliken charges and spin densities:
               1          2
     1  C   -0.484776  -0.000000
     2  C    0.080704   0.000000
     3  C   -0.096830  -0.000000
     4  C   -0.546876  -0.000000
     5  C    0.868016   0.000000
     6  C    0.357054  -0.000000
     7  O   -0.277273   0.000000
     8  O   -0.233473   0.000000
     9  C   -0.585332   0.000000
    10  C    0.170224  -0.000000
    11  C    0.596217   0.000000
    12  C   -0.392874   0.000000
    13  C   -0.161353  -0.000000
    14  C   -0.335502   0.000000
    15  C   -0.509491  -0.000000
    16  C   -0.372550  -0.000000
    17  H    0.240696  -0.000000
    18  H    0.256064  -0.000000
    19  H    0.225557   0.000000
    20  H    0.190485   0.000000
    21  H    0.132894   0.000000
    22  H    0.200807   0.000000
    23  H    0.169402  -0.000000
    24  H    0.209661   0.000000
    25  H    0.207759  -0.000000
    26  C   -0.553227  -0.000000
    27  H    0.180423  -0.000000
    28  H    0.151829  -0.000000
    29  H    0.167339  -0.000000
    30  C   -0.536005   0.000000
    31  H    0.169050   0.000000
    32  H    0.181901  -0.000000
    33  H    0.154325  -0.000000
    34  H    0.175152   0.000000
 Sum of Mulliken charges =  -0.00000   0.00000

 Dipole moment (field-independent basis, Debye):
    X=             -0.1425    Y=             -1.4957    Z=              1.5253  Tot=              2.1411
 Quadrupole moment (field-independent basis, Debye-Ang):
   XX=            -95.7153   YY=           -119.6194   ZZ=           -108.2027
   XY=              5.7940   XZ=              2.7704   YZ=            -12.3930

  Exact polarizability: 271.841 -15.740 264.772  11.077  28.448 251.501
 Approx polarizability: 287.844 -13.755 326.179   6.397  52.331 308.384

                      1                      2                      3
                      A                      A                      A
 Frequencies --     27.7598                44.6222                57.4864
 Red. masses --      5.6276                 4.1559                 4.5415
 Frc consts  --      0.0026                 0.0049                 0.0088
 IR Inten    --      0.3976                 0.0784                 2.2376

                      4                      5                      6
                      A                      A                      A
 Frequencies --     69.8867                96.4782               156.3799
 Red. masses --      8.0053                 3.8200                 1.8501
 Frc consts  --      0.0230                 0.0209                 0.0267
 IR Inten    --     16.4769                 0.3400                 1.3434

                      7                      8                      9
                      A                      A                      A
 Frequencies --    199.2129               225.3014               230.9251
 Red. masses --      1.6613                 3.1119                 3.2989
 Frc consts  --      0.0388                 0.0931                 0.1036
 IR Inten    --      1.0090                 2.0660                 1.5302

                     10                     11                     12
                      A                      A                      A
 Frequencies --    251.0062               256.3394               269.3946
 Red. masses --      4.2910                 2.4497                 1.5237
 Frc consts  --      0.1593                 0.0948                 0.0652
 IR Inten    --      0.8799                 1.5768                 0.2863

                     13                     14                     15
                      A                      A                      A
 Frequencies --    292.8266               320.9871               335.2981
 Red. masses --      2.4436                 2.5798                 1.5458
 Frc consts  --      0.1235                 0.1566                 0.1024
 IR Inten    --      1.2816                 1.1499                 0.4129

                     16                     17                     18
                      A                      A                      A
 Frequencies --    357.4502               375.8474               412.9881
 Red. masses --      2.6302                 2.4683                 2.9045
 Frc consts  --      0.1980                 0.2054                 0.2919
 IR Inten    --      2.5688                 2.1785                 1.1274

                     19                     20                     21
                      A                      A                      A
 Frequencies --    414.8072               427.0285               453.8905
 Red. masses --      4.2526                 4.3094                 6.5005
 Frc consts  --      0.4311                 0.4630                 0.7890
 IR Inten    --     13.6667                16.6620                 5.1686

                     22                     23                     24
                      A                      A                      A
 Frequencies --    488.5418               508.2157               551.6852
 Red. masses --      3.1294                 5.6841                 3.4838
 Frc consts  --      0.4401                 0.8650                 0.6247
 IR Inten    --      3.6784                 7.8593                27.1033

                     25                     26                     27
                      A                      A                      A
 Frequencies --    576.4652               613.0967               631.8023
 Red. masses --      3.0121                 3.3046                 5.9086
 Frc consts  --      0.5898                 0.7319                 1.3896
 IR Inten    --      1.2215                 4.2419                 0.6213

                     28                     29                     30
                      A                      A                      A
 Frequencies --    640.5086               651.6039               712.5465
 Red. masses --      4.2649                 3.6987                 1.5772
 Frc consts  --      1.0309                 0.9253                 0.4718
 IR Inten    --      4.7952                 2.5206                80.4704

                     31                     32                     33
                      A                      A                      A
 Frequencies --    721.9084               772.1507               783.4653
 Red. masses --      5.4865                 3.5441                 2.3922
 Frc consts  --      1.6846                 1.2450                 0.8651
 IR Inten    --     19.5906                33.0490                18.1519

                     34                     35                     36
                      A                      A                      A
 Frequencies --    815.6208               826.6978               851.9405
 Red. masses --      3.9705                 3.2190                 2.2763
 Frc consts  --      1.5562                 1.2962                 0.9734
 IR Inten    --     18.3735                 6.0333                77.8844

                     37                     38                     39
                      A                      A                      A
 Frequencies --    856.3074               920.7498               937.1483
 Red. masses --      1.2553                 1.8100                 1.9938
 Frc consts  --      0.5423                 0.9041                 1.0317
 IR Inten    --      0.1469                12.1904                 2.7382

                     40                     41                     42
                      A                      A                      A
 Frequencies --    947.0110               967.9284               992.7659
 Red. masses --      1.5467                 3.3301                 1.3810
 Frc consts  --      0.8173                 1.8382                 0.8019
 IR Inten    --      0.5247                41.0234                 0.0119

                     43                     44                     45
                      A                      A                      A
 Frequencies --   1009.9101              1014.0473              1014.2297
 Red. masses --      1.2914                 1.3224                 5.2389
 Frc consts  --      0.7760                 0.8012                 3.1751
 IR Inten    --      0.0686                 0.6226                 0.3920

                     46                     47                     48
                      A                      A                      A
 Frequencies --   1031.3485              1046.0358              1047.8853
 Red. masses --      1.4068                 1.9231                 1.8319
 Frc consts  --      0.8817                 1.2398                 1.1851
 IR Inten    --     26.6944                19.6042                12.7269

                     49                     50                     51
                      A                      A                      A
 Frequencies --   1054.0418              1097.8999              1113.9223
 Red. masses --      1.9835                 1.7257                 1.6075
 Frc consts  --      1.2984                 1.2256                 1.1752
 IR Inten    --     45.8460                 2.5617                48.1133

                     52                     53                     54
                      A                      A                      A
 Frequencies --   1122.0390              1135.7087              1158.6581
 Red. masses --      2.0350                 2.3400                 2.9105
 Frc consts  --      1.5095                 1.7783                 2.3022
 IR Inten    --     37.0105                10.5536                 3.8014

                     55                     56                     57
                      A                      A                      A
 Frequencies --   1176.7043              1200.4690              1206.4543
 Red. masses --      1.1009                 2.2813                 1.1467
 Frc consts  --      0.8981                 1.9371                 0.9834
 IR Inten    --      0.1157                12.6140                 2.2301

                     58                     59                     60
                      A                      A                      A
 Frequencies --   1241.9462              1282.2409              1302.5390
 Red. masses --      3.2239                 3.4955                 3.5915
 Frc consts  --      2.9298                 3.3861                 3.5901
 IR Inten    --     13.1771               201.6273               114.1248

                     61                     62                     63
                      A                      A                      A
 Frequencies --   1319.3815              1357.9259              1387.2618
 Red. masses --      5.2175                 1.4277                 1.8685
 Frc consts  --      5.3512                 1.5511                 2.1186
 IR Inten    --      2.6193                 1.0583                 3.0883

                     64                     65                     66
                      A                      A                      A
 Frequencies --   1400.6425              1405.8824              1425.6457
 Red. masses --      1.2043                 1.2370                 1.2021
 Frc consts  --      1.3920                 1.4405                 1.4395
 IR Inten    --      6.5545                35.6813                14.5462

                     67                     68                     69
                      A                      A                      A
 Frequencies --   1468.1850              1471.1661              1477.3069
 Red. masses --      1.0943                 2.0357                 1.0640
 Frc consts  --      1.3898                 2.5959                 1.3682
 IR Inten    --      8.1644                12.5475                 3.6851

                     70                     71                     72
                      A                      A                      A
 Frequencies --   1483.2693              1488.3311              1503.3773
 Red. masses --      1.0638                 1.0510                 1.0620
 Frc consts  --      1.3790                 1.3717                 1.4142
 IR Inten    --      8.7895                 5.1928                24.4368

                     73                     74                     75
                      A                      A                      A
 Frequencies --   1512.1418              1523.5647              1609.0084
 Red. masses --      1.0582                 2.0467                 7.3664
 Frc consts  --      1.4256                 2.7991                11.2362
 IR Inten    --     14.6329                28.1994                66.0413

                     76                     77                     78
                      A                      A                      A
 Frequencies --   1614.9609              1635.5025              1675.4931
 Red. masses --      5.4159                 5.5166                10.7275
 Frc consts  --      8.3223                 8.6940                17.7433
 IR Inten    --      2.2519                13.7966               207.2829

                     79                     80                     81
                      A                      A                      A
 Frequencies --   1684.3689              1706.7476              3036.3439
 Red. masses --     11.4798                 8.3069                 1.0393
 Frc consts  --     19.1893                14.2570                 5.6452
 IR Inten    --    931.7669                16.6472                32.0812

                     82                     83                     84
                      A                      A                      A
 Frequencies --   3037.4549              3046.9554              3091.2729
 Red. masses --      1.0473                 1.0386                 1.0920
 Frc consts  --      5.6930                 5.6808                 6.1484
 IR Inten    --     10.8928                51.0776                12.0086

                     85                     86                     87
                      A                      A                      A
 Frequencies --   3092.6763              3102.8810              3140.8710
 Red. masses --      1.1026                 1.1015                 1.0988
 Frc consts  --      6.2137                 6.2483                 6.3866
 IR Inten    --     26.3600                77.4973                26.1230

                     88                     89                     90
                      A                      A                      A
 Frequencies --   3157.2870              3161.0585              3167.7204
 Red. masses --      1.0974                 1.0855                 1.0881
 Frc consts  --      6.4452                 6.3904                 6.4331
 IR Inten    --     19.6243                 1.8475                 5.1541

                     91                     92                     93
                      A                      A                      A
 Frequencies --   3171.8851              3176.8638              3181.8736
 Red. masses --      1.0967                 1.0923                 1.0871
 Frc consts  --      6.5010                 6.4953                 6.4849
 IR Inten    --      3.5794                31.4146                 4.1103

                     94                     95                     96
                      A                      A                      A
 Frequencies --   3186.4619              3195.6854              3199.5861
 Red. masses --      1.0957                 1.0936                 1.1010
 Frc consts  --      6.5548                 6.5799                 6.6410
 IR Inten    --     33.7894                14.4955                 4.1470

 - Thermochemistry -
 -------------------
 Temperature   298.150 Kelvin.  Pressure   1.00000 Atm.
 Atom     1 has atomic number  6 and mass  12.00000

 Molecular mass:   240.11503 amu.
 Principal axes and moments of inertia in atomic units:
                           1         2         3
     Eigenvalues --  2564.636485793.654926451.70289
           X            0.93452   0.25217  -0.25116
           Y           -0.34682   0.80364  -0.48361
           Z            0.07989   0.53905   0.83847
 This molecule is an asymmetric top.
 Rotational symmetry number  1.
 Warning -- assumption of classical behavior for rotation
           may cause significant error
 Rotational temperatures (Kelvin)      0.03377     0.01495     0.01342
 Rotational constants (GHZ):           0.70370     0.31150     0.27973
 Zero-point vibrational energy     727312.8 (Joules/Mol)
                                  173.83192 (Kcal/Mol)
 Warning -- explicit consideration of  26 degrees of freedom as
           vibrations may cause significant error
 Vibrational temperatures:     39.94    64.20    82.71   100.55   138.81
          (Kelvin)            225.00   286.62   324.16   332.25   361.14
                              368.82   387.60   421.31   461.83   482.42
                              514.29   540.76   594.20   596.82   614.40
                              653.05   702.90   731.21   793.75   829.40
                              882.11   909.02   921.55   937.51  1025.20
                             1038.67  1110.95  1127.23  1173.50  1189.43
                             1225.75  1232.04  1324.75  1348.35  1362.54
                             1392.63  1428.37  1453.04  1458.99  1459.25
                             1483.88  1505.01  1507.67  1516.53  1579.63
                             1602.69  1614.36  1634.03  1667.05  1693.02
                             1727.21  1735.82  1786.88  1844.86  1874.06
                             1898.30  1953.75  1995.96  2015.21  2022.75
                             2051.19  2112.39  2116.68  2125.52  2134.09
                             2141.38  2163.02  2175.63  2192.07  2315.00
                             2323.57  2353.12  2410.66  2423.43  2455.63
                             4368.62  4370.22  4383.89  4447.65  4449.67
                             4464.35  4519.01  4542.63  4548.06  4557.64
                             4563.64  4570.80  4578.01  4584.61  4597.88
                             4603.49

 Zero-point correction=                           0.277019 (Hartree/Particle)
 Thermal correction to Energy=                    0.293407
 Thermal correction to Enthalpy=                  0.294351
 Thermal correction to Gibbs Free Energy=         0.232926
 Sum of electronic and zero-point Energies=           -769.684923
 Sum of electronic and thermal Energies=              -769.668535
 Sum of electronic and thermal Enthalpies=            -769.667591
 Sum of electronic and thermal Free Energies=         -769.729015

                     E (Thermal)             CV                S
                      KCal/Mol        Cal/Mol-Kelvin    Cal/Mol-Kelvin
 Total                  184.115             64.487            129.279
 Electronic               0.000              0.000              0.000
 Translational            0.889              2.981             42.329
 Rotational               0.889              2.981             32.927
 Vibrational            182.338             58.525             54.022
 Vibration     1          0.593              1.984              5.983
 Vibration     2          0.595              1.980              5.043
 Vibration     3          0.596              1.975              4.542
 Vibration     4          0.598              1.968              4.157
 Vibration     5          0.603              1.952              3.524
 Vibration     6          0.620              1.896              2.593
 Vibration     7          0.637              1.841              2.140
 Vibration     8          0.650              1.803              1.916
 Vibration     9          0.653              1.794              1.872
 Vibration    10          0.663              1.761              1.724
 Vibration    11          0.666              1.752              1.687
 Vibration    12          0.674              1.729              1.600
 Vibration    13          0.688              1.687              1.458
 Vibration    14          0.706              1.633              1.305
 Vibration    15          0.716              1.605              1.234
 Vibration    16          0.733              1.560              1.133
 Vibration    17          0.747              1.522              1.056
 Vibration    18          0.777              1.442              0.916
 Vibration    19          0.778              1.438              0.910
 Vibration    20          0.789              1.411              0.868
 Vibration    21          0.812              1.352              0.784
 Vibration    22          0.844              1.275              0.687
 Vibration    23          0.863              1.232              0.638
 Vibration    24          0.907              1.136              0.541
 Vibration    25          0.933              1.082              0.492
 Vibration    26          0.972              1.004              0.428

                           ! Non-Optimized Parameters !
 Normal termination of Gaussian 16 at Sun Mar  3 00:17:43 2024.
