 Q-Chem 5.4, Q-Chem, Inc., Pleasanton, CA (2021)
 Q-Chem 5.4.0 for Intel X86 EM64T Linux

User input:
--------------------------------------------------------------
$molecule
-1 2
C                 -3.1122970000     -3.2085940000     -0.8264440000
C                 -2.1109130000     -2.1476330000     -0.9525590000
C                 -2.4860540000     -0.8235650000     -0.8203650000
C                 -3.8331430000     -0.3862530000     -0.5364410000
C                 -4.8107030000     -1.4490800000     -0.4162500000
C                 -4.4660370000     -2.7639010000     -0.5573420000
O                 -2.8321610000     -4.4363580000     -0.9274600000
O                 -4.1378110000      0.8361620000     -0.4121300000
C                 -0.6893160000     -2.4783720000     -1.1735300000
C                 -0.0794400000     -3.4438610000     -2.0693460000
C                  0.3565610000     -1.8201540000     -0.5715510000
C                  1.3308840000     -3.2931680000     -1.9664460000
N                  1.5705740000     -2.2917670000     -1.0496280000
C                 -0.5832080000     -4.4007000000     -2.9655460000
C                  0.3036700000     -5.1604000000     -3.7165430000
C                  1.6976490000     -4.9952370000     -3.5939250000
C                  2.2285410000     -4.0598980000     -2.7149650000
H                 -1.7502640000     -0.0350250000     -0.9514650000
H                 -5.8363190000     -1.1528180000     -0.2122000000
H                 -5.2080000000     -3.5524070000     -0.4633230000
H                  0.3254500000     -1.0406730000      0.1735300000
H                  2.4747680000     -2.0161430000     -0.7085640000
H                 -1.6510950000     -4.5611320000     -3.0237720000
H                 -0.0819280000     -5.9075640000     -4.4025350000
H                  2.3657710000     -5.6093920000     -4.1892220000
H                  3.3018590000     -3.9281860000     -2.6157270000
$end
$rem
MAX_SCF_CYCLES=200
BASIS  =  6-311++G(d,p)
GUI  =  2
JOB_TYPE  =  SP
METHOD  =  B3LYP
SOLVENT_METHOD = PCM
$end
$pcm
theory = CPCM
$end
$solvent
dielectric 37.219
opticaldielectric 1.43
$end

--------------------------------------------------------------

             Standard Nuclear Orientation (Angstroms)
    I     Atom           X                Y                Z
 ----------------------------------------------------------------
    1      C      -3.1122970000    -3.2085940000    -0.8264440000
    2      C      -2.1109130000    -2.1476330000    -0.9525590000
    3      C      -2.4860540000    -0.8235650000    -0.8203650000
    4      C      -3.8331430000    -0.3862530000    -0.5364410000
    5      C      -4.8107030000    -1.4490800000    -0.4162500000
    6      C      -4.4660370000    -2.7639010000    -0.5573420000
    7      O      -2.8321610000    -4.4363580000    -0.9274600000
    8      O      -4.1378110000     0.8361620000    -0.4121300000
    9      C      -0.6893160000    -2.4783720000    -1.1735300000
   10      C      -0.0794400000    -3.4438610000    -2.0693460000
   11      C       0.3565610000    -1.8201540000    -0.5715510000
   12      C       1.3308840000    -3.2931680000    -1.9664460000
   13      N       1.5705740000    -2.2917670000    -1.0496280000
   14      C      -0.5832080000    -4.4007000000    -2.9655460000
   15      C       0.3036700000    -5.1604000000    -3.7165430000
   16      C       1.6976490000    -4.9952370000    -3.5939250000
   17      C       2.2285410000    -4.0598980000    -2.7149650000
   18      H      -1.7502640000    -0.0350250000    -0.9514650000
   19      H      -5.8363190000    -1.1528180000    -0.2122000000
   20      H      -5.2080000000    -3.5524070000    -0.4633230000
   21      H       0.3254500000    -1.0406730000     0.1735300000
   22      H       2.4747680000    -2.0161430000    -0.7085640000
   23      H      -1.6510950000    -4.5611320000    -3.0237720000
   24      H      -0.0819280000    -5.9075640000    -4.4025350000
   25      H       2.3657710000    -5.6093920000    -4.1892220000
   26      H       3.3018590000    -3.9281860000    -2.6157270000
 ----------------------------------------------------------------

    8    -744.4488265711      9.00e-06  Convergence criterion met
 Total energy in the final basis set =     -744.4488265711

                    Orbital Energies (a.u.)
 --------------------------------------------------------------

 Alpha MOs
 -- Occupied --
-19.0780 -19.0764 -14.3530 -10.2217 -10.2187 -10.2045 -10.2018 -10.1788
-10.1725 -10.1710 -10.1699 -10.1685 -10.1659 -10.1633 -10.1627 -10.1619
-10.1583  -1.0007  -0.9962  -0.9785  -0.8417  -0.8283  -0.7909  -0.7459
 -0.7351  -0.7131  -0.6816  -0.6251  -0.6165  -0.5925  -0.5776  -0.5474
 -0.5308  -0.4838  -0.4750  -0.4698  -0.4654  -0.4455  -0.4321  -0.4292
 -0.4224  -0.4084  -0.4063  -0.4036  -0.3951  -0.3774  -0.3723  -0.3595
 -0.3569  -0.3397  -0.3373  -0.2967  -0.2778  -0.2573  -0.2439  -0.2391
 -0.2288  -0.2060  -0.1618

 Beta MOs
 -- Occupied --
-19.0713 -19.0700 -14.3529 -10.2201 -10.2173 -10.2045 -10.2015 -10.1775
-10.1725 -10.1709 -10.1700 -10.1685 -10.1659 -10.1633 -10.1616 -10.1607
-10.1575  -0.9889  -0.9846  -0.9781  -0.8416  -0.8233  -0.7888  -0.7442
 -0.7350  -0.7120  -0.6714  -0.6243  -0.6140  -0.5919  -0.5744  -0.5462
 -0.5292  -0.4830  -0.4742  -0.4671  -0.4626  -0.4429  -0.4299  -0.4288
 -0.4217  -0.4070  -0.3983  -0.3972  -0.3852  -0.3717  -0.3582  -0.3557
 -0.3462  -0.3393  -0.3359  -0.2911  -0.2521  -0.2497  -0.2376  -0.2333
 -0.2281  -0.2022

          Ground-State Mulliken Net Atomic Charges

     Atom                 Charge (a.u.)    Spin (a.u.)
  --------------------------------------------------------
      1 C                    -1.085902       0.061407
      2 C                     1.153083       0.111380
      3 C                    -0.583553       0.013413
      4 C                    -0.359473       0.141300
      5 C                    -0.051074       0.081714
      6 C                     0.042344       0.103699
      7 O                    -0.483778       0.250435
      8 O                    -0.540725       0.229112
      9 C                     0.445663       0.021268
     10 C                     1.183327      -0.053933
     11 C                    -0.237139       0.024622
     12 C                     0.085589      -0.010523
     13 N                    -0.131997       0.004283
     14 C                    -0.955924       0.041702
     15 C                    -0.561050       0.004042
     16 C                    -0.293151       0.001156
     17 C                    -0.558108      -0.002602
     18 H                     0.192877      -0.006452
     19 H                     0.199526      -0.006765
     20 H                     0.201230      -0.007327
     21 H                     0.223124      -0.001795
     22 H                     0.359837      -0.000211
     23 H                     0.166691       0.000179
     24 H                     0.197338      -0.000142
     25 H                     0.193586       0.000013
     26 H                     0.197658       0.000026
  --------------------------------------------------------
  Sum of atomic charges =    -1.000000

                    Cartesian Multipole Moments
 -----------------------------------------------------------------
    Charge (ESU x 10^10)
                -4.8032
    Dipole Moment (Debye)
         X      18.7931      Y       9.7552      Z       4.9083
       Tot      21.7356
    Quadrupole Moments (Debye-Ang)
        XX    -148.8152     XY     -20.4198     YY    -162.9585
        XZ     -10.8278     YZ     -11.4620     ZZ    -110.4112

 Total job time:  46.41s(wall), 351.32s(cpu)
        *  Thank you very much for using Q-Chem.  Have a nice day.  *
