 Q-Chem 5.4, Q-Chem, Inc., Pleasanton, CA (2021)
 Q-Chem 5.4.0 for Intel X86 EM64T Linux

User input:
--------------------------------------------------------------
$molecule
0 1
C                 -1.8007020000      1.1262530000      0.6408300000
C                 -1.1602690000     -0.0979820000     -0.0607830000
C                 -1.7000620000     -1.3719490000      0.6151580000
C                 -1.5800560000     -0.1307920000     -1.5520380000
C                  0.3659180000     -0.0134330000      0.0445360000
C                  1.1204140000     -0.9486660000      0.6567950000
C                  2.5949090000     -0.8852390000      0.7690960000
O                  3.2219540000     -1.7665400000      1.3374960000
C                  3.2800160000      0.2815990000      0.1692720000
C                  2.5676230000      1.2303100000     -0.4465390000
C                  1.0855580000      1.1664750000     -0.5596530000
O                  0.5017250000      2.0697430000     -1.1369960000
H                 -2.8901760000      1.0414170000      0.5933590000
H                 -1.5147210000      1.1640220000      1.6961600000
H                 -1.5089800000      2.0614740000      0.1656730000
H                 -2.7881280000     -1.3937680000      0.5182820000
H                 -1.4647470000     -1.4023280000      1.6826620000
H                 -1.3104900000     -2.2812520000      0.1490560000
H                 -1.1352520000     -0.9898420000     -2.0630270000
H                 -2.6673550000     -0.2287220000     -1.6196410000
H                 -1.2847880000      0.7779800000     -2.0740000000
H                  0.6866760000     -1.8273440000      1.1166610000
H                  4.3600710000      0.3144760000      0.2594320000
H                  3.0208630000      2.1041070000     -0.9017880000
$end
$rem
MAX_SCF_CYCLES=200
BASIS  =  6-311++G(d,p)
GUI  =  2
JOB_TYPE  =  SP
METHOD  =  B3LYP
SOLVENT_METHOD = PCM
$end
$pcm
theory = CPCM
$end
$solvent
dielectric 37.219
opticaldielectric 1.43
$end

--------------------------------------------------------------

             Standard Nuclear Orientation (Angstroms)
    I     Atom           X                Y                Z
 ----------------------------------------------------------------
    1      C      -1.8007020000     1.1262530000     0.6408300000
    2      C      -1.1602690000    -0.0979820000    -0.0607830000
    3      C      -1.7000620000    -1.3719490000     0.6151580000
    4      C      -1.5800560000    -0.1307920000    -1.5520380000
    5      C       0.3659180000    -0.0134330000     0.0445360000
    6      C       1.1204140000    -0.9486660000     0.6567950000
    7      C       2.5949090000    -0.8852390000     0.7690960000
    8      O       3.2219540000    -1.7665400000     1.3374960000
    9      C       3.2800160000     0.2815990000     0.1692720000
   10      C       2.5676230000     1.2303100000    -0.4465390000
   11      C       1.0855580000     1.1664750000    -0.5596530000
   12      O       0.5017250000     2.0697430000    -1.1369960000
   13      H      -2.8901760000     1.0414170000     0.5933590000
   14      H      -1.5147210000     1.1640220000     1.6961600000
   15      H      -1.5089800000     2.0614740000     0.1656730000
   16      H      -2.7881280000    -1.3937680000     0.5182820000
   17      H      -1.4647470000    -1.4023280000     1.6826620000
   18      H      -1.3104900000    -2.2812520000     0.1490560000
   19      H      -1.1352520000    -0.9898420000    -2.0630270000
   20      H      -2.6673550000    -0.2287220000    -1.6196410000
   21      H      -1.2847880000     0.7779800000    -2.0740000000
   22      H       0.6866760000    -1.8273440000     1.1166610000
   23      H       4.3600710000     0.3144760000     0.2594320000
   24      H       3.0208630000     2.1041070000    -0.9017880000
 ----------------------------------------------------------------

    9    -538.8721933762      2.89e-06  Convergence criterion met
 Total energy in the final basis set =     -538.8721933762

                    Orbital Energies (a.u.)
 --------------------------------------------------------------

 Alpha MOs
 -- Occupied --
-19.1429 -19.1415 -10.2886 -10.2848 -10.2174 -10.2097 -10.2082 -10.2014
-10.2008 -10.1580 -10.1573 -10.1573  -1.0748  -1.0710  -0.8677  -0.8287
 -0.7733  -0.7073  -0.6884  -0.6874  -0.6416  -0.6082  -0.5536  -0.5231
 -0.5086  -0.4837  -0.4693  -0.4548  -0.4455  -0.4423  -0.4393  -0.4270
 -0.4242  -0.4005  -0.3864  -0.3806  -0.3667  -0.3572  -0.3410  -0.3365
 -0.3110  -0.2902  -0.2885  -0.2757

          Ground-State Mulliken Net Atomic Charges

     Atom                 Charge (a.u.)
  ----------------------------------------
      1 C                    -0.713243
      2 C                     0.619804
      3 C                    -0.492195
      4 C                    -0.713082
      5 C                     1.460179
      6 C                    -0.668320
      7 C                    -0.502803
      8 O                    -0.305639
      9 C                     0.180635
     10 C                     0.131030
     11 C                    -1.032452
     12 O                    -0.241082
     13 H                     0.173676
     14 H                     0.155380
     15 H                     0.174264
     16 H                     0.190442
     17 H                     0.147747
     18 H                     0.147881
     19 H                     0.155732
     20 H                     0.173819
     21 H                     0.174197
     22 H                     0.268342
     23 H                     0.257473
     24 H                     0.258215
  ----------------------------------------
  Sum of atomic charges =     0.000000

                    Cartesian Multipole Moments
 -----------------------------------------------------------------
    Charge (ESU x 10^10)
                 0.0000
    Dipole Moment (Debye)
         X      -1.2883      Y       0.3757      Z      -0.3424
       Tot       1.3850
    Quadrupole Moments (Debye-Ang)
        XX     -71.8519     XY      12.3353     YY     -81.8081
        XZ      -7.0149     YZ       6.6545     ZZ     -76.9038

 Total job time:  35.03s(wall), 187.61s(cpu)
        *  Thank you very much for using Q-Chem.  Have a nice day.  *
