 Gaussian 16, Revision A.03,
 Gaussian 16:  ES64L-G16RevA.03 25-Dec-2016

 --------------------------------------
 #P UB3LYP/6-311++G(d,p) nosym opt freq
 --------------------------------------

 --------
 Oxidized
 --------
 Symbolic Z-matrix:
 Charge =  0 Multiplicity = 1

 SCF Done:  E(UB3LYP) =  -538.860856843     A.U. after   15 cycles
 Optimization completed.
    -- Stationary point found.
 Normal termination of Gaussian 16 at Sat Jan  6 05:40:16 2024.

 ----------------------------------------------------------------------
 #P Geom=AllCheck Guess=TCheck SCRF=Check GenChk UB3LYP/6-311++G(d,p) F
 req
 ----------------------------------------------------------------------

 Structure from the checkpoint file:  "033.chk"
 --------
 Oxidized
 --------
 Charge =  0 Multiplicity = 1

                          Input orientation:
 ---------------------------------------------------------------------
 Center     Atomic      Atomic             Coordinates (Angstroms)
 Number     Number       Type             X           Y           Z
 ---------------------------------------------------------------------
      1          6           0       -1.800702    1.126253    0.640830
      2          6           0       -1.160269   -0.097982   -0.060783
      3          6           0       -1.700062   -1.371949    0.615158
      4          6           0       -1.580056   -0.130792   -1.552038
      5          6           0        0.365918   -0.013433    0.044536
      6          6           0        1.120414   -0.948666    0.656795
      7          6           0        2.594909   -0.885239    0.769096
      8          8           0        3.221954   -1.766540    1.337496
      9          6           0        3.280016    0.281599    0.169272
     10          6           0        2.567623    1.230310   -0.446539
     11          6           0        1.085558    1.166475   -0.559653
     12          8           0        0.501725    2.069743   -1.136996
     13          1           0       -2.890176    1.041417    0.593359
     14          1           0       -1.514721    1.164022    1.696160
     15          1           0       -1.508980    2.061474    0.165673
     16          1           0       -2.788128   -1.393768    0.518282
     17          1           0       -1.464747   -1.402328    1.682662
     18          1           0       -1.310490   -2.281252    0.149056
     19          1           0       -1.135252   -0.989842   -2.063027
     20          1           0       -2.667355   -0.228722   -1.619641
     21          1           0       -1.284788    0.777980   -2.074000
     22          1           0        0.686676   -1.827344    1.116661
     23          1           0        4.360071    0.314476    0.259432
     24          1           0        3.020863    2.104107   -0.901788
 ---------------------------------------------------------------------

 SCF Done:  E(UB3LYP) =  -538.860856843     A.U. after    1 cycles

 Alpha  occ. eigenvalues --  -19.14364 -19.13932 -10.29097 -10.28462 -10.22403
 Alpha  occ. eigenvalues --  -10.21815 -10.21683 -10.21134 -10.20852 -10.17287
 Alpha  occ. eigenvalues --  -10.16714 -10.16712  -1.07538  -1.06803  -0.87504
 Alpha  occ. eigenvalues --   -0.83807  -0.78212  -0.71316  -0.69979  -0.69715
 Alpha  occ. eigenvalues --   -0.64868  -0.61599  -0.56117  -0.52783  -0.51257
 Alpha  occ. eigenvalues --   -0.48677  -0.47956  -0.46104  -0.44999  -0.44812
 Alpha  occ. eigenvalues --   -0.44586  -0.43329  -0.42406  -0.40723  -0.39621
 Alpha  occ. eigenvalues --   -0.39405  -0.37735  -0.36569  -0.35161  -0.34631
 Alpha  occ. eigenvalues --   -0.31511  -0.29832  -0.28694  -0.27681
 Alpha virt. eigenvalues --   -0.13699  -0.03594  -0.01275  -0.00839  -0.00145
 Alpha virt. eigenvalues --    0.01105   0.01432   0.01706   0.02700   0.03466
 Alpha virt. eigenvalues --    0.03770   0.04360   0.04732   0.05176   0.06454

  Beta  occ. eigenvalues --  -19.14364 -19.13932 -10.29097 -10.28462 -10.22403
  Beta  occ. eigenvalues --  -10.21815 -10.21683 -10.21134 -10.20852 -10.17287
  Beta  occ. eigenvalues --  -10.16714 -10.16712  -1.07538  -1.06803  -0.87504
  Beta  occ. eigenvalues --   -0.83807  -0.78212  -0.71316  -0.69979  -0.69715
  Beta  occ. eigenvalues --   -0.64868  -0.61599  -0.56117  -0.52783  -0.51257
  Beta  occ. eigenvalues --   -0.48677  -0.47956  -0.46104  -0.44999  -0.44812
  Beta  occ. eigenvalues --   -0.44586  -0.43329  -0.42406  -0.40723  -0.39621
  Beta  occ. eigenvalues --   -0.39405  -0.37735  -0.36569  -0.35161  -0.34631
  Beta  occ. eigenvalues --   -0.31511  -0.29832  -0.28694  -0.27681
  Beta virt. eigenvalues --   -0.13699  -0.03594  -0.01275  -0.00839  -0.00145
  Beta virt. eigenvalues --    0.01105   0.01432   0.01706   0.02700   0.03466
  Beta virt. eigenvalues --    0.03770   0.04360   0.04732   0.05176   0.06454

 Mulliken charges and spin densities:
               1          2
     1  C   -0.660018   0.000000
     2  C    0.531893  -0.000000
     3  C   -0.430936   0.000000
     4  C   -0.659740  -0.000000
     5  C    1.413123   0.000000
     6  C   -0.581500  -0.000000
     7  C   -0.631221  -0.000000
     8  O   -0.217535   0.000000
     9  C    0.227760   0.000000
    10  C    0.141315  -0.000000
    11  C   -1.049707  -0.000000
    12  O   -0.179756   0.000000
    13  H    0.155259   0.000000
    14  H    0.140122  -0.000000
    15  H    0.189538  -0.000000
    16  H    0.175096   0.000000
    17  H    0.132844  -0.000000
    18  H    0.132874  -0.000000
    19  H    0.140134   0.000000
    20  H    0.155270   0.000000
    21  H    0.189515  -0.000000
    22  H    0.239645   0.000000
    23  H    0.221764   0.000000
    24  H    0.224262   0.000000
 Sum of Mulliken charges =  -0.00000  -0.00000

 Dipole moment (field-independent basis, Debye):
    X=             -1.0329    Y=              0.3602    Z=             -0.3094  Tot=              1.1368
 Quadrupole moment (field-independent basis, Debye-Ang):
   XX=            -71.8927   YY=            -80.2380   ZZ=            -76.2292
   XY=              9.7188   XZ=             -5.5004   YZ=              5.3629

  Exact polarizability: 145.582 -16.135 125.115  15.309 -24.334 101.016
 Approx polarizability: 206.910 -58.627 226.089  41.720 -62.981 166.892

                      1                      2                      3
                      A                      A                      A
 Frequencies --     56.1109                81.0874               135.7329
 Red. masses --      4.1374                 4.2601                 4.0994
 Frc consts  --      0.0077                 0.0165                 0.0445
 IR Inten    --      4.2347                 3.3194                 4.7797

                      4                      5                      6
                      A                      A                      A
 Frequencies --    202.7295               207.6285               248.0919
 Red. masses --      4.4192                 1.4615                 2.2604
 Frc consts  --      0.1070                 0.0371                 0.0820
 IR Inten    --      0.2072                 0.3911                 0.0268

                      7                      8                      9
                      A                      A                      A
 Frequencies --    252.9224               278.9419               299.2791
 Red. masses --      1.0886                 3.2417                 2.9622
 Frc consts  --      0.0410                 0.1486                 0.1563
 IR Inten    --      0.1133                 0.3148                 0.0131

                     10                     11                     12
                      A                      A                      A
 Frequencies --    325.9316               327.2887               381.8322
 Red. masses --      3.0475                 1.0576                 2.2387
 Frc consts  --      0.1907                 0.0667                 0.1923
 IR Inten    --      2.6473                 0.0304                 0.2130

                     13                     14                     15
                      A                      A                      A
 Frequencies --    407.5802               436.8817               464.2917
 Red. masses --      2.9941                 6.6337                 6.6987
 Frc consts  --      0.2930                 0.7460                 0.8508
 IR Inten    --      3.2993                18.4511                 3.2688

                     16                     17                     18
                      A                      A                      A
 Frequencies --    477.2748               499.0649               590.3643
 Red. masses --      2.8573                 3.7122                 3.7230
 Frc consts  --      0.3835                 0.5447                 0.7645
 IR Inten    --      1.1101                 0.2852                 2.0015

                     19                     20                     21
                      A                      A                      A
 Frequencies --    639.4083               654.3110               786.7413
 Red. masses --      2.6890                 5.7464                 5.0314
 Frc consts  --      0.6477                 1.4495                 1.8349
 IR Inten    --      0.2890                 1.4477                 1.4144

                     22                     23                     24
                      A                      A                      A
 Frequencies --    794.1116               798.6144               849.4691
 Red. masses --      3.0985                 3.7305                 2.3751
 Frc consts  --      1.1512                 1.4018                 1.0098
 IR Inten    --      2.0609                 0.2407                21.0382

                     25                     26                     27
                      A                      A                      A
 Frequencies --    886.0684               927.1518               938.0058
 Red. masses --      3.1625                 1.8718                 1.7622
 Frc consts  --      1.4629                 0.9480                 0.9135
 IR Inten    --      8.2399                 7.8511                 1.0227

                     28                     29                     30
                      A                      A                      A
 Frequencies --    941.5931               966.0016              1017.4090
 Red. masses --      1.5130                 1.1992                 1.2582
 Frc consts  --      0.7903                 0.6593                 0.7673
 IR Inten    --     29.7381                 0.0753                 0.0157

                     31                     32                     33
                      A                      A                      A
 Frequencies --   1020.3628              1048.7182              1056.8483
 Red. masses --      2.5083                 1.3846                 1.5757
 Frc consts  --      1.5387                 0.8972                 1.0369
 IR Inten    --     51.3667                 0.0475                 7.5540

                     34                     35                     36
                      A                      A                      A
 Frequencies --   1116.2403              1216.4373              1218.6503
 Red. masses --      1.4350                 2.6739                 1.8174
 Frc consts  --      1.0535                 2.3311                 1.5902
 IR Inten    --     33.1002                 2.5620                 7.4944

                     37                     38                     39
                      A                      A                      A
 Frequencies --   1228.6093              1270.1133              1299.2985
 Red. masses --      2.5652                 2.3339                 3.2370
 Frc consts  --      2.2813                 2.2183                 3.2197
 IR Inten    --      1.0409                33.1167                73.7549

                     40                     41                     42
                      A                      A                      A
 Frequencies --   1351.1209              1389.3942              1393.3301
 Red. masses --      2.0620                 1.9266                 1.1959
 Frc consts  --      2.2179                 2.1912                 1.3679
 IR Inten    --     21.7757                 2.4735                 9.2859

                     43                     44                     45
                      A                      A                      A
 Frequencies --   1399.0197              1428.5183              1480.9879
 Red. masses --      1.2374                 1.2204                 1.0459
 Frc consts  --      1.4270                 1.4674                 1.3515
 IR Inten    --     14.7839                 6.1333                 0.0200

                     46                     47                     48
                      A                      A                      A
 Frequencies --   1495.5213              1498.3860              1503.7975
 Red. masses --      1.0479                 1.0448                 1.0531
 Frc consts  --      1.3809                 1.3821                 1.4031
 IR Inten    --      0.8396                 0.2500                14.8889

                     49                     50                     51
                      A                      A                      A
 Frequencies --   1512.5233              1528.9841              1635.8617
 Red. masses --      1.0488                 1.0599                 8.0434
 Frc consts  --      1.4137                 1.4598                12.6818
 IR Inten    --      8.1249                17.0379                48.1479

                     52                     53                     54
                      A                      A                      A
 Frequencies --   1677.4678              1715.4292              1720.5846
 Red. masses --      9.0851                10.8270                 9.0467
 Frc consts  --     15.0622                18.7717                15.7795
 IR Inten    --      1.2715               261.7298               204.6990

                     55                     56                     57
                      A                      A                      A
 Frequencies --   3023.3695              3025.9652              3031.4867
 Red. masses --      1.0357                 1.0380                 1.0386
 Frc consts  --      5.5777                 5.5996                 5.6235
 IR Inten    --     13.4494                36.9275                24.8199

                     58                     59                     60
                      A                      A                      A
 Frequencies --   3082.4868              3084.0711              3090.3179
 Red. masses --      1.1023                 1.1017                 1.1022
 Frc consts  --      6.1708                 6.1738                 6.2021
 IR Inten    --      6.4290                19.3480                33.8831

                     61                     62                     63
                      A                      A                      A
 Frequencies --   3095.8351              3134.2707              3136.9033
 Red. masses --      1.1006                 1.0985                 1.0978
 Frc consts  --      6.2147                 6.3582                 6.3650
 IR Inten    --     51.1570                 0.0279                13.9590

                     64                     65                     66
                      A                      A                      A
 Frequencies --   3175.1985              3193.5898              3201.8856
 Red. masses --      1.0872                 1.0995                 1.0906
 Frc consts  --      6.4581                 6.6071                 6.5873
 IR Inten    --      1.0884                 3.9937                 0.6460

 - Thermochemistry -
 -------------------
 Temperature   298.150 Kelvin.  Pressure   1.00000 Atm.
 Atom     1 has atomic number  6 and mass  12.00000

 Molecular mass:   164.08373 amu.
 Principal axes and moments of inertia in atomic units:
                           1         2         3
     Eigenvalues --  1221.486142427.085553245.52842
           X            0.97052   0.22473  -0.08710
           Y           -0.15347   0.85489   0.49560
           Z            0.18583  -0.46762   0.86417
 This molecule is an asymmetric top.
 Rotational symmetry number  1.
 Warning -- assumption of classical behavior for rotation
           may cause significant error
 Rotational temperatures (Kelvin)      0.07091     0.03569     0.02669
 Rotational constants (GHZ):           1.47750     0.74358     0.55607
 Zero-point vibrational energy     516508.7 (Joules/Mol)
                                  123.44853 (Kcal/Mol)
 Warning -- explicit consideration of  18 degrees of freedom as
           vibrations may cause significant error
 Vibrational temperatures:     80.73   116.67   195.29   291.68   298.73
          (Kelvin)            356.95   363.90   401.34   430.60   468.94
                              470.90   549.37   586.42   628.58   668.01
                              686.69   718.04   849.40   919.97   941.41
                             1131.95  1142.55  1149.03  1222.20  1274.85
                             1333.96  1349.58  1354.74  1389.86  1463.82
                             1468.07  1508.87  1520.57  1606.02  1750.18
                             1753.37  1767.69  1827.41  1869.40  1943.96
                             1999.03  2004.69  2012.88  2055.32  2130.81
                             2151.72  2155.84  2163.63  2176.18  2199.87
                             2353.64  2413.50  2468.12  2475.54  4349.95
                             4353.69  4361.63  4435.01  4437.29  4446.28
                             4454.22  4509.52  4513.30  4568.40  4594.86
                             4606.80

 Zero-point correction=                           0.196728 (Hartree/Particle)
 Thermal correction to Energy=                    0.208449
 Thermal correction to Enthalpy=                  0.209393
 Thermal correction to Gibbs Free Energy=         0.159687
 Sum of electronic and zero-point Energies=           -538.664129
 Sum of electronic and thermal Energies=              -538.652408
 Sum of electronic and thermal Enthalpies=            -538.651463
 Sum of electronic and thermal Free Energies=         -538.701170

                     E (Thermal)             CV                S
                      KCal/Mol        Cal/Mol-Kelvin    Cal/Mol-Kelvin
 Total                  130.804             45.305            104.617
 Electronic               0.000              0.000              0.000
 Translational            0.889              2.981             41.194
 Rotational               0.889              2.981             30.643
 Vibrational            129.026             39.343             32.779
 Vibration     1          0.596              1.975              4.589
 Vibration     2          0.600              1.962              3.864
 Vibration     3          0.614              1.918              2.863
 Vibration     4          0.639              1.836              2.108
 Vibration     5          0.641              1.829              2.064
 Vibration     6          0.662              1.766              1.744
 Vibration     7          0.664              1.758              1.710
 Vibration     8          0.679              1.712              1.540
 Vibration     9          0.692              1.675              1.421
 Vibration    10          0.710              1.624              1.280
 Vibration    11          0.711              1.621              1.273
 Vibration    12          0.751              1.509              1.032
 Vibration    13          0.772              1.454              0.935
 Vibration    14          0.797              1.390              0.836
 Vibration    15          0.822              1.329              0.754
 Vibration    16          0.834              1.300              0.717
 Vibration    17          0.855              1.252              0.660
 Vibration    18          0.948              1.052              0.467

                           ! Non-Optimized Parameters !
 Normal termination of Gaussian 16 at Sat Jan  6 06:03:50 2024.
