 Gaussian 16, Revision A.03,
 Gaussian 16:  ES64L-G16RevA.03 25-Dec-2016

 ----------------------------------------------------------------
 #P UB3LYP/6-311++G(d,p) SCRF=(PCM,Solvent=n,n-DiMethylFormamide)
 ----------------------------------------------------------------

 ------------------
 Quinone PCM in DMF
 ------------------
 Symbolic Z-matrix:
 Charge =  0 Multiplicity = 1

                         Standard orientation:
 ---------------------------------------------------------------------
 Center     Atomic      Atomic             Coordinates (Angstroms)
 Number     Number       Type             X           Y           Z
 ---------------------------------------------------------------------
      1          6           0       -2.528305    1.397404    0.000210
      2          6           0       -3.730969    0.698238    0.000230
      3          6           0       -3.730984   -0.698227    0.000113
      4          6           0       -1.317461    0.701159    0.000123
      5          6           0       -1.317483   -0.701143    0.000040
      6          6           0       -2.528322   -1.397393    0.000022
      7          6           0       -0.042444    1.470184   -0.000007
      8          6           0        1.233151    0.675680    0.000096
      9          6           0        1.233136   -0.675670    0.000111
     10          6           0       -0.042467   -1.470167   -0.000067
     11          8           0       -0.018946    2.682818   -0.000678
     12          8           0       -0.018971   -2.682801   -0.000673
     13          1           0       -2.505887    2.480011    0.000245
     14          1           0       -4.669505    1.240357    0.000329
     15          1           0       -2.505843   -2.479996   -0.000074
     16         17           0        2.684931    1.606712    0.000075
     17          1           0       -4.669525   -1.240338    0.000127
     18         17           0        2.684891   -1.606744    0.000216
 ---------------------------------------------------------------------

 SCF Done:  E(UB3LYP) =  -1454.50344343     A.U. after   15 cycles

 The electronic state is 1-A.
 Alpha  occ. eigenvalues -- -101.58588-101.58588 -19.15141 -19.15140 -10.30602
 Alpha  occ. eigenvalues --  -10.30601 -10.28496 -10.28423 -10.22069 -10.22017
 Alpha  occ. eigenvalues --  -10.20691 -10.20691 -10.20560 -10.20508  -9.50041
 Alpha  occ. eigenvalues --   -9.50040  -7.26524  -7.26524  -7.25555  -7.25555
 Alpha  occ. eigenvalues --   -7.25428  -7.25428  -1.08994  -1.08792  -0.93898
 Alpha  occ. eigenvalues --   -0.89884  -0.88538  -0.82573  -0.78897  -0.76979
 Alpha  occ. eigenvalues --   -0.70729  -0.65895  -0.64392  -0.60513  -0.57220
 Alpha  occ. eigenvalues --   -0.54023  -0.51715  -0.49912  -0.47911  -0.47873
 Alpha  occ. eigenvalues --   -0.47102  -0.46086  -0.45962  -0.45445  -0.44012
 Alpha  occ. eigenvalues --   -0.41110  -0.39513  -0.38229  -0.38033  -0.36426
 Alpha  occ. eigenvalues --   -0.35562  -0.33370  -0.30804  -0.30108  -0.29754
 Alpha  occ. eigenvalues --   -0.28728  -0.28139
 Alpha virt. eigenvalues --   -0.14087  -0.06635  -0.04684  -0.02580  -0.00452
 Alpha virt. eigenvalues --    0.01150   0.01248   0.01323   0.02028   0.03156
 Alpha virt. eigenvalues --    0.04178   0.04346   0.04400   0.04796   0.06413

  Beta  occ. eigenvalues -- -101.58588-101.58588 -19.15141 -19.15140 -10.30602
  Beta  occ. eigenvalues --  -10.30601 -10.28496 -10.28423 -10.22069 -10.22017
  Beta  occ. eigenvalues --  -10.20691 -10.20691 -10.20560 -10.20508  -9.50041
  Beta  occ. eigenvalues --   -9.50040  -7.26524  -7.26524  -7.25555  -7.25555
  Beta  occ. eigenvalues --   -7.25428  -7.25428  -1.08994  -1.08792  -0.93898
  Beta  occ. eigenvalues --   -0.89884  -0.88538  -0.82573  -0.78897  -0.76979
  Beta  occ. eigenvalues --   -0.70729  -0.65895  -0.64392  -0.60513  -0.57220
  Beta  occ. eigenvalues --   -0.54023  -0.51715  -0.49912  -0.47911  -0.47873
  Beta  occ. eigenvalues --   -0.47102  -0.46086  -0.45962  -0.45445  -0.44012
  Beta  occ. eigenvalues --   -0.41110  -0.39513  -0.38229  -0.38033  -0.36426
  Beta  occ. eigenvalues --   -0.35562  -0.33370  -0.30804  -0.30108  -0.29754
  Beta  occ. eigenvalues --   -0.28728  -0.28139
  Beta virt. eigenvalues --   -0.14087  -0.06635  -0.04684  -0.02580  -0.00452
  Beta virt. eigenvalues --    0.01150   0.01248   0.01323   0.02028   0.03156
  Beta virt. eigenvalues --    0.04178   0.04346   0.04400   0.04796   0.06413

 Mulliken charges and spin densities:
               1          2
     1  C    0.072977   0.000000
     2  C   -0.400578  -0.000000
     3  C   -0.400612   0.000000
     4  C    0.552852  -0.000000
     5  C    0.552835  -0.000000
     6  C    0.073010  -0.000000
     7  C   -1.657405   0.000000
     8  C    0.760645  -0.000000
     9  C    0.760666  -0.000000
    10  C   -1.657453   0.000000
    11  O   -0.213427  -0.000000
    12  O   -0.213423  -0.000000
    13  H    0.198066   0.000000
    14  H    0.215477  -0.000000
    15  H    0.198063   0.000000
    16  Cl   0.471413  -0.000000
    17  H    0.215479  -0.000000
    18  Cl   0.471414   0.000000
 Sum of Mulliken charges =  -0.00000   0.00000

 Dipole moment (field-independent basis, Debye):
    X=             -4.6054    Y=             -0.0000    Z=              0.0026  Tot=              4.6054
 Quadrupole moment (field-independent basis, Debye-Ang):
   XX=            -74.0976   YY=           -108.2235   ZZ=            -93.3040
   XY=             -0.0001   XZ=             -0.0010   YZ=              0.0007

 Normal termination of Gaussian 16 at Sun Jan 21 07:52:15 2024.
