 Gaussian 16, Revision A.03,
 Gaussian 16:  ES64L-G16RevA.03 25-Dec-2016

 ----------------------------------------------------------------
 #P UB3LYP/6-311++G(d,p) SCRF=(PCM,Solvent=n,n-DiMethylFormamide)
 ----------------------------------------------------------------

 -------
 Reduced
 -------
 Symbolic Z-matrix:
 Charge = -2 Multiplicity = 1

                         Standard orientation:
 ---------------------------------------------------------------------
 Center     Atomic      Atomic             Coordinates (Angstroms)
 Number     Number       Type             X           Y           Z
 ---------------------------------------------------------------------
      1          6           0        0.627608    1.490079   -0.018797
      2          6           0        2.072430    1.337720   -0.012344
      3          6           0        2.722976    0.126872    0.002862
      4          6           0        2.038423   -1.150022    0.013575
      5          6           0        0.630527   -1.027860    0.005228
      6          6           0       -0.087913    0.213791   -0.002089
      7          8           0        0.108112    2.650688   -0.044261
      8          8           0        2.693204   -2.271313    0.029838
      9          1           0        2.635888    2.270881   -0.024718
     10          1           0        3.814265    0.091465    0.008173
     11          1           0        0.061277   -1.949673    0.018897
     12          6           0       -1.536779    0.207029    0.015584
     13          8           0       -2.335721    1.129511    0.113768
     14          8           0       -2.074327   -1.106359   -0.109891
     15          6           0       -3.479410   -1.189083   -0.002877
     16          1           0       -3.740953   -2.240111   -0.161883
     17          1           0       -3.986989   -0.569087   -0.749876
     18          1           0       -3.840817   -0.874843    0.986931
 ---------------------------------------------------------------------

 SCF Done:  E(UB3LYP) =  -609.784170402     A.U. after   19 cycles

 The electronic state is 1-A.
 Alpha  occ. eigenvalues --  -19.13108 -19.08135 -19.02848 -19.01359 -10.26762
 Alpha  occ. eigenvalues --  -10.20315 -10.18949 -10.17029 -10.13908 -10.13764
 Alpha  occ. eigenvalues --  -10.13158 -10.11977  -1.06536  -0.98395  -0.94901
 Alpha  occ. eigenvalues --   -0.92489  -0.78573  -0.73312  -0.68188  -0.65177
 Alpha  occ. eigenvalues --   -0.59355  -0.55181  -0.51831  -0.47170  -0.45512
 Alpha  occ. eigenvalues --   -0.44969  -0.42983  -0.42129  -0.41316  -0.38321
 Alpha  occ. eigenvalues --   -0.37671  -0.36208  -0.34967  -0.34158  -0.33566
 Alpha  occ. eigenvalues --   -0.31726  -0.31626  -0.28105  -0.26095  -0.23101
 Alpha  occ. eigenvalues --   -0.22403  -0.19753  -0.19339  -0.12554
 Alpha virt. eigenvalues --   -0.01884   0.00233   0.01128   0.02108   0.03209
 Alpha virt. eigenvalues --    0.03727   0.03949   0.05119   0.05601   0.06369
 Alpha virt. eigenvalues --    0.06603   0.06883   0.08361   0.08568   0.09216

  Beta  occ. eigenvalues --  -19.13108 -19.08135 -19.02848 -19.01359 -10.26762
  Beta  occ. eigenvalues --  -10.20315 -10.18949 -10.17029 -10.13908 -10.13764
  Beta  occ. eigenvalues --  -10.13158 -10.11977  -1.06536  -0.98395  -0.94901
  Beta  occ. eigenvalues --   -0.92489  -0.78573  -0.73312  -0.68188  -0.65177
  Beta  occ. eigenvalues --   -0.59355  -0.55181  -0.51831  -0.47170  -0.45512
  Beta  occ. eigenvalues --   -0.44969  -0.42983  -0.42129  -0.41316  -0.38321
  Beta  occ. eigenvalues --   -0.37671  -0.36208  -0.34967  -0.34158  -0.33566
  Beta  occ. eigenvalues --   -0.31726  -0.31626  -0.28105  -0.26095  -0.23101
  Beta  occ. eigenvalues --   -0.22403  -0.19753  -0.19339  -0.12554
  Beta virt. eigenvalues --   -0.01884   0.00233   0.01128   0.02108   0.03209
  Beta virt. eigenvalues --    0.03727   0.03949   0.05119   0.05601   0.06369
  Beta virt. eigenvalues --    0.06603   0.06883   0.08361   0.08568   0.09216

 Mulliken charges and spin densities:
               1          2
     1  C   -0.857138  -0.000000
     2  C   -0.025844   0.000000
     3  C    0.026408  -0.000000
     4  C   -0.531708   0.000000
     5  C   -0.238500  -0.000000
     6  C    0.905935   0.000000
     7  O   -0.632646   0.000000
     8  O   -0.741840   0.000000
     9  H    0.145879   0.000000
    10  H    0.150313  -0.000000
    11  H    0.159800   0.000000
    12  C    0.014725  -0.000000
    13  O   -0.405923  -0.000000
    14  O   -0.200084   0.000000
    15  C   -0.232211   0.000000
    16  H    0.139211  -0.000000
    17  H    0.160376   0.000000
    18  H    0.163247  -0.000000
 Sum of Mulliken charges =  -2.00000  -0.00000

 Dipole moment (field-independent basis, Debye):
    X=             -8.3907    Y=             -1.6087    Z=             -0.0175  Tot=              8.5435
 Quadrupole moment (field-independent basis, Debye-Ang):
   XX=           -110.1368   YY=           -126.9542   ZZ=            -77.2552
   XY=             31.2410   XZ=             -0.0048   YZ=             -0.0730

 Normal termination of Gaussian 16 at Wed Jan 24 22:49:50 2024.
