 Gaussian 16, Revision A.03,
 Gaussian 16:  ES64L-G16RevA.03 25-Dec-2016

 --------------------------------------
 #P UB3LYP/6-311++G(d,p) nosym opt freq
 --------------------------------------

 -------
 Reduced
 -------
 Symbolic Z-matrix:
 Charge = -2 Multiplicity = 1

 SCF Done:  E(UB3LYP) =  -609.494251222     A.U. after   37 cycles
 Optimization completed.
    -- Stationary point found.
 Normal termination of Gaussian 16 at Wed Jan 10 16:52:07 2024.

 ----------------------------------------------------------------------
 #P Geom=AllCheck Guess=TCheck SCRF=Check GenChk UB3LYP/6-311++G(d,p) F
 req
 ----------------------------------------------------------------------

 Structure from the checkpoint file:  "096-an.chk"
 -------
 Reduced
 -------
 Charge = -2 Multiplicity = 1

                          Input orientation:
 ---------------------------------------------------------------------
 Center     Atomic      Atomic             Coordinates (Angstroms)
 Number     Number       Type             X           Y           Z
 ---------------------------------------------------------------------
      1          6           0        2.081621    3.866945    5.666083
      2          6           0        2.860781    3.296541    4.580581
      3          6           0        2.376987    2.377013    3.680578
      4          6           0        1.021856    1.865140    3.708724
      5          6           0        0.242716    2.407463    4.755620
      6          6           0        0.709604    3.361175    5.720170
      7          8           0        2.606242    4.722038    6.447830
      8          8           0        0.606688    0.994651    2.839138
      9          1           0        3.888690    3.653110    4.512112
     10          1           0        3.024082    1.991432    2.890142
     11          1           0       -0.780058    2.058333    4.833162
     12          6           0       -0.181859    3.823783    6.764612
     13          8           0        0.031663    4.542390    7.732566
     14          8           0       -1.512514    3.344550    6.593196
     15          6           0       -2.407053    3.682164    7.631642
     16          1           0       -3.385001    3.286797    7.338982
     17          1           0       -2.479517    4.765460    7.777442
     18          1           0       -2.113907    3.238867    8.594262
 ---------------------------------------------------------------------

 SCF Done:  E(UB3LYP) =  -609.494251222     A.U. after    2 cycles

 Alpha  occ. eigenvalues --  -18.89518 -18.83078 -18.77147 -18.75507 -10.01785
 Alpha  occ. eigenvalues --   -9.99250  -9.93601  -9.91621  -9.88970  -9.88724
 Alpha  occ. eigenvalues --   -9.88402  -9.86737  -0.82527  -0.73865  -0.68971
 Alpha  occ. eigenvalues --   -0.66406  -0.53412  -0.49304  -0.44967  -0.39894
 Alpha  occ. eigenvalues --   -0.34855  -0.30911  -0.27680  -0.23155  -0.22586
 Alpha  occ. eigenvalues --   -0.21037  -0.17960  -0.17086  -0.16875  -0.14093
 Alpha  occ. eigenvalues --   -0.13387  -0.10555  -0.09841  -0.09538  -0.08166
 Alpha  occ. eigenvalues --   -0.06430  -0.05651  -0.04292  -0.00952   0.02552
 Alpha  occ. eigenvalues --    0.03183   0.06302   0.06859   0.13602
 Alpha virt. eigenvalues --    0.15134   0.18910   0.19129   0.19970   0.21017
 Alpha virt. eigenvalues --    0.22313   0.23287   0.25268   0.27025   0.27743
 Alpha virt. eigenvalues --    0.27974   0.28280   0.28595   0.29561   0.30199

  Beta  occ. eigenvalues --  -18.89518 -18.83078 -18.77147 -18.75507 -10.01785
  Beta  occ. eigenvalues --   -9.99250  -9.93601  -9.91621  -9.88970  -9.88724
  Beta  occ. eigenvalues --   -9.88402  -9.86737  -0.82527  -0.73865  -0.68971
  Beta  occ. eigenvalues --   -0.66406  -0.53412  -0.49304  -0.44967  -0.39894
  Beta  occ. eigenvalues --   -0.34855  -0.30911  -0.27680  -0.23155  -0.22586
  Beta  occ. eigenvalues --   -0.21037  -0.17960  -0.17086  -0.16875  -0.14093
  Beta  occ. eigenvalues --   -0.13387  -0.10555  -0.09841  -0.09538  -0.08166
  Beta  occ. eigenvalues --   -0.06430  -0.05651  -0.04292  -0.00952   0.02552
  Beta  occ. eigenvalues --    0.03183   0.06302   0.06859   0.13602
  Beta virt. eigenvalues --    0.15134   0.18910   0.19129   0.19970   0.21017
  Beta virt. eigenvalues --    0.22313   0.23287   0.25268   0.27025   0.27743
  Beta virt. eigenvalues --    0.27974   0.28280   0.28595   0.29561   0.30199

 Mulliken charges and spin densities:
               1          2
     1  C   -1.179761   0.000000
     2  C    0.196016  -0.000000
     3  C    0.263795   0.000000
     4  C   -1.015504  -0.000000
     5  C   -0.004604  -0.000000
     6  C    1.256446  -0.000000
     7  O   -0.481626   0.000000
     8  O   -0.578146   0.000000
     9  H    0.071669   0.000000
    10  H    0.066353  -0.000000
    11  H    0.148863  -0.000000
    12  C   -0.199432   0.000000
    13  O   -0.346066   0.000000
    14  O   -0.173021  -0.000000
    15  C    0.364599   0.000000
    16  H   -0.311368  -0.000000
    17  H   -0.055340  -0.000000
    18  H   -0.022875  -0.000000
 Sum of Mulliken charges =  -2.00000  -0.00000

 Dipole moment (field-independent basis, Debye):
    X=             -6.9941    Y=            -29.5817    Z=            -51.2860  Tot=             59.6176
 Quadrupole moment (field-independent basis, Debye-Ang):
   XX=           -121.3142   YY=           -199.9721   ZZ=           -398.0210
   XY=            -28.8513   XZ=            -30.3702   YZ=           -190.2345

  Exact polarizability:1206.777 -94.838 238.701-564.786 137.325 597.518
 Approx polarizability:2574.807-323.790 317.103******** 318.1021210.543

                      1                      2                      3
                      A                      A                      A
 Frequencies --     38.6129                75.9982               103.2650
 Red. masses --      7.4789                 3.4537                 3.8531
 Frc consts  --      0.0066                 0.0118                 0.0242
 IR Inten    --      1.3857                 2.7642                 3.5884

                      4                      5                      6
                      A                      A                      A
 Frequencies --    145.3020               152.0480               173.9170
 Red. masses --      1.4512                 3.7073                 4.7248
 Frc consts  --      0.0181                 0.0505                 0.0842
 IR Inten    --      4.5441                 0.7860                 4.6377

                      7                      8                      9
                      A                      A                      A
 Frequencies --    300.1353               318.5546               324.1676
 Red. masses --     10.1095                 5.7683                 5.0400
 Frc consts  --      0.5366                 0.3449                 0.3120
 IR Inten    --      5.4009                 3.6644                17.0412

                     10                     11                     12
                      A                      A                      A
 Frequencies --    394.7061               418.9987               429.4272
 Red. masses --      7.5672                 7.7316                 4.8700
 Frc consts  --      0.6946                 0.7997                 0.5291
 IR Inten    --    359.4958               102.8355                31.2291

                     13                     14                     15
                      A                      A                      A
 Frequencies --    467.6913               546.4250               556.7384
 Red. masses --     10.9103                 2.1658                 4.6928
 Frc consts  --      1.4061                 0.3810                 0.8570
 IR Inten    --    696.1985                15.2349                11.0563

                     16                     17                     18
                      A                      A                      A
 Frequencies --    673.1832               703.7312               724.2919
 Red. masses --      6.7335                 3.9957                 6.1689
 Frc consts  --      1.7979                 1.1659                 1.9067
 IR Inten    --     26.4572                19.6786               364.0164

                     19                     20                     21
                      A                      A                      A
 Frequencies --    759.2960               809.2041               816.1123
 Red. masses --      2.8418                 6.1264                 2.1017
 Frc consts  --      0.9653                 2.3636                 0.8248
 IR Inten    --     13.7921               108.2880                10.8872

                     22                     23                     24
                      A                      A                      A
 Frequencies --    829.0627               866.0577               910.2255
 Red. masses --      2.3841                 7.8522                 1.2526
 Frc consts  --      0.9655                 3.4701                 0.6114
 IR Inten    --     46.6565               519.9354                 1.2563

                     25                     26                     27
                      A                      A                      A
 Frequencies --    949.5341              1066.2829              1082.2264
 Red. masses --      3.3837                 6.1358                 2.5383
 Frc consts  --      1.7975                 4.1102                 1.7516
 IR Inten    --     44.4287              1683.0769               392.4979

                     28                     29                     30
                      A                      A                      A
 Frequencies --   1137.3985              1164.2528              1178.0819
 Red. masses --      1.5028                 1.2883                 1.6877
 Frc consts  --      1.1455                 1.0289                 1.3801
 IR Inten    --    124.4913                12.4565               339.0392

                     31                     32                     33
                      A                      A                      A
 Frequencies --   1212.3823              1250.3268              1315.9197
 Red. masses --      1.9872                 2.9744                 2.9899
 Frc consts  --      1.7210                 2.7397                 3.0505
 IR Inten    --    575.3622                32.3278                66.4823

                     34                     35                     36
                      A                      A                      A
 Frequencies --   1355.3425              1423.3757              1438.3053
 Red. masses --      5.8916                 4.0271                 1.4059
 Frc consts  --      6.3765                 4.8071                 1.7136
 IR Inten    --    492.9539               789.3896              1020.5940

                     37                     38                     39
                      A                      A                      A
 Frequencies --   1454.2596              1460.0697              1486.8202
 Red. masses --      2.6593                 1.0887                 5.3913
 Frc consts  --      3.3136                 1.3674                 7.0220
 IR Inten    --    187.5553               109.5313               635.9458

                     40                     41                     42
                      A                      A                      A
 Frequencies --   1500.7368              1593.7842              1674.9864
 Red. masses --      1.0750                 5.9327                10.4712
 Frc consts  --      1.4265                 8.8789                17.3089
 IR Inten    --    118.1203              3262.9658              1537.0326

                     43                     44                     45
                      A                      A                      A
 Frequencies --   2965.4901              3023.0608              3057.7129
 Red. masses --      1.0403                 1.0903                 1.1033
 Frc consts  --      5.3901                 5.8707                 6.0778
 IR Inten    --     51.8172               213.1882                45.2369

                     46                     47                     48
                      A                      A                      A
 Frequencies --   3066.5845              3101.5194              3174.8656
 Red. masses --      1.0836                 1.0924                 1.0868
 Frc consts  --      6.0036                 6.1914                 6.4546
 IR Inten    --    153.1698               631.1962                62.5004

 - Thermochemistry -
 -------------------
 Temperature   298.150 Kelvin.  Pressure   1.00000 Atm.
 Atom     1 has atomic number  6 and mass  12.00000

 Molecular mass:   166.02661 amu.
 Principal axes and moments of inertia in atomic units:
                           1         2         3
     Eigenvalues --  1234.996162555.143483775.61860
           X           -0.57452   0.76640  -0.28732
           Y            0.36205   0.55279   0.75056
           Z            0.73406   0.32719  -0.59507
 This molecule is an asymmetric top.
 Rotational symmetry number  1.
 Warning -- assumption of classical behavior for rotation
           may cause significant error
 Rotational temperatures (Kelvin)      0.07013     0.03390     0.02294
 Rotational constants (GHZ):           1.46133     0.70632     0.47800
 Zero-point vibrational energy     321020.7 (Joules/Mol)
                                   76.72579 (Kcal/Mol)
 Warning -- explicit consideration of  15 degrees of freedom as
           vibrations may cause significant error
 Vibrational temperatures:     55.56   109.34   148.58   209.06   218.76
          (Kelvin)            250.23   431.83   458.33   466.40   567.89
                              602.85   617.85   672.90   786.18   801.02
                              968.56  1012.51  1042.09  1092.46  1164.26
                             1174.20  1192.84  1246.06  1309.61  1366.17
                             1534.14  1557.08  1636.46  1675.10  1695.00
                             1744.35  1798.94  1893.31  1950.04  2047.92
                             2069.40  2092.36  2100.71  2139.20  2159.23
                             2293.10  2409.93  4266.68  4349.51  4399.37
                             4412.13  4462.39  4567.92

 Zero-point correction=                           0.122270 (Hartree/Particle)
 Thermal correction to Energy=                    0.133100
 Thermal correction to Enthalpy=                  0.134044
 Thermal correction to Gibbs Free Energy=         0.084721
 Sum of electronic and zero-point Energies=           -609.371981
 Sum of electronic and thermal Energies=              -609.361151
 Sum of electronic and thermal Enthalpies=            -609.360207
 Sum of electronic and thermal Free Energies=         -609.409531

                     E (Thermal)             CV                S
                      KCal/Mol        Cal/Mol-Kelvin    Cal/Mol-Kelvin
 Total                   83.521             39.480            103.810
 Electronic               0.000              0.000              0.000
 Translational            0.889              2.981             41.229
 Rotational               0.889              2.981             30.855
 Vibrational             81.744             33.518             31.725
 Vibration     1          0.594              1.981              5.329
 Vibration     2          0.599              1.965              3.992
 Vibration     3          0.605              1.947              3.392
 Vibration     4          0.617              1.908              2.733
 Vibration     5          0.619              1.900              2.646
 Vibration     6          0.627              1.875              2.393
 Vibration     7          0.693              1.673              1.416
 Vibration     8          0.705              1.638              1.318
 Vibration     9          0.709              1.627              1.289
 Vibration    10          0.762              1.481              0.982
 Vibration    11          0.782              1.429              0.895
 Vibration    12          0.791              1.406              0.861
 Vibration    13          0.825              1.322              0.744
 Vibration    14          0.902              1.148              0.552
 Vibration    15          0.912              1.125              0.530

 Optimization completed.
    -- Stationary point found.
 Normal termination of Gaussian 16 at Wed Jan 10 17:05:38 2024.
