 Q-Chem 5.4, Q-Chem, Inc., Pleasanton, CA (2021)
 Q-Chem 5.4.0 for Intel X86 EM64T Linux

User input:
--------------------------------------------------------------
$molecule
0 1
C                 -1.7480460000     -3.7197970000      1.2984710000
C                 -0.3208420000     -3.9766060000      1.0488980000
C                  0.4573230000     -2.9906530000      0.5900680000
C                 -0.0783770000     -1.6202200000      0.3183040000
C                 -1.5079370000     -1.3418070000      0.5621360000
C                 -2.2826210000     -2.3500090000      1.0269190000
O                 -2.5201460000     -4.5719270000      1.7176000000
O                  0.6813050000     -0.7585130000     -0.1009210000
O                 -3.5933950000     -2.2105100000      1.2841470000
C                 -2.0207290000      0.0385370000      0.2827110000
H                  0.0391260000     -4.9779920000      1.2544530000
H                  1.5144140000     -3.1224850000      0.3884950000
H                 -1.4862750000      0.7756720000      0.8885110000
H                 -3.0864860000      0.1092210000      0.4942640000
H                 -1.8440470000      0.3084610000     -0.7621020000
H                 -3.9062990000     -3.0771430000      1.6031750000
$end
$rem
MAX_SCF_CYCLES=200
BASIS  =  6-311++G(d,p)
GUI  =  2
JOB_TYPE  =  SP
METHOD  =  B3LYP
SOLVENT_METHOD = PCM
$end
$pcm
theory = CPCM
$end
$solvent
dielectric 37.219
opticaldielectric 1.43
$end

--------------------------------------------------------------

             Standard Nuclear Orientation (Angstroms)
    I     Atom           X                Y                Z
 ----------------------------------------------------------------
    1      C      -1.7480460000    -3.7197970000     1.2984710000
    2      C      -0.3208420000    -3.9766060000     1.0488980000
    3      C       0.4573230000    -2.9906530000     0.5900680000
    4      C      -0.0783770000    -1.6202200000     0.3183040000
    5      C      -1.5079370000    -1.3418070000     0.5621360000
    6      C      -2.2826210000    -2.3500090000     1.0269190000
    7      O      -2.5201460000    -4.5719270000     1.7176000000
    8      O       0.6813050000    -0.7585130000    -0.1009210000
    9      O      -3.5933950000    -2.2105100000     1.2841470000
   10      C      -2.0207290000     0.0385370000     0.2827110000
   11      H       0.0391260000    -4.9779920000     1.2544530000
   12      H       1.5144140000    -3.1224850000     0.3884950000
   13      H      -1.4862750000     0.7756720000     0.8885110000
   14      H      -3.0864860000     0.1092210000     0.4942640000
   15      H      -1.8440470000     0.3084610000    -0.7621020000
   16      H      -3.9062990000    -3.0771430000     1.6031750000
 ----------------------------------------------------------------

    9    -496.1647967558      6.51e-06  Convergence criterion met
 Total energy in the final basis set =     -496.1647967558

                    Orbital Energies (a.u.)
 --------------------------------------------------------------

 Alpha MOs
 -- Occupied --
-19.1792 -19.1572 -19.1389 -10.2977 -10.2849 -10.2682 -10.2154 -10.2125
-10.2058 -10.1729  -1.1102  -1.0722  -1.0697  -0.8650  -0.8055  -0.7259
 -0.6962  -0.6365  -0.6170  -0.5578  -0.5322  -0.5052  -0.4807  -0.4746
 -0.4493  -0.4402  -0.4347  -0.4283  -0.4112  -0.3955  -0.3950  -0.3857
 -0.3154  -0.3069  -0.2855  -0.2610

          Ground-State Mulliken Net Atomic Charges

     Atom                 Charge (a.u.)
  ----------------------------------------
      1 C                    -0.039582
      2 C                     0.066262
      3 C                     0.277346
      4 C                    -1.009299
      5 C                     2.153610
      6 C                    -1.754792
      7 O                    -0.322602
      8 O                    -0.299429
      9 O                    -0.247247
     10 C                    -0.241256
     11 H                     0.263605
     12 H                     0.257997
     13 H                     0.191365
     14 H                     0.193622
     15 H                     0.190088
     16 H                     0.320313
  ----------------------------------------
  Sum of atomic charges =     0.000000

                    Cartesian Multipole Moments
 -----------------------------------------------------------------
    Charge (ESU x 10^10)
                 0.0000
    Dipole Moment (Debye)
         X      -0.1020      Y      -1.7084      Z       0.5167
       Tot       1.7877
    Quadrupole Moments (Debye-Ang)
        XX     -59.9968     XY      -7.3830     YY     -54.3094
        XZ       2.7120     YZ       1.0576     ZZ     -58.4122

 Total job time:  13.16s(wall), 94.93s(cpu)
        *  Thank you very much for using Q-Chem.  Have a nice day.  *
