 Gaussian 16, Revision A.03,
 Gaussian 16:  ES64L-G16RevA.03 25-Dec-2016

 --------------------------------------
 #P UB3LYP/6-311++G(d,p) nosym opt freq
 --------------------------------------

 --------
 Oxidized
 --------
 Symbolic Z-matrix:
 Charge =  0 Multiplicity = 1

 SCF Done:  E(UB3LYP) =  -991.083461357     A.U. after   17 cycles
 SCF Done:  E(UB3LYP) =  -991.119348678     A.U. after   15 cycles
 SCF Done:  E(UB3LYP) =  -991.131603305     A.U. after   15 cycles
 SCF Done:  E(UB3LYP) =  -991.133748303     A.U. after   13 cycles
 SCF Done:  E(UB3LYP) =  -991.133892145     A.U. after   13 cycles
 SCF Done:  E(UB3LYP) =  -991.134001912     A.U. after   14 cycles
 SCF Done:  E(UB3LYP) =  -991.134253679     A.U. after   13 cycles
 SCF Done:  E(UB3LYP) =  -991.134334294     A.U. after   13 cycles
 SCF Done:  E(UB3LYP) =  -991.134437699     A.U. after   13 cycles
 SCF Done:  E(UB3LYP) =  -991.134488167     A.U. after   14 cycles
 SCF Done:  E(UB3LYP) =  -991.135735661     A.U. after   12 cycles
 SCF Done:  E(UB3LYP) =  -991.135727509     A.U. after   12 cycles
 SCF Done:  E(UB3LYP) =  -991.135775226     A.U. after   12 cycles
 SCF Done:  E(UB3LYP) =  -991.135783673     A.U. after   12 cycles
 SCF Done:  E(UB3LYP) =  -991.135763338     A.U. after   11 cycles
 SCF Done:  E(UB3LYP) =  -991.135798905     A.U. after   11 cycles
 SCF Done:  E(UB3LYP) =  -991.135799370     A.U. after   11 cycles
 SCF Done:  E(UB3LYP) =  -991.135801647     A.U. after   10 cycles
 SCF Done:  E(UB3LYP) =  -991.135801747     A.U. after    9 cycles
 Optimization completed.
    -- Stationary point found.
 Normal termination of Gaussian 16 at Tue Dec 26 23:17:58 2023.

 ----------------------------------------------------------------------
 #P Geom=AllCheck Guess=TCheck SCRF=Check GenChk UB3LYP/6-311++G(d,p) F
 req
 ----------------------------------------------------------------------

 Structure from the checkpoint file:  "264.chk"
 --------
 Oxidized
 --------
 Charge =  0 Multiplicity = 1

                          Input orientation:
 ---------------------------------------------------------------------
 Center     Atomic      Atomic             Coordinates (Angstroms)
 Number     Number       Type             X           Y           Z
 ---------------------------------------------------------------------
      1          6           0        4.904090   -1.225055   -0.022695
      2          6           0        3.533790   -1.040642   -0.600008
      3          8           0        3.253454   -0.693880   -1.711203
      4          8           0        2.574656   -1.346754    0.350538
      5          6           0        1.252337   -1.058101    0.075822
      6          6           0        0.422653   -2.145492   -0.177918
      7          6           0       -0.929512   -1.951598   -0.392918
      8          6           0       -1.465769   -0.668625   -0.353824
      9          8           0       -2.809837   -0.556393   -0.651124
     10          6           0       -3.695805   -0.268600    0.373096
     11          6           0       -5.052530    0.025555   -0.190690
     12          8           0       -3.374129   -0.277920    1.526405
     13          6           0       -0.652499    0.446116   -0.099334
     14          6           0       -1.221768    1.830991   -0.075958
     15          8           0       -2.402406    2.074957   -0.269122
     16          6           0       -0.296640    2.950716    0.201445
     17          6           0        1.003177    2.760010    0.442641
     18          6           0        1.623795    1.418143    0.414691
     19          8           0        2.822195    1.317662    0.625692
     20          6           0        0.738382    0.246772    0.120959
     21          1           0        5.640811   -1.215757   -0.823247
     22          1           0        5.093972   -0.395452    0.662868
     23          1           0        4.964371   -2.153423    0.547170
     24          1           0        0.858042   -3.136617   -0.200522
     25          1           0       -1.590606   -2.784748   -0.595938
     26          1           0       -5.315637   -0.694248   -0.967151
     27          1           0       -5.018196    1.017570   -0.647894
     28          1           0       -5.789399    0.015596    0.609717
     29          1           0       -0.754888    3.933417    0.208175
     30          1           0        1.683897    3.575800    0.659069
 ---------------------------------------------------------------------

 SCF Done:  E(UB3LYP) =  -991.135801747     A.U. after    2 cycles

 Alpha  occ. eigenvalues --  -19.18804 -19.18803 -19.14067 -19.14066 -19.12841
 Alpha  occ. eigenvalues --  -19.12838 -10.32131 -10.32129 -10.29358 -10.29357
 Alpha  occ. eigenvalues --  -10.27507 -10.27505 -10.22993 -10.22948 -10.22047
 Alpha  occ. eigenvalues --  -10.21963 -10.21581 -10.21522 -10.18754 -10.18753
 Alpha  occ. eigenvalues --   -1.13154  -1.13105  -1.07438  -1.07255  -1.04859
 Alpha  occ. eigenvalues --   -1.04801  -0.90499  -0.85372  -0.80934  -0.79750
 Alpha  occ. eigenvalues --   -0.77371  -0.75053  -0.71460  -0.68055  -0.67006
 Alpha  occ. eigenvalues --   -0.64429  -0.62001  -0.56295  -0.55455  -0.54495
 Alpha  occ. eigenvalues --   -0.51919  -0.50924  -0.50818  -0.50342  -0.49980
 Alpha  occ. eigenvalues --   -0.49386  -0.48720  -0.46718  -0.46333  -0.46150
 Alpha  occ. eigenvalues --   -0.45776  -0.44206  -0.43637  -0.42851  -0.42630
 Alpha  occ. eigenvalues --   -0.42091  -0.41632  -0.41385  -0.40061  -0.39458
 Alpha  occ. eigenvalues --   -0.39381  -0.37847  -0.34194  -0.33868  -0.31604
 Alpha  occ. eigenvalues --   -0.30124  -0.30089  -0.29574  -0.29121  -0.27896
 Alpha  occ. eigenvalues --   -0.27339
 Alpha virt. eigenvalues --   -0.13491  -0.06623  -0.05022  -0.01308  -0.01099
 Alpha virt. eigenvalues --   -0.01028  -0.00346  -0.00113   0.00530   0.01417
 Alpha virt. eigenvalues --    0.02417   0.02599   0.03010   0.03653   0.03722

  Beta  occ. eigenvalues --  -19.18804 -19.18803 -19.14067 -19.14066 -19.12841
  Beta  occ. eigenvalues --  -19.12838 -10.32131 -10.32129 -10.29358 -10.29357
  Beta  occ. eigenvalues --  -10.27507 -10.27505 -10.22993 -10.22948 -10.22047
  Beta  occ. eigenvalues --  -10.21963 -10.21581 -10.21522 -10.18754 -10.18753
  Beta  occ. eigenvalues --   -1.13154  -1.13105  -1.07438  -1.07255  -1.04859
  Beta  occ. eigenvalues --   -1.04801  -0.90499  -0.85372  -0.80934  -0.79750
  Beta  occ. eigenvalues --   -0.77371  -0.75053  -0.71460  -0.68055  -0.67006
  Beta  occ. eigenvalues --   -0.64429  -0.62001  -0.56295  -0.55455  -0.54495
  Beta  occ. eigenvalues --   -0.51919  -0.50924  -0.50818  -0.50342  -0.49980
  Beta  occ. eigenvalues --   -0.49386  -0.48720  -0.46718  -0.46333  -0.46150
  Beta  occ. eigenvalues --   -0.45776  -0.44206  -0.43637  -0.42851  -0.42630
  Beta  occ. eigenvalues --   -0.42091  -0.41632  -0.41385  -0.40061  -0.39458
  Beta  occ. eigenvalues --   -0.39381  -0.37847  -0.34194  -0.33868  -0.31604
  Beta  occ. eigenvalues --   -0.30124  -0.30089  -0.29574  -0.29121  -0.27896
  Beta  occ. eigenvalues --   -0.27339
  Beta virt. eigenvalues --   -0.13491  -0.06623  -0.05022  -0.01308  -0.01099
  Beta virt. eigenvalues --   -0.01028  -0.00346  -0.00113   0.00530   0.01417
  Beta virt. eigenvalues --    0.02417   0.02599   0.03010   0.03653   0.03722

 Mulliken charges and spin densities:
               1          2
     1  C   -0.486277   0.000000
     2  C   -0.017046  -0.000000
     3  O   -0.184832   0.000000
     4  O    0.012235   0.000000
     5  C   -0.336156   0.000000
     6  C    0.112583   0.000000
     7  C    0.113332  -0.000000
     8  C   -0.336996  -0.000000
     9  O    0.012623   0.000000
    10  C   -0.016924  -0.000000
    11  C   -0.486556  -0.000000
    12  O   -0.184875   0.000000
    13  C    0.394090   0.000000
    14  C   -0.231376  -0.000000
    15  O   -0.220386  -0.000000
    16  C   -0.000679  -0.000000
    17  C   -0.000449   0.000000
    18  C   -0.231244  -0.000000
    19  O   -0.220345   0.000000
    20  C    0.394255   0.000000
    21  H    0.169097   0.000000
    22  H    0.200682  -0.000000
    23  H    0.166397  -0.000000
    24  H    0.203782   0.000000
    25  H    0.203714  -0.000000
    26  H    0.166377  -0.000000
    27  H    0.200706   0.000000
    28  H    0.169084   0.000000
    29  H    0.217589  -0.000000
    30  H    0.217594   0.000000
 Sum of Mulliken charges =  -0.00000  -0.00000

 Dipole moment (field-independent basis, Debye):
    X=             -0.1510    Y=             -1.2352    Z=             -0.1533  Tot=              1.2538
 Quadrupole moment (field-independent basis, Debye-Ang):
   XX=           -106.3059   YY=            -98.7158   ZZ=           -125.4422
   XY=             -0.2494   XZ=              9.8198   YZ=              2.1746

  Exact polarizability: 249.776  -9.332 184.558  10.005   7.156 116.444
 Approx polarizability: 385.712 -16.177 292.413  36.196   6.667 201.020

                      1                      2                      3
                      A                      A                      A
 Frequencies --     30.8954                37.2856                48.7174
 Red. masses --      9.5105                 6.0599                 5.2492
 Frc consts  --      0.0053                 0.0050                 0.0073
 IR Inten    --      1.4778                 4.2384                 3.2088

                      4                      5                      6
                      A                      A                      A
 Frequencies --     73.7381                84.9202                87.3193
 Red. masses --      4.0375                 3.1414                 4.9782
 Frc consts  --      0.0129                 0.0133                 0.0224
 IR Inten    --      3.5549                 3.6526                 2.5645

                      7                      8                      9
                      A                      A                      A
 Frequencies --     89.4928               103.9044               105.3982
 Red. masses --      2.2838                 1.2521                 1.4098
 Frc consts  --      0.0108                 0.0080                 0.0092
 IR Inten    --      2.4886                 0.4793                 0.1852

                     10                     11                     12
                      A                      A                      A
 Frequencies --    123.1468               160.3119               238.2115
 Red. masses --     10.2377                 6.1103                 8.9934
 Frc consts  --      0.0915                 0.0925                 0.3007
 IR Inten    --      0.4149                 1.5479                 4.5004

                     13                     14                     15
                      A                      A                      A
 Frequencies --    248.3463               270.5781               273.0197
 Red. masses --      4.4696                10.1125                 3.7341
 Frc consts  --      0.1624                 0.4362                 0.1640
 IR Inten    --      0.0051                 1.3063                 0.1508

                     16                     17                     18
                      A                      A                      A
 Frequencies --    319.7659               346.7600               373.8251
 Red. masses --      4.7668                 9.8005                 5.5868
 Frc consts  --      0.2872                 0.6943                 0.4600
 IR Inten    --      2.8645                 0.5452                 0.0090

                     19                     20                     21
                      A                      A                      A
 Frequencies --    409.8853               418.6483               447.6982
 Red. masses --     10.8670                 4.9111                11.2676
 Frc consts  --      1.0757                 0.5071                 1.3306
 IR Inten    --     23.2039                 3.3016                 2.4411

                     22                     23                     24
                      A                      A                      A
 Frequencies --    482.2546               486.9497               512.9373
 Red. masses --      5.4684                 5.0914                 5.1388
 Frc consts  --      0.7493                 0.7113                 0.7966
 IR Inten    --      1.2994                 0.0230                 2.8301

                     25                     26                     27
                      A                      A                      A
 Frequencies --    536.7892               572.7336               574.5824
 Red. masses --      3.7382                 2.9452                 3.0765
 Frc consts  --      0.6346                 0.5692                 0.5984
 IR Inten    --      7.9782                 4.5417                15.2909

                     28                     29                     30
                      A                      A                      A
 Frequencies --    602.1305               621.6898               641.2897
 Red. masses --      6.4375                 3.6793                 3.6421
 Frc consts  --      1.3751                 0.8378                 0.8825
 IR Inten    --      4.8893                23.0117                12.4864

                     31                     32                     33
                      A                      A                      A
 Frequencies --    663.7954               666.6275               739.5722
 Red. masses --      3.4929                 6.8583                 6.0805
 Frc consts  --      0.9068                 1.7957                 1.9595
 IR Inten    --     32.4225                 2.8868                 0.5204

                     34                     35                     36
                      A                      A                      A
 Frequencies --    751.4351               763.3187               796.6646
 Red. masses --      4.0474                 5.3293                 9.4074
 Frc consts  --      1.3465                 1.8295                 3.5178
 IR Inten    --      0.6584                 1.0281                 0.0026

                     37                     38                     39
                      A                      A                      A
 Frequencies --    837.9261               871.4524               872.7126
 Red. masses --      2.7426                 2.0051                 5.8195
 Frc consts  --      1.1346                 0.8972                 2.6114
 IR Inten    --     19.8929                11.6821                 1.0444

                     40                     41                     42
                      A                      A                      A
 Frequencies --    897.1146               946.4783               958.7749
 Red. masses --      3.0586                 6.7446                 5.2886
 Frc consts  --      1.4504                 3.5598                 2.8643
 IR Inten    --     66.8695               104.5309                 7.7788

                     43                     44                     45
                      A                      A                      A
 Frequencies --    984.4634              1016.9011              1018.6265
 Red. masses --      1.4190                 2.0006                 1.2853
 Frc consts  --      0.8103                 1.2189                 0.7857
 IR Inten    --      0.0308                 5.0030                 0.3368

                     46                     47                     48
                      A                      A                      A
 Frequencies --   1019.3476              1061.4271              1061.5245
 Red. masses --      2.0914                 1.7599                 1.7596
 Frc consts  --      1.2803                 1.1682                 1.1682
 IR Inten    --    250.8862                 8.0998                 5.0852

                     49                     50                     51
                      A                      A                      A
 Frequencies --   1109.6750              1111.3935              1168.4281
 Red. masses --      3.5662                 1.5448                 1.2421
 Frc consts  --      2.5873                 1.1242                 0.9991
 IR Inten    --    141.7395                54.3370                33.0607

                     52                     53                     54
                      A                      A                      A
 Frequencies --   1185.7168              1195.7562              1244.6666
 Red. masses --      3.2765                 3.3291                 5.6511
 Frc consts  --      2.7141                 2.8045                 5.1581
 IR Inten    --   1120.8872                 9.5585                 1.5686

                     55                     56                     57
                      A                      A                      A
 Frequencies --   1254.6477              1284.2044              1285.9977
 Red. masses --      1.9619                 3.4107                 4.5872
 Frc consts  --      1.8195                 3.3141                 4.4697
 IR Inten    --     10.7445               133.6914                35.9695

                     58                     59                     60
                      A                      A                      A
 Frequencies --   1350.2729              1392.7805              1396.0492
 Red. masses --      8.2336                 1.7583                 1.3494
 Frc consts  --      8.8447                 2.0096                 1.5495
 IR Inten    --     79.9676                14.1650               121.4693

                     61                     62                     63
                      A                      A                      A
 Frequencies --   1396.3324              1422.6146              1472.8533
 Red. masses --      1.3110                 6.5812                 1.0502
 Frc consts  --      1.5060                 7.8474                 1.3423
 IR Inten    --      4.7365                43.5495                28.1368

                     64                     65                     66
                      A                      A                      A
 Frequencies --   1472.8840              1474.1076              1475.2360
 Red. masses --      1.0503                 1.1605                 1.0494
 Frc consts  --      1.3424                 1.4858                 1.3456
 IR Inten    --      0.8710                 9.7381                17.9131

                     67                     68                     69
                      A                      A                      A
 Frequencies --   1481.3174              1610.1949              1615.1026
 Red. masses --      2.6546                 7.3243                 6.9251
 Frc consts  --      3.4320                11.1886                10.6433
 IR Inten    --     21.5140                81.8813                 6.6048

                     70                     71                     72
                      A                      A                      A
 Frequencies --   1679.5064              1720.5716              1720.8840
 Red. masses --      8.7918                 9.6581                11.6690
 Frc consts  --     14.6114                16.8457                20.3605
 IR Inten    --     34.2602                11.7958               505.6775

                     73                     74                     75
                      A                      A                      A
 Frequencies --   1833.6505              1833.8979              3053.7668
 Red. masses --     11.8245                11.8445                 1.0357
 Frc consts  --     23.4243                23.4703                 5.6908
 IR Inten    --    147.7411               308.2874                 1.5995

                     76                     77                     78
                      A                      A                      A
 Frequencies --   3053.7787              3119.2144              3119.2242
 Red. masses --      1.0357                 1.0995                 1.0995
 Frc consts  --      5.6908                 6.3026                 6.3026
 IR Inten    --      1.4377                 3.6341                 3.0404

                     79                     80                     81
                      A                      A                      A
 Frequencies --   3157.4270              3157.4423              3177.5553
 Red. masses --      1.1041                 1.1041                 1.0872
 Frc consts  --      6.4855                 6.4855                 6.4678
 IR Inten    --     12.4844                 0.5336                 0.5366

                     82                     83                     84
                      A                      A                      A
 Frequencies --   3193.7717              3195.2218              3207.0936
 Red. masses --      1.0889                 1.0994                 1.0963
 Frc consts  --      6.5441                 6.6128                 6.6433
 IR Inten    --      1.8525                 3.1902                 0.8525

 - Thermochemistry -
 -------------------
 Temperature   298.150 Kelvin.  Pressure   1.00000 Atm.
 Atom     1 has atomic number  6 and mass  12.00000

 Molecular mass:   274.04774 amu.
 Principal axes and moments of inertia in atomic units:
                           1         2         3
     Eigenvalues --  2509.850667686.554689426.10725
           X            0.99201   0.12161   0.03372
           Y           -0.11644   0.98505  -0.12694
           Z           -0.04865   0.12200   0.99134
 This molecule is an asymmetric top.
 Rotational symmetry number  1.
 Warning -- assumption of classical behavior for rotation
           may cause significant error
 Rotational temperatures (Kelvin)      0.03451     0.01127     0.00919
 Rotational constants (GHZ):           0.71906     0.23479     0.19146
 Zero-point vibrational energy     561495.0 (Joules/Mol)
                                  134.20051 (Kcal/Mol)
 Warning -- explicit consideration of  28 degrees of freedom as
           vibrations may cause significant error
 Vibrational temperatures:     44.45    53.65    70.09   106.09   122.18
          (Kelvin)            125.63   128.76   149.50   151.64   177.18
                              230.65   342.73   357.31   389.30   392.81
                              460.07   498.91   537.85   589.73   602.34
                              644.14   693.86   700.61   738.00   772.32
                              824.04   826.70   866.33   894.47   922.67
                              955.05   959.13  1064.08  1081.15  1098.25
                             1146.22  1205.59  1253.83  1255.64  1290.75
                             1361.77  1379.46  1416.42  1463.09  1465.58
                             1466.61  1527.16  1527.30  1596.57  1599.05
                             1681.11  1705.98  1720.43  1790.80  1805.16
                             1847.68  1850.26  1942.74  2003.90  2008.60
                             2009.01  2046.83  2119.11  2119.15  2120.91
                             2122.54  2131.29  2316.71  2323.77  2416.44
                             2475.52  2475.97  2638.21  2638.57  4393.69
                             4393.71  4487.85  4487.87  4542.83  4542.86
                             4571.79  4595.13  4597.21  4614.29

 Zero-point correction=                           0.213862 (Hartree/Particle)
 Thermal correction to Energy=                    0.232022
 Thermal correction to Enthalpy=                  0.232966
 Thermal correction to Gibbs Free Energy=         0.165873
 Sum of electronic and zero-point Energies=           -990.921940
 Sum of electronic and thermal Energies=              -990.903780
 Sum of electronic and thermal Enthalpies=            -990.902836
 Sum of electronic and thermal Free Energies=         -990.969929

                     E (Thermal)             CV                S
                      KCal/Mol        Cal/Mol-Kelvin    Cal/Mol-Kelvin
 Total                  145.596             66.383            141.210
 Electronic               0.000              0.000              0.000
 Translational            0.889              2.981             42.723
 Rotational               0.889              2.981             33.563
 Vibrational            143.818             60.422             64.923
 Vibration     1          0.594              1.984              5.771
 Vibration     2          0.594              1.982              5.398
 Vibration     3          0.595              1.978              4.869
 Vibration     4          0.599              1.966              4.051
 Vibration     5          0.601              1.960              3.774
 Vibration     6          0.601              1.958              3.719
 Vibration     7          0.602              1.957              3.671
 Vibration     8          0.605              1.946              3.380
 Vibration     9          0.605              1.945              3.352
 Vibration    10          0.610              1.930              3.050
 Vibration    11          0.622              1.891              2.546
 Vibration    12          0.656              1.782              1.816
 Vibration    13          0.662              1.766              1.742
 Vibration    14          0.674              1.727              1.593
 Vibration    15          0.676              1.723              1.577
 Vibration    16          0.706              1.636              1.311
 Vibration    17          0.725              1.582              1.181
 Vibration    18          0.745              1.526              1.064
 Vibration    19          0.774              1.449              0.927
 Vibration    20          0.782              1.430              0.897
 Vibration    21          0.807              1.366              0.803
 Vibration    22          0.838              1.289              0.704
 Vibration    23          0.843              1.279              0.692
 Vibration    24          0.868              1.221              0.627
 Vibration    25          0.892              1.169              0.572
 Vibration    26          0.929              1.090              0.499
 Vibration    27          0.931              1.086              0.496
 Vibration    28          0.960              1.027              0.446

                           ! Non-Optimized Parameters !
 Normal termination of Gaussian 16 at Wed Dec 27 00:21:04 2023.
