 Q-Chem 5.4, Q-Chem, Inc., Pleasanton, CA (2021)
 Q-Chem 5.4.0 for Intel X86 EM64T Linux

User input:
--------------------------------------------------------------
$molecule
0 1
O                  1.9344000000     -3.1205870000      0.5061530000
C                  1.4782670000     -1.9898950000      0.3688080000
C                  0.0527550000     -1.7079720000      0.2899790000
C                 -0.4351130000     -0.4507400000      0.1517390000
O                  0.3851230000      0.6320980000      0.0544960000
C                  1.7463300000      0.4705940000      0.1019060000
C                  2.5162260000      1.6306890000     -0.0073050000
C                  3.8972940000      1.5224510000      0.0395500000
C                  4.5119050000      0.2706190000      0.1945250000
C                  3.7357660000     -0.8704690000      0.3026920000
C                  2.3358320000     -0.7873710000      0.2582900000
C                 -1.8604220000     -0.0800130000      0.0676450000
C                 -2.8552240000     -0.9371410000      0.5621470000
C                 -4.1980460000     -0.5921120000      0.4621030000
C                 -4.5715670000      0.6146900000     -0.1292380000
C                 -3.5905490000      1.4770370000     -0.6147280000
C                 -2.2449570000      1.1370410000     -0.5144880000
H                 -0.6225360000     -2.5508280000      0.3286660000
H                  2.0221320000      2.5873560000     -0.1237610000
H                  4.5045170000      2.4164990000     -0.0441350000
H                  5.5926070000      0.2005100000      0.2297700000
H                  4.1772900000     -1.8524760000      0.4232560000
H                 -2.5793780000     -1.8664060000      1.0449090000
H                 -4.9539920000     -1.2625200000      0.8544800000
H                 -5.6192410000      0.8823510000     -0.2053360000
H                 -3.8725720000      2.4175970000     -1.0739640000
H                 -1.4868510000      1.8089970000     -0.8942120000
$end

$rem
BASIS  =  6-311++G(d,p)
GUI  =  2
JOB_TYPE  =  SP
METHOD  =  B3LYP
SCF_CONVERGENCE  = 8
SOLVENT_METHOD = sm12
$end

$smx
solvent dimethylformamide
charges CM5
$end

--------------------------------------------------------------

             Standard Nuclear Orientation (Angstroms)
    I     Atom           X                Y                Z
 ----------------------------------------------------------------
    1      O       1.9344000000    -3.1205870000     0.5061530000
    2      C       1.4782670000    -1.9898950000     0.3688080000
    3      C       0.0527550000    -1.7079720000     0.2899790000
    4      C      -0.4351130000    -0.4507400000     0.1517390000
    5      O       0.3851230000     0.6320980000     0.0544960000
    6      C       1.7463300000     0.4705940000     0.1019060000
    7      C       2.5162260000     1.6306890000    -0.0073050000
    8      C       3.8972940000     1.5224510000     0.0395500000
    9      C       4.5119050000     0.2706190000     0.1945250000
   10      C       3.7357660000    -0.8704690000     0.3026920000
   11      C       2.3358320000    -0.7873710000     0.2582900000
   12      C      -1.8604220000    -0.0800130000     0.0676450000
   13      C      -2.8552240000    -0.9371410000     0.5621470000
   14      C      -4.1980460000    -0.5921120000     0.4621030000
   15      C      -4.5715670000     0.6146900000    -0.1292380000
   16      C      -3.5905490000     1.4770370000    -0.6147280000
   17      C      -2.2449570000     1.1370410000    -0.5144880000
   18      H      -0.6225360000    -2.5508280000     0.3286660000
   19      H       2.0221320000     2.5873560000    -0.1237610000
   20      H       4.5045170000     2.4164990000    -0.0441350000
   21      H       5.5926070000     0.2005100000     0.2297700000
   22      H       4.1772900000    -1.8524760000     0.4232560000
   23      H      -2.5793780000    -1.8664060000     1.0449090000
   24      H      -4.9539920000    -1.2625200000     0.8544800000
   25      H      -5.6192410000     0.8823510000    -0.2053360000
   26      H      -3.8725720000     2.4175970000    -1.0739640000
   27      H      -1.4868510000     1.8089970000    -0.8942120000
 ----------------------------------------------------------------

   15    -728.2569590920      2.59e-09  Convergence criterion met
 Total energy in the final basis set =     -728.2790706319

                    Orbital Energies (a.u.)
 --------------------------------------------------------------

 Alpha MOs
 -- Occupied --
-19.2111 -19.1020 -10.2782 -10.2653 -10.2639 -10.2073 -10.2000 -10.1967
-10.1943 -10.1935 -10.1926 -10.1915 -10.1889 -10.1889 -10.1874 -10.1873
-10.1873  -1.1330  -1.0365  -0.8879  -0.8751  -0.8279  -0.7941  -0.7711
 -0.7619  -0.7556  -0.6812  -0.6620  -0.6244  -0.6176  -0.6052  -0.5647
 -0.5486  -0.5423  -0.5057  -0.4880  -0.4850  -0.4763  -0.4649  -0.4543
 -0.4480  -0.4400  -0.4349  -0.4280  -0.4085  -0.4030  -0.3930  -0.3824
 -0.3728  -0.3693  -0.3644  -0.3548  -0.3082  -0.2766  -0.2717  -0.2633
 -0.2597  -0.2491

          Ground-State Mulliken Net Atomic Charges

     Atom                 Charge (a.u.)
  ----------------------------------------
      1 O                    -0.433943
      2 C                    -2.545290
      3 C                    -0.373025
      4 C                     0.730800
      5 O                     0.072483
      6 C                    -1.306189
      7 C                     0.090001
      8 C                     0.283320
      9 C                     0.217890
     10 C                    -0.311430
     11 C                     1.102332
     12 C                     0.838509
     13 C                    -0.209667
     14 C                    -0.181238
     15 C                    -0.000878
     16 C                    -0.129167
     17 C                    -0.395515
     18 H                     0.215919
     19 H                     0.280178
     20 H                     0.335851
     21 H                     0.284744
     22 H                     0.152729
     23 H                     0.254766
     24 H                     0.278425
     25 H                     0.269150
     26 H                     0.278761
     27 H                     0.200484
  ----------------------------------------
  Sum of atomic charges =     0.000000

                    Cartesian Multipole Moments
 -----------------------------------------------------------------
    Charge (ESU x 10^10)
                -0.0000
    Dipole Moment (Debye)
         X      -2.3985      Y       5.0365      Z      -0.6295
       Tot       5.6139
    Quadrupole Moments (Debye-Ang)
        XX     -75.3498     XY      13.3257     YY    -105.5446
        XZ      -1.7325     YZ      -1.7687     ZZ    -102.1720

 Total job time:  539.02s(wall), 3928.12s(cpu)
        *  Thank you very much for using Q-Chem.  Have a nice day.  *
