 Gaussian 16, Revision A.03,
 Gaussian 16:  ES64L-G16RevA.03 25-Dec-2016

 --------------------------------------
 #P UB3LYP/6-311++G(d,p) nosym opt freq
 --------------------------------------

 -------
 Radical
 -------
 Symbolic Z-matrix:
 Charge = -1 Multiplicity = 2

 SCF Done:  E(UB3LYP) =  -843.871039557     A.U. after   24 cycles
 Optimization completed.
    -- Stationary point found.
 Normal termination of Gaussian 16 at Wed Jan 10 05:00:07 2024.

 ----------------------------------------------------------------------
 #P Geom=AllCheck Guess=TCheck SCRF=Check GenChk UB3LYP/6-311++G(d,p) F
 req
 ----------------------------------------------------------------------

 Structure from the checkpoint file:  "064-rad.chk"
 -------
 Radical
 -------
 Charge = -1 Multiplicity = 2

                          Input orientation:
 ---------------------------------------------------------------------
 Center     Atomic      Atomic             Coordinates (Angstroms)
 Number     Number       Type             X           Y           Z
 ---------------------------------------------------------------------
      1          8           0        1.430920    2.315076   -0.230483
      2          6           0        0.794004    1.226070   -0.200816
      3          6           0       -0.650338    1.216178   -0.242045
      4          6           0       -1.440728    0.088152   -0.216803
      5          6           0       -0.794043   -1.226179   -0.119607
      6          8           0       -1.430978   -2.315166   -0.089749
      7          6           0        0.650298   -1.216275   -0.078472
      8          6           0        1.440717   -0.088247   -0.103739
      9          6           0        2.916066   -0.207743   -0.024468
     10          6           0        3.513825   -1.236590    0.726987
     11          6           0        4.896618   -1.391392    0.780469
     12          6           0        5.729972   -0.513366    0.087806
     13          6           0        5.155955    0.522119   -0.650539
     14          6           0        3.773248    0.679127   -0.703012
     15          6           0       -2.916097    0.207681   -0.296350
     16          6           0       -3.513622    1.236451   -1.048105
     17          6           0       -4.896398    1.391320   -1.101913
     18          6           0       -5.729933    0.513459   -0.409269
     19          6           0       -5.156126   -0.521912    0.329411
     20          6           0       -3.773439   -0.678979    0.382192
     21          1           0       -1.102428    2.202589   -0.271724
     22          1           0        1.102371   -2.202702   -0.048907
     23          1           0        2.881312   -1.913026    1.290335
     24          1           0        5.323897   -2.194204    1.373727
     25          1           0        6.808371   -0.628698    0.130308
     26          1           0        5.791095    1.218730   -1.189497
     27          1           0        3.337376    1.498888   -1.255707
     28          1           0       -2.880897    1.912776   -1.611336
     29          1           0       -5.323503    2.194042   -1.695420
     30          1           0       -6.808318    0.628846   -0.451978
     31          1           0       -5.791438   -1.218354    0.868382
     32          1           0       -3.337760   -1.498671    0.935167
 ---------------------------------------------------------------------

 SCF Done:  E(UB3LYP) =  -843.871039557     A.U. after    1 cycles

 Alpha  occ. eigenvalues --  -18.94944 -18.94944 -10.09827 -10.09826 -10.07727
 Alpha  occ. eigenvalues --  -10.07727 -10.07639 -10.07638 -10.07580 -10.07579
 Alpha  occ. eigenvalues --  -10.07345 -10.07344 -10.06975 -10.06974 -10.06307
 Alpha  occ. eigenvalues --  -10.06306 -10.05733 -10.05732 -10.04274 -10.04273
 Alpha  occ. eigenvalues --   -0.87430  -0.87161  -0.75667  -0.75588  -0.70805
 Alpha  occ. eigenvalues --   -0.67668  -0.64439  -0.64429  -0.64261  -0.60458
 Alpha  occ. eigenvalues --   -0.56071  -0.52431  -0.50740  -0.50281  -0.48923
 Alpha  occ. eigenvalues --   -0.46465  -0.44672  -0.41719  -0.40056  -0.37009
 Alpha  occ. eigenvalues --   -0.36166  -0.35977  -0.34689  -0.33465  -0.33099
 Alpha  occ. eigenvalues --   -0.32347  -0.31996  -0.31882  -0.30472  -0.28258
 Alpha  occ. eigenvalues --   -0.27939  -0.27462  -0.27129  -0.26206  -0.24923
 Alpha  occ. eigenvalues --   -0.24818  -0.24384  -0.24113  -0.23701  -0.23482
 Alpha  occ. eigenvalues --   -0.17972  -0.17283  -0.15444  -0.15382  -0.13565
 Alpha  occ. eigenvalues --   -0.11520  -0.11359  -0.10830  -0.03681
 Alpha virt. eigenvalues --    0.06219   0.07021   0.07055   0.08782   0.08838
 Alpha virt. eigenvalues --    0.08849   0.08929   0.09292   0.09963   0.10319
 Alpha virt. eigenvalues --    0.11668   0.12081   0.12231   0.13053   0.13191

  Beta  occ. eigenvalues --  -18.94231 -18.94231 -10.09737 -10.09736 -10.07740
  Beta  occ. eigenvalues --  -10.07740 -10.07641 -10.07641 -10.07567 -10.07567
  Beta  occ. eigenvalues --  -10.07352 -10.07351 -10.06957 -10.06956 -10.06292
  Beta  occ. eigenvalues --  -10.06291 -10.05642 -10.05641 -10.04130 -10.04129
  Beta  occ. eigenvalues --   -0.86222  -0.85913  -0.75609  -0.75558  -0.70329
  Beta  occ. eigenvalues --   -0.67542  -0.64419  -0.64410  -0.64113  -0.60248
  Beta  occ. eigenvalues --   -0.55170  -0.52259  -0.50681  -0.50250  -0.48810
  Beta  occ. eigenvalues --   -0.46187  -0.44480  -0.41684  -0.39906  -0.36890
  Beta  occ. eigenvalues --   -0.36092  -0.35799  -0.34652  -0.33250  -0.32958
  Beta  occ. eigenvalues --   -0.32225  -0.31951  -0.31859  -0.30200  -0.27740
  Beta  occ. eigenvalues --   -0.27257  -0.26975  -0.26796  -0.25523  -0.24760
  Beta  occ. eigenvalues --   -0.24505  -0.24066  -0.23639  -0.23307  -0.21791
  Beta  occ. eigenvalues --   -0.17549  -0.15984  -0.15370  -0.15335  -0.11284
  Beta  occ. eigenvalues --   -0.10857  -0.10697  -0.10184
  Beta virt. eigenvalues --    0.03126   0.06874   0.07020   0.07059   0.08782
  Beta virt. eigenvalues --    0.08842   0.08885   0.08978   0.09639   0.09971
  Beta virt. eigenvalues --    0.10320   0.11714   0.12091   0.12364   0.13200

 Mulliken charges and spin densities:
               1          2
     1  O   -0.380038   0.259908
     2  C   -0.832073   0.068061
     3  C   -0.724524   0.074068
     4  C    1.308678   0.098701
     5  C   -0.832052   0.068064
     6  O   -0.380046   0.259912
     7  C   -0.724683   0.074075
     8  C    1.308432   0.098687
     9  C    1.278165  -0.022410
    10  C   -0.767657   0.017821
    11  C   -0.372303  -0.006901
    12  C   -0.340624   0.014083
    13  C   -0.258977   0.000299
    14  C   -0.281809   0.010988
    15  C    1.277888  -0.022406
    16  C   -0.767778   0.017815
    17  C   -0.372207  -0.006896
    18  C   -0.340633   0.014075
    19  C   -0.258910   0.000301
    20  C   -0.281896   0.010968
    21  H    0.136850  -0.010283
    22  H    0.136835  -0.010284
    23  H    0.148157  -0.001768
    24  H    0.136986   0.000563
    25  H    0.125079  -0.001078
    26  H    0.141933   0.000365
    27  H    0.182518  -0.002405
    28  H    0.148147  -0.001767
    29  H    0.136992   0.000563
    30  H    0.125083  -0.001077
    31  H    0.141930   0.000365
    32  H    0.182540  -0.002407
 Sum of Mulliken charges =  -1.00000   1.00000

 Dipole moment (field-independent basis, Debye):
    X=             -0.0003    Y=              0.0003    Z=              0.7696  Tot=              0.7696
 Quadrupole moment (field-independent basis, Debye-Ang):
   XX=           -153.7865   YY=           -142.7735   ZZ=           -122.4176
   XY=            -10.6836   XZ=             -1.6951   YZ=             -5.5074

  Exact polarizability: 442.405  -1.662 223.970   9.092 -33.290 142.713
 Approx polarizability: 565.193  38.534 426.815   3.035 -70.948 238.441

                      1                      2                      3
                      A                      A                      A
 Frequencies --     30.2092                47.1984                60.3598
 Red. masses --      6.4532                 3.6906                 5.0920
 Frc consts  --      0.0035                 0.0048                 0.0109
 IR Inten    --      2.9957                 1.0293                 0.0000

                      4                      5                      6
                      A                      A                      A
 Frequencies --     73.9442               101.9764               128.7186
 Red. masses --      5.3405                 5.0628                 8.7476
 Frc consts  --      0.0172                 0.0310                 0.0854
 IR Inten    --      2.2413                 0.0000                 8.0404

                      7                      8                      9
                      A                      A                      A
 Frequencies --    146.6200               214.6791               230.7152
 Red. masses --      5.2279                 6.7686                 5.0079
 Frc consts  --      0.0662                 0.1838                 0.1571
 IR Inten    --      0.0000                 0.0000                 1.1778

                     10                     11                     12
                      A                      A                      A
 Frequencies --    259.7336               304.1881               321.0716
 Red. masses --      5.3859                 6.1704                 7.6725
 Frc consts  --      0.2141                 0.3364                 0.4660
 IR Inten    --      0.0000                 0.0000                 9.7089

                     13                     14                     15
                      A                      A                      A
 Frequencies --    329.5950               415.4824               417.0388
 Red. masses --      6.0327                 4.3108                 2.9530
 Frc consts  --      0.3861                 0.4384                 0.3026
 IR Inten    --      1.4483                 0.0000                 1.0134

                     16                     17                     18
                      A                      A                      A
 Frequencies --    417.9633               448.9417               482.3267
 Red. masses --      3.6419                 3.6175                 7.3114
 Frc consts  --      0.3749                 0.4296                 1.0021
 IR Inten    --      0.0000                 3.9588                 7.6545

                     19                     20                     21
                      A                      A                      A
 Frequencies --    483.5569               518.1516               541.8436
 Red. masses --     12.1010                 3.0040                 3.8402
 Frc consts  --      1.6671                 0.4752                 0.6643
 IR Inten    --      0.0000                10.5592                 0.0000

                     22                     23                     24
                      A                      A                      A
 Frequencies --    597.6393               633.3823               633.7966
 Red. masses --      6.4511                 6.3741                 6.2929
 Frc consts  --      1.3576                 1.5066                 1.4894
 IR Inten    --      0.0000                 0.5679                 0.0000

                     25                     26                     27
                      A                      A                      A
 Frequencies --    671.5885               700.5977               700.8144
 Red. masses --      4.7880                 2.1460                 1.7921
 Frc consts  --      1.2724                 0.6206                 0.5186
 IR Inten    --      0.0000                54.8889                 0.0096

                     28                     29                     30
                      A                      A                      A
 Frequencies --    701.7347               706.9996               710.7269
 Red. masses --      2.5208                 6.2059                 4.8546
 Frc consts  --      0.7314                 1.8277                 1.4448
 IR Inten    --     52.8888                27.0897                 0.0000

                     31                     32                     33
                      A                      A                      A
 Frequencies --    750.1804               774.1146               779.9151
 Red. masses --      3.3035                 2.0289                 2.6583
 Frc consts  --      1.0954                 0.7163                 0.9527
 IR Inten    --      0.0000                 0.0000                54.0884

                     34                     35                     36
                      A                      A                      A
 Frequencies --    843.1670               844.1081               847.8018
 Red. masses --      1.4320                 1.2516                 3.0013
 Frc consts  --      0.5998                 0.5254                 1.2710
 IR Inten    --      9.0830                 0.0005                12.7070

                     37                     38                     39
                      A                      A                      A
 Frequencies --    877.7448               900.8904               919.2858
 Red. masses --      1.5970                 1.4963                 1.5669
 Frc consts  --      0.7249                 0.7155                 0.7802
 IR Inten    --      0.0000                40.8919                 6.4386

                     40                     41                     42
                      A                      A                      A
 Frequencies --    919.3306               928.5186               973.4982
 Red. masses --      1.5576                 7.0337                 1.3391
 Frc consts  --      0.7756                 3.5729                 0.7477
 IR Inten    --      0.1213                 0.0000                 0.3204

                     43                     44                     45
                      A                      A                      A
 Frequencies --    974.0396               979.8324               980.7164
 Red. masses --      1.3385                 1.2904                 1.2887
 Frc consts  --      0.7482                 0.7299                 0.7303
 IR Inten    --      0.0000                 6.0495                 0.0005

                     46                     47                     48
                      A                      A                      A
 Frequencies --   1011.4170              1013.2548              1019.9021
 Red. masses --      5.4012                 6.0932                 4.2042
 Frc consts  --      3.2554                 3.6858                 2.5766
 IR Inten    --     33.1725                 0.0001                25.1707

                     49                     50                     51
                      A                      A                      A
 Frequencies --   1051.3963              1053.7332              1097.2926
 Red. masses --      2.1099                 1.9436                 1.6103
 Frc consts  --      1.3742                 1.2715                 1.1424
 IR Inten    --      0.0000                13.4129                12.3550

                     52                     53                     54
                      A                      A                      A
 Frequencies --   1097.8024              1162.9622              1173.7217
 Red. masses --      1.6065                 5.9633                 1.0949
 Frc consts  --      1.1407                 4.7519                 0.8887
 IR Inten    --      0.0000                64.0444                 0.0000

                     55                     56                     57
                      A                      A                      A
 Frequencies --   1174.0240              1201.5659              1202.6872
 Red. masses --      1.1185                 1.1542                 1.1517
 Frc consts  --      0.9083                 0.9818                 0.9815
 IR Inten    --      0.9704                 0.0000                 1.6719

                     58                     59                     60
                      A                      A                      A
 Frequencies --   1234.3758              1259.7644              1260.6698
 Red. masses --      2.5187                 2.5370                 1.6755
 Frc consts  --      2.2611                 2.3722                 1.5689
 IR Inten    --      0.0000                30.7044                 0.0118

                     61                     62                     63
                      A                      A                      A
 Frequencies --   1288.0743              1312.5665              1332.9769
 Red. masses --      2.9659                 3.7380                 4.6444
 Frc consts  --      2.8993                 3.7943                 4.8621
 IR Inten    --     64.2421                 0.0001                37.6084

                     64                     65                     66
                      A                      A                      A
 Frequencies --   1351.2137              1355.0913              1407.6831
 Red. masses --      1.7206                 1.4960                 4.6274
 Frc consts  --      1.8508                 1.6186                 5.4025
 IR Inten    --      0.0000                 3.9252                 0.0000

                     67                     68                     69
                      A                      A                      A
 Frequencies --   1464.6982              1471.5644              1489.6444
 Red. masses --      2.3584                 2.4198                10.9971
 Frc consts  --      2.9810                 3.0873                14.3778
 IR Inten    --     32.3938                 0.0000                 0.0001

                     70                     71                     72
                      A                      A                      A
 Frequencies --   1503.2424              1520.3461              1520.3641
 Red. masses --      3.1845                 2.2364                 4.1966
 Frc consts  --      4.2398                 3.0456                 5.7154
 IR Inten    --     51.2862                 0.0073               278.8954

                     73                     74                     75
                      A                      A                      A
 Frequencies --   1528.7500              1601.6884              1604.8365
 Red. masses --      3.9279                 5.1174                 5.4204
 Frc consts  --      5.4086                 7.7349                 8.2251
 IR Inten    --    288.0539                 0.0002                 8.5649

                     76                     77                     78
                      A                      A                      A
 Frequencies --   1630.7754              1631.1225              1634.0267
 Red. masses --      6.1533                 5.5204                 6.3933
 Frc consts  --      9.6416                 8.6536                10.0575
 IR Inten    --      0.0002               158.8354                 0.0004

                     79                     80                     81
                      A                      A                      A
 Frequencies --   3137.5983              3137.6912              3148.3670
 Red. masses --      1.0838                 1.0838                 1.0889
 Frc consts  --      6.2863                 6.2867                 6.3592
 IR Inten    --      5.2942                 0.0004                71.8026

                     82                     83                     84
                      A                      A                      A
 Frequencies --   3148.3945              3155.2511              3157.6547
 Red. masses --      1.0889                 1.0886                 1.0894
 Frc consts  --      6.3595                 6.3852                 6.3999
 IR Inten    --      1.2650                22.3821                 0.0018

                     85                     86                     87
                      A                      A                      A
 Frequencies --   3165.2204              3165.4218              3178.3167
 Red. masses --      1.0942                 1.0942                 1.0931
 Frc consts  --      6.4589                 6.4596                 6.5057
 IR Inten    --    130.7772                 0.0615                39.6090

                     88                     89                     90
                      A                      A                      A
 Frequencies --   3178.5246              3219.4362              3219.5543
 Red. masses --      1.0930                 1.0921                 1.0921
 Frc consts  --      6.5062                 6.6691                 6.6696
 IR Inten    --      0.5226                 5.4180                 4.3765

 - Thermochemistry -
 -------------------
 Temperature   298.150 Kelvin.  Pressure   1.00000 Atm.
 Atom     1 has atomic number  8 and mass  15.99491

 Molecular mass:   260.08373 amu.
 Principal axes and moments of inertia in atomic units:
                           1         2         3
     Eigenvalues --  1581.45718********************
           X            0.99780   0.06090  -0.02614
           Y           -0.05137   0.95994   0.27547
           Z            0.04187  -0.27352   0.96095
 This molecule is an asymmetric top.
 Rotational symmetry number  1.
 Warning -- assumption of classical behavior for rotation
           may cause significant error
 Rotational temperatures (Kelvin)      0.05477     0.00737     0.00662
 Rotational constants (GHZ):           1.14119     0.15350     0.13793
 Zero-point vibrational energy     639998.6 (Joules/Mol)
                                  152.96333 (Kcal/Mol)
 Warning -- explicit consideration of  22 degrees of freedom as
           vibrations may cause significant error
 Vibrational temperatures:     43.46    67.91    86.84   106.39   146.72
          (Kelvin)            185.20   210.95   308.88   331.95   373.70
                              437.66   461.95   474.21   597.79   600.03
                              601.36   645.93   693.96   695.73   745.50
                              779.59   859.87   911.30   911.89   966.27
                             1008.00  1008.32  1009.64  1017.21  1022.58
                             1079.34  1113.78  1122.12  1213.13  1214.48
                             1219.80  1262.88  1296.18  1322.65  1322.71
                             1335.93  1400.65  1401.43  1409.76  1411.03
                             1455.20  1457.85  1467.41  1512.72  1516.09
                             1578.76  1579.49  1673.24  1688.72  1689.16
                             1728.79  1730.40  1775.99  1812.52  1813.82
                             1853.25  1888.49  1917.86  1944.10  1949.67
                             2025.34  2107.37  2117.25  2143.27  2162.83
                             2187.44  2187.46  2199.53  2304.47  2309.00
                             2346.32  2346.82  2351.00  4514.30  4514.44
                             4529.80  4529.84  4539.70  4543.16  4554.05
                             4554.34  4572.89  4573.19  4632.05  4632.22

 Zero-point correction=                           0.243763 (Hartree/Particle)
 Thermal correction to Energy=                    0.259181
 Thermal correction to Enthalpy=                  0.260125
 Thermal correction to Gibbs Free Energy=         0.199191
 Sum of electronic and zero-point Energies=           -843.627277
 Sum of electronic and thermal Energies=              -843.611858
 Sum of electronic and thermal Enthalpies=            -843.610914
 Sum of electronic and thermal Free Energies=         -843.671848

                     E (Thermal)             CV                S
                      KCal/Mol        Cal/Mol-Kelvin    Cal/Mol-Kelvin
 Total                  162.639             61.830            128.246
 Electronic               0.000              0.000              1.377
 Translational            0.889              2.981             42.567
 Rotational               0.889              2.981             33.853
 Vibrational            160.861             55.868             50.449
 Vibration     1          0.594              1.984              5.816
 Vibration     2          0.595              1.979              4.931
 Vibration     3          0.597              1.973              4.445
 Vibration     4          0.599              1.966              4.046
 Vibration     5          0.604              1.948              3.416
 Vibration     6          0.611              1.925              2.965
 Vibration     7          0.617              1.906              2.716
 Vibration     8          0.645              1.819              2.004
 Vibration     9          0.652              1.794              1.873
 Vibration    10          0.668              1.746              1.664
 Vibration    11          0.695              1.666              1.394
 Vibration    12          0.707              1.633              1.305
 Vibration    13          0.712              1.616              1.262
 Vibration    14          0.779              1.437              0.907
 Vibration    15          0.780              1.433              0.902
 Vibration    16          0.781              1.431              0.899
 Vibration    17          0.808              1.363              0.799
 Vibration    18          0.839              1.289              0.704
 Vibration    19          0.840              1.287              0.701
 Vibration    20          0.873              1.210              0.614
 Vibration    21          0.897              1.158              0.561
 Vibration    22          0.956              1.037              0.454

 Optimization completed.
    -- Stationary point found.
 Normal termination of Gaussian 16 at Wed Jan 10 06:52:30 2024.
