 Q-Chem 5.4, Q-Chem, Inc., Pleasanton, CA (2021)
 Q-Chem 5.4.0 for Intel X86 EM64T Linux

User input:
--------------------------------------------------------------
$molecule
-1 2
O                  1.4309200000      2.3150760000     -0.2304830000
C                  0.7940040000      1.2260700000     -0.2008160000
C                 -0.6503380000      1.2161780000     -0.2420450000
C                 -1.4407280000      0.0881520000     -0.2168030000
C                 -0.7940430000     -1.2261790000     -0.1196070000
O                 -1.4309780000     -2.3151660000     -0.0897490000
C                  0.6502980000     -1.2162750000     -0.0784720000
C                  1.4407170000     -0.0882470000     -0.1037390000
C                  2.9160660000     -0.2077430000     -0.0244680000
C                  3.5138250000     -1.2365900000      0.7269870000
C                  4.8966180000     -1.3913920000      0.7804690000
C                  5.7299720000     -0.5133660000      0.0878060000
C                  5.1559550000      0.5221190000     -0.6505390000
C                  3.7732480000      0.6791270000     -0.7030120000
C                 -2.9160970000      0.2076810000     -0.2963500000
C                 -3.5136220000      1.2364510000     -1.0481050000
C                 -4.8963980000      1.3913200000     -1.1019130000
C                 -5.7299330000      0.5134590000     -0.4092690000
C                 -5.1561260000     -0.5219120000      0.3294110000
C                 -3.7734390000     -0.6789790000      0.3821920000
H                 -1.1024280000      2.2025890000     -0.2717240000
H                  1.1023710000     -2.2027020000     -0.0489070000
H                  2.8813120000     -1.9130260000      1.2903350000
H                  5.3238970000     -2.1942040000      1.3737270000
H                  6.8083710000     -0.6286980000      0.1303080000
H                  5.7910950000      1.2187300000     -1.1894970000
H                  3.3373760000      1.4988880000     -1.2557070000
H                 -2.8808970000      1.9127760000     -1.6113360000
H                 -5.3235030000      2.1940420000     -1.6954200000
H                 -6.8083180000      0.6288460000     -0.4519780000
H                 -5.7914380000     -1.2183540000      0.8683820000
H                 -3.3377600000     -1.4986710000      0.9351670000
$end
$rem
MAX_SCF_CYCLES=200
BASIS  =  6-311++G(d,p)
GUI  =  2
JOB_TYPE  =  SP
METHOD  =  B3LYP
SOLVENT_METHOD = PCM
$end
$pcm
theory = CPCM
$end
$solvent
dielectric 37.219
opticaldielectric 1.43
$end

--------------------------------------------------------------

             Standard Nuclear Orientation (Angstroms)
    I     Atom           X                Y                Z
 ----------------------------------------------------------------
    1      O       1.4309200000     2.3150760000    -0.2304830000
    2      C       0.7940040000     1.2260700000    -0.2008160000
    3      C      -0.6503380000     1.2161780000    -0.2420450000
    4      C      -1.4407280000     0.0881520000    -0.2168030000
    5      C      -0.7940430000    -1.2261790000    -0.1196070000
    6      O      -1.4309780000    -2.3151660000    -0.0897490000
    7      C       0.6502980000    -1.2162750000    -0.0784720000
    8      C       1.4407170000    -0.0882470000    -0.1037390000
    9      C       2.9160660000    -0.2077430000    -0.0244680000
   10      C       3.5138250000    -1.2365900000     0.7269870000
   11      C       4.8966180000    -1.3913920000     0.7804690000
   12      C       5.7299720000    -0.5133660000     0.0878060000
   13      C       5.1559550000     0.5221190000    -0.6505390000
   14      C       3.7732480000     0.6791270000    -0.7030120000
   15      C      -2.9160970000     0.2076810000    -0.2963500000
   16      C      -3.5136220000     1.2364510000    -1.0481050000
   17      C      -4.8963980000     1.3913200000    -1.1019130000
   18      C      -5.7299330000     0.5134590000    -0.4092690000
   19      C      -5.1561260000    -0.5219120000     0.3294110000
   20      C      -3.7734390000    -0.6789790000     0.3821920000
   21      H      -1.1024280000     2.2025890000    -0.2717240000
   22      H       1.1023710000    -2.2027020000    -0.0489070000
   23      H       2.8813120000    -1.9130260000     1.2903350000
   24      H       5.3238970000    -2.1942040000     1.3737270000
   25      H       6.8083710000    -0.6286980000     0.1303080000
   26      H       5.7910950000     1.2187300000    -1.1894970000
   27      H       3.3373760000     1.4988880000    -1.2557070000
   28      H      -2.8808970000     1.9127760000    -1.6113360000
   29      H      -5.3235030000     2.1940420000    -1.6954200000
   30      H      -6.8083180000     0.6288460000    -0.4519780000
   31      H      -5.7914380000    -1.2183540000     0.8683820000
   32      H      -3.3377600000    -1.4986710000     0.9351670000
 ----------------------------------------------------------------

    8    -843.9516374324      4.72e-06  Convergence criterion met
 Total energy in the final basis set =     -843.9516374324

                    Orbital Energies (a.u.)
 --------------------------------------------------------------

 Alpha MOs
 -- Occupied --
-19.0796 -19.0796 -10.2253 -10.2253 -10.1837 -10.1837 -10.1787 -10.1787
-10.1728 -10.1728 -10.1723 -10.1723 -10.1717 -10.1717 -10.1714 -10.1714
-10.1680 -10.1680 -10.1630 -10.1630  -1.0049  -1.0025  -0.8617  -0.8593
 -0.8258  -0.7864  -0.7486  -0.7451  -0.7448  -0.7160  -0.6822  -0.6324
 -0.6118  -0.6040  -0.5920  -0.5777  -0.5563  -0.5170  -0.5058  -0.4851
 -0.4708  -0.4637  -0.4491  -0.4423  -0.4404  -0.4344  -0.4200  -0.4187
 -0.4174  -0.4052  -0.4020  -0.3919  -0.3838  -0.3701  -0.3682  -0.3627
 -0.3498  -0.3480  -0.3412  -0.3391  -0.2930  -0.2911  -0.2585  -0.2568
 -0.2481  -0.2427  -0.2389  -0.2271  -0.1638

 Beta MOs
 -- Occupied --
-19.0731 -19.0731 -10.2239 -10.2239 -10.1839 -10.1839 -10.1776 -10.1776
-10.1729 -10.1729 -10.1722 -10.1722 -10.1716 -10.1716 -10.1715 -10.1715
-10.1678 -10.1678 -10.1619 -10.1619  -0.9935  -0.9908  -0.8607  -0.8589
 -0.8211  -0.7849  -0.7475  -0.7449  -0.7445  -0.7139  -0.6729  -0.6302
 -0.6107  -0.6037  -0.5910  -0.5752  -0.5542  -0.5166  -0.5040  -0.4834
 -0.4684  -0.4626  -0.4486  -0.4403  -0.4392  -0.4316  -0.4196  -0.4171
 -0.4147  -0.3987  -0.3908  -0.3892  -0.3766  -0.3651  -0.3609  -0.3507
 -0.3494  -0.3442  -0.3407  -0.3387  -0.2867  -0.2733  -0.2574  -0.2562
 -0.2376  -0.2350  -0.2333  -0.2213

          Ground-State Mulliken Net Atomic Charges

     Atom                 Charge (a.u.)    Spin (a.u.)
  --------------------------------------------------------
      1 O                    -0.490705       0.238126
      2 C                    -0.610151       0.107416
      3 C                    -0.737326       0.044511
      4 C                     1.143695       0.109096
      5 C                    -0.609918       0.107418
      6 O                    -0.490716       0.238124
      7 C                    -0.737289       0.044506
      8 C                     1.143718       0.109089
      9 C                     1.205570      -0.027534
     10 C                    -0.730983       0.019208
     11 C                    -0.382055      -0.006702
     12 C                    -0.423468       0.015025
     13 C                    -0.277184      -0.000671
     14 C                    -0.356580       0.014116
     15 C                     1.205217      -0.027529
     16 C                    -0.731288       0.019200
     17 C                    -0.381677      -0.006697
     18 C                    -0.423493       0.015017
     19 C                    -0.277440      -0.000672
     20 C                    -0.356319       0.014104
     21 H                     0.178301      -0.008511
     22 H                     0.178284      -0.008511
     23 H                     0.190122      -0.001690
     24 H                     0.204297       0.000501
     25 H                     0.196025      -0.000984
     26 H                     0.206767       0.000393
     27 H                     0.183652      -0.002285
     28 H                     0.190106      -0.001689
     29 H                     0.204305       0.000501
     30 H                     0.196032      -0.000983
     31 H                     0.206767       0.000393
     32 H                     0.183709      -0.002286
  --------------------------------------------------------
  Sum of atomic charges =    -1.000025

                    Cartesian Multipole Moments
 -----------------------------------------------------------------
    Charge (ESU x 10^10)
                -4.8033
    Dipole Moment (Debye)
         X      -0.0001      Y       0.0004      Z       0.7690
       Tot       0.7690
    Quadrupole Moments (Debye-Ang)
        XX    -123.8019     XY     -18.4051     YY    -143.4194
        XZ       0.0208     YZ      -7.6360     ZZ    -120.9609

 Total job time:  71.20s(wall), 525.83s(cpu)
        *  Thank you very much for using Q-Chem.  Have a nice day.  *
