 Q-Chem 5.4, Q-Chem, Inc., Pleasanton, CA (2021)
 Q-Chem 5.4.0 for Intel X86 EM64T Linux

User input:
--------------------------------------------------------------
$molecule
0 1
C                  5.7363340000     -5.2387200000      1.1146010000
C                  6.6835370000     -5.1124060000      0.1025660000
C                  6.5612920000     -4.0831570000     -0.8442830000
C                  4.6669560000     -4.3486860000      1.1929840000
C                  4.5460430000     -3.3210990000      0.2468140000
C                  5.4929460000     -3.1939190000     -0.7658820000
C                  3.6637750000     -4.5044140000      2.2871460000
C                  2.5272620000     -3.5295130000      2.3410320000
C                  2.4354750000     -2.5517060000      1.4193660000
C                  3.4046760000     -2.3621340000      0.3213130000
O                  3.7569490000     -5.3927130000      3.1167180000
O                  3.2694770000     -1.4564600000     -0.4854780000
H                  5.8188960000     -6.0275960000      1.8506100000
H                  5.3848180000     -2.3953370000     -1.4881360000
Br                 8.1160290000     -6.3658610000      0.0603810000
Br                 7.8164230000     -3.8478010000     -2.2557310000
C                  1.5391380000     -3.7144060000      3.4512510000
H                  1.6217990000     -1.8336030000      1.4373490000
H                  2.0387090000     -3.6577200000      4.4222560000
H                  1.0858500000     -4.7081460000      3.3991180000
H                  0.7535880000     -2.9595350000      3.4076430000
$end
$rem
MAX_SCF_CYCLES=200
BASIS  =  6-311++G(d,p)
GUI  =  2
JOB_TYPE  =  SP
METHOD  =  B3LYP
SOLVENT_METHOD = COSMO
$end
$solvent
dielectric 37.219
opticaldielectric 1.43
$end

--------------------------------------------------------------

             Standard Nuclear Orientation (Angstroms)
    I     Atom           X                Y                Z
 ----------------------------------------------------------------
    1      C       0.3115951550    -1.2884421717    -0.0000398695
    2      C      -0.9525727994    -0.7059964895    -0.0000791859
    3      C      -1.0775869580     0.6922852531    -0.0000418967
    4      C       1.4541971732    -0.4907364981     0.0000553651
    5      C       1.3280174834     0.9056414393    -0.0000280599
    6      C       0.0639758158     1.4892096827    -0.0000393608
    7      C       2.7989710205    -1.1383452252     0.0002724497
    8      C       4.0055481393    -0.2499933305     0.0001068838
    9      C       3.8554503042     1.0884647984    -0.0001673420
   10      C       2.5451192359     1.7696703302    -0.0000019198
   11      O       2.9233315524    -2.3509788682    -0.0002903687
   12      O       2.4713083007     2.9878606714    -0.0003482701
   13      H       0.4218243589    -2.3648717317    -0.0000232258
   14      H      -0.0157699803     2.5684299214    -0.0000280949
   15      Br     -2.4664157642    -1.8606574001    -0.0000573638
   16      Br     -2.7716424949     1.5601029435     0.0001158864
   17      C       5.3388283818    -0.9322868467     0.0003105398
   18      H       4.7138159115     1.7527481580    -0.0003728199
   19      H       5.4364112756    -1.5830064585    -0.8730031279
   20      H       5.4375584628    -1.5800258463     0.8757496340
   21      H       6.1518225050    -0.2057481385    -0.0013471687
 ----------------------------------------------------------------

    9   -5721.6636520996      3.92e-06  Convergence criterion met
 Total energy in the final basis set =    -5721.6636520996
    4   -5721.6767737522      9.03e-06  Convergence criterion met
 Total energy in the final basis set =    -5721.6767737522

                    Orbital Energies (a.u.)
 --------------------------------------------------------------

 Alpha MOs
 -- Occupied --
********-482.8509 -62.5038 -62.5038 -56.3244 -56.3243 -56.3204 -56.3204
-56.3201 -56.3201 -19.1447 -19.1416 -10.2925 -10.2903 -10.2683 -10.2678
-10.2249 -10.2210 -10.2200 -10.2170 -10.2167 -10.2066 -10.1765  -8.7126
 -8.7126  -6.5444  -6.5444  -6.5312  -6.5312  -6.5304  -6.5304  -2.6552
 -2.6551  -2.6516  -2.6516  -2.6511  -2.6511  -2.6405  -2.6405  -2.6405
 -2.6404  -1.0784  -1.0741  -0.9208  -0.8660  -0.8332  -0.8323  -0.7770
 -0.7653  -0.7294  -0.6876  -0.6563  -0.6287  -0.5985  -0.5506  -0.5274
 -0.5178  -0.4790  -0.4733  -0.4695  -0.4674  -0.4668  -0.4346  -0.4337
 -0.4220  -0.4185  -0.4060  -0.4023  -0.3932  -0.3876  -0.3399  -0.3392
 -0.3268  -0.3002  -0.2993  -0.2973  -0.2832  -0.2806  -0.2692

          Ground-State Mulliken Net Atomic Charges

     Atom                 Charge (a.u.)
  ----------------------------------------
      1 C                     0.001627
      2 C                    -0.023646
      3 C                    -0.099245
      4 C                     0.292843
      5 C                     0.878826
      6 C                    -0.007833
      7 C                    -0.579054
      8 C                     0.889598
      9 C                    -0.494232
     10 C                    -0.870012
     11 O                    -0.271610
     12 O                    -0.305263
     13 H                     0.245080
     14 H                     0.237395
     15 Br                   -0.186829
     16 Br                   -0.194172
     17 C                    -0.326722
     18 H                     0.222791
     19 H                     0.201790
     20 H                     0.202022
     21 H                     0.186647
  ----------------------------------------
  Sum of atomic charges =     0.000000

                    Cartesian Multipole Moments
 -----------------------------------------------------------------
    Charge (ESU x 10^10)
                -0.0000
    Dipole Moment (Debye)
         X       2.0510      Y      -0.7383      Z       0.0019
       Tot       2.1799
    Quadrupole Moments (Debye-Ang)
        XX     -94.6015     XY      -1.2368     YY    -128.1235
        XZ       0.0077     YZ      -0.0024     ZZ    -111.2495

 Total job time:  76.12s(wall), 300.96s(cpu)
        *  Thank you very much for using Q-Chem.  Have a nice day.  *
