 Gaussian 16, Revision A.03,
 Gaussian 16:  ES64L-G16RevA.03 25-Dec-2016

 --------------------------------------
 #P UB3LYP/6-311++G(d,p) nosym opt freq
 --------------------------------------

 --------
 Oxidized
 --------
 Symbolic Z-matrix:
 Charge =  0 Multiplicity = 1

 SCF Done:  E(UB3LYP) =  -5721.66732936     A.U. after   16 cycles
 SCF Done:  E(UB3LYP) =  -5721.66732940     A.U. after    9 cycles
 SCF Done:  E(UB3LYP) =  -5721.66732938     A.U. after    9 cycles
 Optimization completed.
    -- Stationary point found.
 Normal termination of Gaussian 16 at Sun Jan  7 20:17:38 2024.

 ----------------------------------------------------------------------
 #P Geom=AllCheck Guess=TCheck SCRF=Check GenChk UB3LYP/6-311++G(d,p) F
 req
 ----------------------------------------------------------------------

 Structure from the checkpoint file:  "234.chk"
 --------
 Oxidized
 --------
 Charge =  0 Multiplicity = 1

                          Input orientation:
 ---------------------------------------------------------------------
 Center     Atomic      Atomic             Coordinates (Angstroms)
 Number     Number       Type             X           Y           Z
 ---------------------------------------------------------------------
      1          6           0        5.736334   -5.238720    1.114601
      2          6           0        6.683537   -5.112406    0.102566
      3          6           0        6.561292   -4.083157   -0.844283
      4          6           0        4.666956   -4.348686    1.192984
      5          6           0        4.546043   -3.321099    0.246814
      6          6           0        5.492946   -3.193919   -0.765882
      7          6           0        3.663775   -4.504414    2.287146
      8          6           0        2.527262   -3.529513    2.341032
      9          6           0        2.435475   -2.551706    1.419366
     10          6           0        3.404676   -2.362134    0.321313
     11          8           0        3.756949   -5.392713    3.116718
     12          8           0        3.269477   -1.456460   -0.485478
     13          1           0        5.818896   -6.027596    1.850610
     14          1           0        5.384818   -2.395337   -1.488136
     15         35           0        8.116029   -6.365861    0.060381
     16         35           0        7.816423   -3.847801   -2.255731
     17          6           0        1.539138   -3.714406    3.451251
     18          1           0        1.621799   -1.833603    1.437349
     19          1           0        2.038709   -3.657720    4.422256
     20          1           0        1.085850   -4.708146    3.399118
     21          1           0        0.753588   -2.959535    3.407643
 ---------------------------------------------------------------------

 SCF Done:  E(UB3LYP) =  -5721.66732938     A.U. after    1 cycles

 Alpha  occ. eigenvalues -- -482.85380-482.85376 -62.50656 -62.50652 -56.32706
 Alpha  occ. eigenvalues --  -56.32702 -56.32307 -56.32303 -56.32276 -56.32272
 Alpha  occ. eigenvalues --  -19.14664 -19.14143 -10.29530 -10.29145 -10.27383
 Alpha  occ. eigenvalues --  -10.27328 -10.23413 -10.22722 -10.22615 -10.22365
 Alpha  occ. eigenvalues --  -10.22309 -10.21735 -10.19308  -8.71627  -8.71624
 Alpha  occ. eigenvalues --   -6.54812  -6.54809  -6.53480  -6.53475  -6.53396
 Alpha  occ. eigenvalues --   -6.53394  -2.65898  -2.65895  -2.65530  -2.65525
 Alpha  occ. eigenvalues --   -2.65468  -2.65465  -2.64407  -2.64406  -2.64403
 Alpha  occ. eigenvalues --   -2.64403  -1.07986  -1.07312  -0.92675  -0.87330
 Alpha  occ. eigenvalues --   -0.83998  -0.83762  -0.78207  -0.77224  -0.73906
 Alpha  occ. eigenvalues --   -0.69474  -0.66317  -0.63640  -0.60500  -0.55666
 Alpha  occ. eigenvalues --   -0.53279  -0.52193  -0.48335  -0.47972  -0.47531
 Alpha  occ. eigenvalues --   -0.47462  -0.46463  -0.44293  -0.44029  -0.42736
 Alpha  occ. eigenvalues --   -0.42525  -0.41494  -0.41387  -0.39952  -0.39440
 Alpha  occ. eigenvalues --   -0.34345  -0.34270  -0.32880  -0.30847  -0.30143
 Alpha  occ. eigenvalues --   -0.29708  -0.28552  -0.28399  -0.27397
 Alpha virt. eigenvalues --   -0.13669  -0.07726  -0.05385  -0.05235  -0.01428
 Alpha virt. eigenvalues --   -0.00873  -0.00213   0.00923   0.01083   0.02110
 Alpha virt. eigenvalues --    0.02154   0.02451   0.03639   0.03670   0.04230

  Beta  occ. eigenvalues -- -482.85380-482.85376 -62.50656 -62.50652 -56.32706
  Beta  occ. eigenvalues --  -56.32702 -56.32307 -56.32303 -56.32276 -56.32272
  Beta  occ. eigenvalues --  -19.14664 -19.14143 -10.29530 -10.29145 -10.27383
  Beta  occ. eigenvalues --  -10.27328 -10.23413 -10.22722 -10.22615 -10.22365
  Beta  occ. eigenvalues --  -10.22309 -10.21735 -10.19308  -8.71627  -8.71624
  Beta  occ. eigenvalues --   -6.54812  -6.54809  -6.53480  -6.53475  -6.53396
  Beta  occ. eigenvalues --   -6.53394  -2.65898  -2.65895  -2.65530  -2.65525
  Beta  occ. eigenvalues --   -2.65468  -2.65465  -2.64407  -2.64406  -2.64403
  Beta  occ. eigenvalues --   -2.64403  -1.07986  -1.07312  -0.92675  -0.87330
  Beta  occ. eigenvalues --   -0.83998  -0.83762  -0.78207  -0.77224  -0.73906
  Beta  occ. eigenvalues --   -0.69474  -0.66317  -0.63640  -0.60500  -0.55666
  Beta  occ. eigenvalues --   -0.53279  -0.52193  -0.48335  -0.47972  -0.47531
  Beta  occ. eigenvalues --   -0.47462  -0.46463  -0.44293  -0.44029  -0.42736
  Beta  occ. eigenvalues --   -0.42525  -0.41494  -0.41387  -0.39952  -0.39440
  Beta  occ. eigenvalues --   -0.34345  -0.34270  -0.32880  -0.30847  -0.30143
  Beta  occ. eigenvalues --   -0.29708  -0.28552  -0.28399  -0.27397
  Beta virt. eigenvalues --   -0.13669  -0.07726  -0.05385  -0.05235  -0.01428
  Beta virt. eigenvalues --   -0.00873  -0.00213   0.00923   0.01083   0.02110
  Beta virt. eigenvalues --    0.02154   0.02451   0.03639   0.03670   0.04230

 Mulliken charges and spin densities:
               1          2
     1  C   -0.036334   0.000000
     2  C    0.085536  -0.000000
     3  C    0.030045   0.000000
     4  C    0.264740   0.000000
     5  C    0.745079  -0.000000
     6  C   -0.112272  -0.000000
     7  C   -0.718862  -0.000000
     8  C    0.815555  -0.000000
     9  C   -0.359201  -0.000000
    10  C   -1.042682   0.000000
    11  O   -0.200700  -0.000000
    12  O   -0.216961  -0.000000
    13  H    0.246659  -0.000000
    14  H    0.242302   0.000000
    15  Br  -0.104224  -0.000000
    16  Br  -0.109526  -0.000000
    17  C   -0.257231  -0.000000
    18  H    0.187317   0.000000
    19  H    0.189761  -0.000000
    20  H    0.189837  -0.000000
    21  H    0.161162  -0.000000
 Sum of Mulliken charges =  -0.00000  -0.00000

 Dipole moment (field-independent basis, Debye):
    X=             -1.1458    Y=             -0.0490    Z=              1.1146  Tot=              1.5992
 Quadrupole moment (field-independent basis, Debye-Ang):
   XX=           -115.8115   YY=           -118.0287   ZZ=           -111.9265
   XY=              4.1704   XZ=             -1.3922   YZ=              2.9258

  Exact polarizability: 201.590 -44.079 162.982 -58.220 -33.873 179.377
 Approx polarizability: 286.612 -64.567 295.032 -64.562 -93.634 302.398

                      1                      2                      3
                      A                      A                      A
 Frequencies --     43.3135                52.4732               105.8765
 Red. masses --     11.5565                 6.0950                11.5665
 Frc consts  --      0.0128                 0.0099                 0.0764
 IR Inten    --      0.6276                 3.6001                 4.4220

                      4                      5                      6
                      A                      A                      A
 Frequencies --    126.4387               132.0730               133.7482
 Red. masses --     47.1975                10.8341                 1.2386
 Frc consts  --      0.4446                 0.1113                 0.0131
 IR Inten    --      0.0702                 0.1045                 0.0553

                      7                      8                      9
                      A                      A                      A
 Frequencies --    176.4978               185.6602               224.9825
 Red. masses --      2.6994                 4.6779                11.4337
 Frc consts  --      0.0495                 0.0950                 0.3410
 IR Inten    --      1.0118                 0.0818                 0.1937

                     10                     11                     12
                      A                      A                      A
 Frequencies --    240.8514               288.4968               299.3658
 Red. masses --     17.0863                 7.1419                 3.5556
 Frc consts  --      0.5840                 0.3502                 0.1877
 IR Inten    --      0.0708                 0.3337                 0.4965

                     13                     14                     15
                      A                      A                      A
 Frequencies --    377.7795               411.3256               415.8002
 Red. masses --      4.3353                 8.0040                 7.9189
 Frc consts  --      0.3645                 0.7979                 0.8066
 IR Inten    --      1.9510                31.2683                 4.4633

                     16                     17                     18
                      A                      A                      A
 Frequencies --    440.3814               458.9863               491.7672
 Red. masses --      3.2802                11.0213                 8.1909
 Frc consts  --      0.3748                 1.3680                 1.1671
 IR Inten    --      3.4001                13.2556                 6.8430

                     19                     20                     21
                      A                      A                      A
 Frequencies --    553.1020               579.2613               661.9240
 Red. masses --      8.6717                 7.2067                 4.1213
 Frc consts  --      1.5630                 1.4247                 1.0639
 IR Inten    --      0.0062                 6.9568                 0.0692

                     22                     23                     24
                      A                      A                      A
 Frequencies --    662.6494               685.5150               703.7376
 Red. masses --      5.4639                 6.8949                 3.6578
 Frc consts  --      1.4136                 1.9090                 1.0673
 IR Inten    --      0.2335                 4.3694                 8.4040

                     25                     26                     27
                      A                      A                      A
 Frequencies --    738.6491               785.8140               853.4867
 Red. masses --      6.5175                 6.9690                 6.1798
 Frc consts  --      2.0951                 2.5355                 2.6523
 IR Inten    --      5.8965                 0.4659                50.1811

                     28                     29                     30
                      A                      A                      A
 Frequencies --    910.4944               919.1262               947.6784
 Red. masses --      1.4080                 1.3253                 1.4774
 Frc consts  --      0.6877                 0.6596                 0.7817
 IR Inten    --     36.4356                 0.2005                 5.8476

                     31                     32                     33
                      A                      A                      A
 Frequencies --    968.4896              1031.0253              1058.1190
 Red. masses --      4.4911                 1.9082                 1.5338
 Frc consts  --      2.4820                 1.1951                 1.0118
 IR Inten    --     55.7806                 0.3190                 3.0556

                     34                     35                     36
                      A                      A                      A
 Frequencies --   1112.4046              1116.1438              1156.9084
 Red. masses --      2.2191                 3.0535                 4.6612
 Frc consts  --      1.6179                 2.2413                 3.6758
 IR Inten    --     13.9543                18.6672                 5.7029

                     37                     38                     39
                      A                      A                      A
 Frequencies --   1236.8912              1258.8156              1286.0944
 Red. masses --      1.9584                 1.3938                 5.7401
 Frc consts  --      1.7653                 1.3013                 5.5939
 IR Inten    --     16.4103                10.7665               456.9362

                     40                     41                     42
                      A                      A                      A
 Frequencies --   1319.9803              1350.8283              1393.4891
 Red. masses --     10.6157                 2.5477                 5.6116
 Frc consts  --     10.8977                 2.7390                 6.4201
 IR Inten    --     11.7507                95.0642                15.9469

                     43                     44                     45
                      A                      A                      A
 Frequencies --   1416.6136              1466.8253              1476.5504
 Red. masses --      1.3254                 1.0432                 1.7328
 Frc consts  --      1.5671                 1.3224                 2.2259
 IR Inten    --     17.0684                 9.4333                 9.1714

                     46                     47                     48
                      A                      A                      A
 Frequencies --   1480.1934              1581.3027              1599.4947
 Red. masses --      1.4686                10.2994                 6.8625
 Frc consts  --      1.8958                15.1738                10.3443
 IR Inten    --      4.0579                14.1312               142.6338

                     49                     50                     51
                      A                      A                      A
 Frequencies --   1673.2921              1720.1127              1725.6684
 Red. masses --      7.8417                11.0455                12.2350
 Frc consts  --     12.9361                19.2553                21.4669
 IR Inten    --     74.2851                47.0544               367.3982

                     52                     53                     54
                      A                      A                      A
 Frequencies --   3037.5547              3088.5211              3124.2797
 Red. masses --      1.0358                 1.0987                 1.1033
 Frc consts  --      5.6310                 6.1747                 6.3452
 IR Inten    --      7.3528                 4.8779                12.0723

                     55                     56                     57
                      A                      A                      A
 Frequencies --   3171.6873              3208.6716              3210.3562
 Red. masses --      1.0917                 1.0912                 1.0916
 Frc consts  --      6.4704                 6.6190                 6.6283
 IR Inten    --      6.1457                 6.5139                 3.1661

 - Thermochemistry -
 -------------------
 Temperature   298.150 Kelvin.  Pressure   1.00000 Atm.
 Atom     1 has atomic number  6 and mass  12.00000

 Molecular mass:   327.87345 amu.
 Principal axes and moments of inertia in atomic units:
                           1         2         3
     Eigenvalues --  3099.358308518.85608**********
           X            0.82482  -0.15384   0.54407
           Y           -0.25613   0.75620   0.60213
           Z           -0.50405  -0.63600   0.58432
 This molecule is an asymmetric top.
 Rotational symmetry number  1.
 Warning -- assumption of classical behavior for rotation
           may cause significant error
 Rotational temperatures (Kelvin)      0.02795     0.01017     0.00746
 Rotational constants (GHZ):           0.58230     0.21185     0.15548
 Zero-point vibrational energy     364128.7 (Joules/Mol)
                                   87.02885 (Kcal/Mol)
 Warning -- explicit consideration of  20 degrees of freedom as
           vibrations may cause significant error
 Vibrational temperatures:     62.32    75.50   152.33   181.92   190.02
          (Kelvin)            192.43   253.94   267.12   323.70   346.53
                              415.08   430.72   543.54   591.81   598.24
                              633.61   660.38   707.54   795.79   833.43
                              952.36   953.40   986.30  1012.52  1062.75
                             1130.61  1227.98  1310.00  1322.42  1363.50
                             1393.44  1483.42  1522.40  1600.50  1605.88
                             1664.53  1779.61  1811.15  1850.40  1899.16
                             1943.54  2004.92  2038.19  2110.43  2124.43
                             2129.67  2275.14  2301.32  2407.49  2474.86
                             2482.85  4370.36  4443.69  4495.14  4563.35
                             4616.56  4618.99

 Zero-point correction=                           0.138689 (Hartree/Particle)
 Thermal correction to Energy=                    0.152212
 Thermal correction to Enthalpy=                  0.153156
 Thermal correction to Gibbs Free Energy=         0.096243
 Sum of electronic and zero-point Energies=          -5721.528640
 Sum of electronic and thermal Energies=             -5721.515118
 Sum of electronic and thermal Enthalpies=           -5721.514174
 Sum of electronic and thermal Free Energies=        -5721.571087

                     E (Thermal)             CV                S
                      KCal/Mol        Cal/Mol-Kelvin    Cal/Mol-Kelvin
 Total                   95.514             49.081            119.783
 Electronic               0.000              0.000              0.000
 Translational            0.889              2.981             43.258
 Rotational               0.889              2.981             34.082
 Vibrational             93.737             43.119             42.444
 Vibration     1          0.595              1.980              5.101
 Vibration     2          0.596              1.977              4.722
 Vibration     3          0.605              1.945              3.343
 Vibration     4          0.611              1.927              3.000
 Vibration     5          0.612              1.921              2.916
 Vibration     6          0.613              1.920              2.891
 Vibration     7          0.628              1.871              2.365
 Vibration     8          0.632              1.859              2.271
 Vibration     9          0.650              1.803              1.919
 Vibration    10          0.658              1.778              1.797
 Vibration    11          0.685              1.695              1.483
 Vibration    12          0.692              1.675              1.420
 Vibration    13          0.748              1.517              1.048
 Vibration    14          0.775              1.446              0.922
 Vibration    15          0.779              1.436              0.906
 Vibration    16          0.800              1.382              0.825
 Vibration    17          0.817              1.341              0.769
 Vibration    18          0.848              1.268              0.679
 Vibration    19          0.908              1.133              0.538
 Vibration    20          0.936              1.076              0.487

                           ! Non-Optimized Parameters !
 Normal termination of Gaussian 16 at Sun Jan  7 20:37:07 2024.
