 Q-Chem 5.4, Q-Chem, Inc., Pleasanton, CA (2021)
 Q-Chem 5.4.0 for Intel X86 EM64T Linux

User input:
--------------------------------------------------------------
$molecule
0 1
O                  4.5895020000      1.5164340000     -1.4001910000
C                  3.5204580000      0.9515580000     -0.7920610000
C                  2.2368570000      1.1940650000     -1.2887130000
C                  1.1348500000      0.6190520000     -0.6714180000
C                 -0.2180990000      0.8847750000     -1.2080500000
O                 -0.3826790000      1.6131440000     -2.2009920000
C                 -1.3585100000      0.2636320000     -0.5344070000
C                 -2.6584750000      0.4946560000     -1.0183600000
O                 -2.9251800000      1.2691740000     -2.0862630000
C                 -3.7771320000     -0.0860270000     -0.3964660000
O                 -5.0192430000      0.1441770000     -0.8715710000
C                 -3.5933560000     -0.9065370000      0.7213390000
O                 -4.7063950000     -1.4413260000      1.2827130000
C                 -2.3043940000     -1.1413700000      1.2092290000
C                 -1.1971760000     -0.5691960000      0.5969290000
C                  0.1505400000     -0.8356360000      1.1345360000
O                  0.3136940000     -1.5654480000      2.1297050000
C                  1.2910270000     -0.2160850000      0.4626330000
C                  2.5885990000     -0.4521850000      0.9525960000
O                  2.8564580000     -1.2268000000      2.0206550000
C                  3.6930480000      0.1323450000      0.3234540000
O                  4.9619470000     -0.0759180000      0.7725130000
H                  5.3945860000      1.2493720000     -0.9356590000
H                  2.1051960000      1.8300050000     -2.1540130000
H                 -2.0515710000      1.6064030000     -2.4172710000
H                 -4.9402040000      0.7286540000     -1.6398490000
H                 -4.4606680000     -1.9851380000      2.0392130000
H                 -2.1513030000     -1.7758850000      2.0754000000
H                  1.9804640000     -1.5616450000      2.3496160000
H                  4.9271600000     -0.6582500000      1.5447520000
$end
$rem
MAX_SCF_CYCLES=200
BASIS  =  6-311++G(d,p)
GUI  =  2
JOB_TYPE  =  SP
METHOD  =  B3LYP
SOLVENT_METHOD = COSMO
$end
$solvent
dielectric 37.219
opticaldielectric 1.43
$end

--------------------------------------------------------------

             Standard Nuclear Orientation (Angstroms)
    I     Atom           X                Y                Z
 ----------------------------------------------------------------
    1      O       4.6691134297    -1.9090057986     0.0003528368
    2      C       3.5820493276    -1.1027467204     0.0002981378
    3      C       2.3040824541    -1.6683482083     0.0002067974
    4      C       1.1837192846    -0.8492640563     0.0000817116
    5      C      -0.1629803394    -1.4620067834    -0.0002114981
    6      O      -0.3061928095    -2.6961185988    -0.0001250846
    7      C      -1.3231575321    -0.5708616666    -0.0003827845
    8      C      -2.6178616151    -1.1197085611    -0.0002421707
    9      O      -2.8619439198    -2.4432833873    -0.0003643675
   10      C      -3.7550870269    -0.2938413486     0.0000535479
   11      O      -4.9918938692    -0.8340886806     0.0002374042
   12      C      -3.5954017125     1.0957624975     0.0002718636
   13      O      -4.7256475011     1.8457892817     0.0006440040
   14      C      -2.3118147150     1.6498478020    -0.0000783445
   15      C      -1.1863008965     0.8365553034    -0.0002566272
   16      C       0.1551631636     1.4504153297    -0.0003987519
   17      O       0.2969222561     2.6871490658    -0.0007826198
   18      C       1.3153558435     0.5616181306     0.0000068057
   19      C       2.6074989276     1.1182744729     0.0001233590
   20      O       2.8527293100     2.4420527357     0.0003229646
   21      C       3.7306062200     0.2840487545    -0.0000529170
   22      O       4.9948683547     0.7907768708     0.0000232951
   23      H       5.4672537364    -1.3628882594     0.0005012517
   24      H       2.1910924100    -2.7443275937     0.0002757517
   25      H      -1.9772854385    -2.8947939007    -0.0004482121
   26      H      -4.8954551058    -1.7978371781     0.0003414412
   27      H      -4.4957756229     2.7815049208     0.0014577162
   28      H      -2.1773309921     2.7260506030    -0.0000696951
   29      H       1.9658034524     2.8904542393    -0.0004620708
   30      H       4.9428272525     1.7571955835    -0.0005784189
 ----------------------------------------------------------------

    9   -1140.4715405678      6.58e-06  Convergence criterion met
 Total energy in the final basis set =    -1140.4715405678
    5   -1140.4994205672      2.42e-06  Convergence criterion met
 Total energy in the final basis set =    -1140.4994205672

                    Orbital Energies (a.u.)
 --------------------------------------------------------------

 Alpha MOs
 -- Occupied --
-19.1818 -19.1781 -19.1772 -19.1771 -19.1720 -19.1717 -19.1387 -19.1380
-10.2898 -10.2894 -10.2710 -10.2697 -10.2673 -10.2668 -10.2609 -10.2606
-10.2126 -10.2114 -10.2084 -10.2080 -10.2001 -10.1984  -1.1118  -1.1104
 -1.0940  -1.0924  -1.0784  -1.0769  -1.0605  -1.0594  -0.8970  -0.8799
 -0.8138  -0.7822  -0.7734  -0.7716  -0.7035  -0.6926  -0.6715  -0.6639
 -0.6283  -0.6014  -0.5896  -0.5815  -0.5683  -0.5623  -0.5391  -0.5268
 -0.5208  -0.5080  -0.4885  -0.4828  -0.4780  -0.4725  -0.4669  -0.4526
 -0.4466  -0.4433  -0.4390  -0.4345  -0.4168  -0.4158  -0.4082  -0.4039
 -0.4024  -0.3956  -0.3944  -0.3904  -0.3859  -0.3854  -0.3435  -0.3411
 -0.3013  -0.2875  -0.2624  -0.2558  -0.2430  -0.2384

          Ground-State Mulliken Net Atomic Charges

     Atom                 Charge (a.u.)
  ----------------------------------------
      1 O                    -0.274401
      2 C                    -0.448137
      3 C                    -0.245510
      4 C                     0.670524
      5 C                    -0.655895
      6 O                    -0.352155
      7 C                     0.699779
      8 C                    -0.029025
      9 O                    -0.402694
     10 C                    -0.221658
     11 O                    -0.303470
     12 C                    -0.463334
     13 O                    -0.287064
     14 C                     0.079964
     15 C                     0.736173
     16 C                    -0.527832
     17 O                    -0.362384
     18 C                     0.609382
     19 C                    -0.038735
     20 O                    -0.394077
     21 C                    -0.024799
     22 O                    -0.324954
     23 H                     0.332920
     24 H                     0.224070
     25 H                     0.390818
     26 H                     0.343950
     27 H                     0.338376
     28 H                     0.203848
     29 H                     0.380889
     30 H                     0.345431
  ----------------------------------------
  Sum of atomic charges =     0.000000

                    Cartesian Multipole Moments
 -----------------------------------------------------------------
    Charge (ESU x 10^10)
                 0.0000
    Dipole Moment (Debye)
         X       2.1233      Y       3.0910      Z       0.0019
       Tot       3.7500
    Quadrupole Moments (Debye-Ang)
        XX    -120.8455     XY      -0.1433     YY    -124.9758
        XZ      -0.0153     YZ       0.0032     ZZ    -126.1638

 Total job time:  84.87s(wall), 613.88s(cpu)
        *  Thank you very much for using Q-Chem.  Have a nice day.  *
