 Gaussian 16, Revision A.03,
 Gaussian 16:  ES64L-G16RevA.03 25-Dec-2016

 ----------------------------------------------------------------
 #P UB3LYP/6-311++G(d,p) SCRF=(PCM,Solvent=n,n-DiMethylFormamide)
 ----------------------------------------------------------------

 ------------------
 Radical PCM in DMF
 ------------------
 Symbolic Z-matrix:
 Charge = -1 Multiplicity = 2

                         Standard orientation:
 ---------------------------------------------------------------------
 Center     Atomic      Atomic             Coordinates (Angstroms)
 Number     Number       Type             X           Y           Z
 ---------------------------------------------------------------------
      1          6           0       -0.255244   -1.099952   -0.649676
      2          6           0       -1.639897   -0.963653   -0.218644
      3          6           0       -2.182897    0.243085    0.142147
      4          6           0       -1.422380    1.492999    0.125191
      5          6           0       -0.041673    1.320280   -0.313539
      6          6           0        0.532862    0.138021   -0.690667
      7          8           0        0.251517   -2.198967   -0.970721
      8          8           0       -1.911043    2.589178    0.453268
      9         35           0       -2.645195   -2.595833   -0.189108
     10         35           0       -4.002539    0.424390    0.712536
     11         35           0        0.984603    2.964742   -0.327903
     12          6           0        1.964711   -0.015440   -1.136655
     13          6           0        2.917554   -0.372613    0.019996
     14          6           0        4.364685   -0.568617   -0.444300
     15          6           0        5.329361   -0.928763    0.691142
     16          6           0        6.778504   -1.128343    0.232462
     17          6           0        7.734662   -1.488652    1.374113
     18          1           0        2.304725    0.906116   -1.614782
     19          1           0        1.998163   -0.822523   -1.873015
     20          1           0        2.557637   -1.289980    0.497107
     21          1           0        2.879130    0.420099    0.776047
     22          1           0        4.715186    0.347766   -0.938334
     23          1           0        4.393818   -1.358025   -1.206866
     24          1           0        4.978521   -1.844132    1.185452
     25          1           0        5.298887   -0.140937    1.455498
     26          1           0        7.129442   -0.213697   -0.261717
     27          1           0        6.809253   -1.915927   -0.530721
     28          1           0        7.751309   -0.703580    2.137315
     29          1           0        8.759615   -1.624750    1.014701
     30          1           0        7.428604   -2.417734    1.866129
 ---------------------------------------------------------------------

 SCF Done:  E(UB3LYP) =  -8338.30108252     A.U. after   19 cycles

 The electronic state is 2-A.
 Alpha  occ. eigenvalues -- -482.83304-482.83243-482.82703 -62.48577 -62.48516
 Alpha  occ. eigenvalues --  -62.47981 -56.30614 -56.30552 -56.30242 -56.30200
 Alpha  occ. eigenvalues --  -56.30182 -56.30139 -56.30006 -56.29647 -56.29613
 Alpha  occ. eigenvalues --  -19.09533 -19.09430 -10.25154 -10.24546 -10.23689
 Alpha  occ. eigenvalues --  -10.23532 -10.22799 -10.19465 -10.16713 -10.16220
 Alpha  occ. eigenvalues --  -10.16084 -10.15952 -10.15861 -10.15444  -8.69544
 Alpha  occ. eigenvalues --   -8.69483  -8.68945  -6.52684  -6.52619  -6.52046
 Alpha  occ. eigenvalues --   -6.51439  -6.51381  -6.51321  -6.51261  -6.50850
 Alpha  occ. eigenvalues --   -6.50754  -2.63780  -2.63715  -2.63444  -2.63381
 Alpha  occ. eigenvalues --   -2.63354  -2.63291  -2.63146  -2.62821  -2.62749
 Alpha  occ. eigenvalues --   -2.62361  -2.62360  -2.62304  -2.62303  -2.61796
 Alpha  occ. eigenvalues --   -2.61795  -1.02832  -1.02276  -0.87146  -0.83871
 Alpha  occ. eigenvalues --   -0.80456  -0.79723  -0.77989  -0.76781  -0.73350
 Alpha  occ. eigenvalues --   -0.69663  -0.68486  -0.64187  -0.59239  -0.57884
 Alpha  occ. eigenvalues --   -0.57424  -0.56617  -0.52144  -0.47652  -0.46808
 Alpha  occ. eigenvalues --   -0.44535  -0.44443  -0.44026  -0.42956  -0.42132
 Alpha  occ. eigenvalues --   -0.41369  -0.40751  -0.40162  -0.39628  -0.38764
 Alpha  occ. eigenvalues --   -0.38362  -0.37314  -0.35256  -0.34972  -0.34390
 Alpha  occ. eigenvalues --   -0.33152  -0.32577  -0.32335  -0.31948  -0.31353
 Alpha  occ. eigenvalues --   -0.30798  -0.30707  -0.28913  -0.28218  -0.27581
 Alpha  occ. eigenvalues --   -0.26516  -0.25239  -0.24522  -0.17696
 Alpha virt. eigenvalues --   -0.04155  -0.02748  -0.01416  -0.00166   0.00377
 Alpha virt. eigenvalues --    0.00974   0.01149   0.01255   0.01537   0.02047
 Alpha virt. eigenvalues --    0.02671   0.02963   0.03766   0.04221   0.04435

  Beta  occ. eigenvalues -- -482.83303-482.83242-482.82703 -62.48576 -62.48515
  Beta  occ. eigenvalues --  -62.47981 -56.30615 -56.30553 -56.30235 -56.30199
  Beta  occ. eigenvalues --  -56.30175 -56.30139 -56.30007 -56.29644 -56.29613
  Beta  occ. eigenvalues --  -19.08882 -19.08734 -10.25026 -10.24417 -10.23543
  Beta  occ. eigenvalues --  -10.23391 -10.22729 -10.19345 -10.16721 -10.16209
  Beta  occ. eigenvalues --  -10.16084 -10.15951 -10.15861 -10.15444  -8.69542
  Beta  occ. eigenvalues --   -8.69481  -8.68945  -6.52688  -6.52622  -6.52049
  Beta  occ. eigenvalues --   -6.51427  -6.51369  -6.51320  -6.51261  -6.50844
  Beta  occ. eigenvalues --   -6.50754  -2.63781  -2.63716  -2.63438  -2.63376
  Beta  occ. eigenvalues --   -2.63356  -2.63293  -2.63147  -2.62819  -2.62751
  Beta  occ. eigenvalues --   -2.62355  -2.62354  -2.62298  -2.62297  -2.61794
  Beta  occ. eigenvalues --   -2.61793  -1.01718  -1.01072  -0.86649  -0.83719
  Beta  occ. eigenvalues --   -0.80430  -0.79569  -0.77870  -0.76640  -0.73197
  Beta  occ. eigenvalues --   -0.69521  -0.67700  -0.64031  -0.59117  -0.57471
  Beta  occ. eigenvalues --   -0.57409  -0.56344  -0.51939  -0.47636  -0.46409
  Beta  occ. eigenvalues --   -0.44442  -0.43704  -0.43273  -0.42615  -0.41595
  Beta  occ. eigenvalues --   -0.41163  -0.40514  -0.39619  -0.38755  -0.38396
  Beta  occ. eigenvalues --   -0.37336  -0.37071  -0.35181  -0.34704  -0.33934
  Beta  occ. eigenvalues --   -0.32909  -0.32526  -0.32020  -0.31655  -0.30842
  Beta  occ. eigenvalues --   -0.30739  -0.30228  -0.28881  -0.28121  -0.25919
  Beta  occ. eigenvalues --   -0.25601  -0.24712  -0.23958
  Beta virt. eigenvalues --   -0.10707  -0.04018  -0.01375  -0.01209  -0.00137
  Beta virt. eigenvalues --    0.00409   0.01033   0.01281   0.01544   0.02047
  Beta virt. eigenvalues --    0.02684   0.02992   0.03579   0.03817   0.04237

 Mulliken charges and spin densities:
               1          2
     1  C   -0.995529   0.093842
     2  C   -0.249259   0.087069
     3  C    0.507906   0.096977
     4  C   -0.669183   0.079450
     5  C    0.243433   0.027484
     6  C    1.953992   0.091991
     7  O   -0.369295   0.256077
     8  O   -0.345433   0.237486
     9  Br  -0.111303   0.006443
    10  Br  -0.104108   0.006658
    11  Br  -0.090615   0.003491
    12  C   -0.850387   0.012165
    13  C   -0.502364  -0.001662
    14  C   -0.155054   0.004830
    15  C   -0.255307  -0.002556
    16  C   -0.192810   0.000079
    17  C   -0.678810   0.000031
    18  H    0.171369   0.000815
    19  H    0.210932   0.001834
    20  H    0.191133  -0.001104
    21  H    0.116164  -0.001363
    22  H    0.121267  -0.000171
    23  H    0.118733   0.000067
    24  H    0.119904  -0.000072
    25  H    0.125659   0.000155
    26  H    0.132350  -0.000011
    27  H    0.131977  -0.000005
    28  H    0.140572  -0.000003
    29  H    0.143107  -0.000005
    30  H    0.140959   0.000004
 Sum of Mulliken charges =  -1.00000   1.00000

 Dipole moment (field-independent basis, Debye):
    X=              6.6308    Y=             -1.6523    Z=              0.4111  Tot=              6.8459
 Quadrupole moment (field-independent basis, Debye-Ang):
   XX=           -161.1676   YY=           -178.5624   ZZ=           -147.0694
   XY=              9.1407   XZ=              2.4450   YZ=             -7.2176

 Normal termination of Gaussian 16 at Sun Jan 21 07:18:54 2024.
