 Q-Chem 5.4, Q-Chem, Inc., Pleasanton, CA (2021)
 Q-Chem 5.4.0 for Intel X86 EM64T Linux

User input:
--------------------------------------------------------------
$molecule
-1 2
C                  7.1058690000     -1.8445370000     -0.6053590000
C                  7.6298100000     -0.8061910000     -1.4459670000
C                  6.7780910000      0.2786980000     -1.8640640000
C                  5.4785640000      0.2900140000     -1.4440280000
C                  4.9163830000     -0.7149880000     -0.6125490000
C                  5.7160980000     -1.8065340000     -0.1729180000
C                  5.1273230000     -2.8362910000      0.6833530000
C                  3.7051320000     -2.6734380000      1.0457410000
C                  2.9250330000     -1.5806170000      0.5987380000
C                  3.5083500000     -0.5470370000     -0.2579910000
C                  3.1001620000     -3.6454530000      1.8699190000
C                  1.7720540000     -3.5422600000      2.2396990000
C                  0.9980570000     -2.4523770000      1.7925840000
C                  1.5718880000     -1.4894670000      0.9845240000
O                  5.7510210000     -3.8368040000      1.1224140000
O                  2.8277280000      0.4280270000     -0.6618260000
H                  4.8092850000      1.0906790000     -1.7392240000
H                  3.7174430000     -4.4725640000      2.1994410000
H                  1.0056360000     -0.6388900000      0.6231330000
C                  7.3024710000      1.3842070000     -2.7477910000
H                 -0.0452790000     -2.3711920000      2.0829580000
C                  8.9839990000     -0.8604640000     -1.8564920000
C                  8.0039380000     -2.8811420000     -0.2336030000
C                  9.3193330000     -2.8966600000     -0.6561420000
C                  9.8390360000     -1.8816040000     -1.4802720000
C                 11.2798870000     -1.9141680000     -1.9320490000
H                  1.3241770000     -4.3008760000      2.8749310000
H                  8.1374390000      1.9220610000     -2.2820890000
H                  6.5117060000      2.1087680000     -2.9532590000
H                  7.6670540000      1.0038060000     -3.7099470000
H                  9.3675900000     -0.0696730000     -2.4918790000
H                  7.6210830000     -3.6676140000      0.3983340000
H                  9.9645270000     -3.7138100000     -0.3424380000
H                 11.5159480000     -1.0571120000     -2.5684060000
H                 11.5008530000     -2.8240920000     -2.5018740000
H                 11.9679780000     -1.8959480000     -1.0789390000
$end
$rem
MAX_SCF_CYCLES=200
BASIS  =  6-311++G(d,p)
GUI  =  2
JOB_TYPE  =  SP
METHOD  =  B3LYP
SOLVENT_METHOD = PCM
$end
$pcm
theory = CPCM
$end
$solvent
dielectric 37.219
opticaldielectric 1.43
$end

--------------------------------------------------------------

             Standard Nuclear Orientation (Angstroms)
    I     Atom           X                Y                Z
 ----------------------------------------------------------------
    1      C       7.1058690000    -1.8445370000    -0.6053590000
    2      C       7.6298100000    -0.8061910000    -1.4459670000
    3      C       6.7780910000     0.2786980000    -1.8640640000
    4      C       5.4785640000     0.2900140000    -1.4440280000
    5      C       4.9163830000    -0.7149880000    -0.6125490000
    6      C       5.7160980000    -1.8065340000    -0.1729180000
    7      C       5.1273230000    -2.8362910000     0.6833530000
    8      C       3.7051320000    -2.6734380000     1.0457410000
    9      C       2.9250330000    -1.5806170000     0.5987380000
   10      C       3.5083500000    -0.5470370000    -0.2579910000
   11      C       3.1001620000    -3.6454530000     1.8699190000
   12      C       1.7720540000    -3.5422600000     2.2396990000
   13      C       0.9980570000    -2.4523770000     1.7925840000
   14      C       1.5718880000    -1.4894670000     0.9845240000
   15      O       5.7510210000    -3.8368040000     1.1224140000
   16      O       2.8277280000     0.4280270000    -0.6618260000
   17      H       4.8092850000     1.0906790000    -1.7392240000
   18      H       3.7174430000    -4.4725640000     2.1994410000
   19      H       1.0056360000    -0.6388900000     0.6231330000
   20      C       7.3024710000     1.3842070000    -2.7477910000
   21      H      -0.0452790000    -2.3711920000     2.0829580000
   22      C       8.9839990000    -0.8604640000    -1.8564920000
   23      C       8.0039380000    -2.8811420000    -0.2336030000
   24      C       9.3193330000    -2.8966600000    -0.6561420000
   25      C       9.8390360000    -1.8816040000    -1.4802720000
   26      C      11.2798870000    -1.9141680000    -1.9320490000
   27      H       1.3241770000    -4.3008760000     2.8749310000
   28      H       8.1374390000     1.9220610000    -2.2820890000
   29      H       6.5117060000     2.1087680000    -2.9532590000
   30      H       7.6670540000     1.0038060000    -3.7099470000
   31      H       9.3675900000    -0.0696730000    -2.4918790000
   32      H       7.6210830000    -3.6676140000     0.3983340000
   33      H       9.9645270000    -3.7138100000    -0.3424380000
   34      H      11.5159480000    -1.0571120000    -2.5684060000
   35      H      11.5008530000    -2.8240920000    -2.5018740000
   36      H      11.9679780000    -1.8959480000    -1.0789390000
 ----------------------------------------------------------------

    8    -921.4287484436      5.43e-06  Convergence criterion met
 Total energy in the final basis set =     -921.4287484436

                    Orbital Energies (a.u.)
 --------------------------------------------------------------

 Alpha MOs
 -- Occupied --
-19.0779 -19.0750 -10.2275 -10.2253 -10.1821 -10.1793 -10.1785 -10.1785
-10.1762 -10.1726 -10.1723 -10.1718 -10.1716 -10.1713 -10.1695 -10.1685
-10.1650 -10.1645 -10.1613 -10.1607 -10.1598 -10.1598  -1.0062  -1.0034
 -0.8726  -0.8571  -0.8284  -0.7947  -0.7708  -0.7497  -0.7488  -0.7291
 -0.7019  -0.6823  -0.6576  -0.6234  -0.6148  -0.5995  -0.5813  -0.5565
 -0.5326  -0.5138  -0.4952  -0.4828  -0.4699  -0.4570  -0.4421  -0.4338
 -0.4293  -0.4287  -0.4244  -0.4174  -0.4162  -0.4114  -0.4081  -0.4012
 -0.3881  -0.3834  -0.3818  -0.3732  -0.3690  -0.3652  -0.3507  -0.3486
 -0.3391  -0.3336  -0.3263  -0.3116  -0.2751  -0.2609  -0.2563  -0.2465
 -0.2432  -0.2335  -0.2184  -0.1450

 Beta MOs
 -- Occupied --
-19.0727 -19.0701 -10.2256 -10.2235 -10.1821 -10.1793 -10.1782 -10.1776
-10.1752 -10.1720 -10.1719 -10.1714 -10.1711 -10.1701 -10.1694 -10.1684
-10.1648 -10.1644 -10.1616 -10.1608 -10.1599 -10.1597  -0.9971  -0.9944
 -0.8713  -0.8554  -0.8269  -0.7918  -0.7693  -0.7479  -0.7474  -0.7284
 -0.6994  -0.6811  -0.6518  -0.6225  -0.6132  -0.5979  -0.5805  -0.5543
 -0.5308  -0.5121  -0.4944  -0.4814  -0.4677  -0.4564  -0.4408  -0.4331
 -0.4283  -0.4239  -0.4234  -0.4140  -0.4124  -0.4057  -0.4053  -0.3998
 -0.3864  -0.3815  -0.3731  -0.3692  -0.3643  -0.3589  -0.3499  -0.3408
 -0.3382  -0.3326  -0.3255  -0.3034  -0.2688  -0.2507  -0.2483  -0.2418
 -0.2375  -0.2292  -0.2119

          Ground-State Mulliken Net Atomic Charges

     Atom                 Charge (a.u.)    Spin (a.u.)
  --------------------------------------------------------
      1 C                     0.789154       0.000072
      2 C                     0.126674       0.005133
      3 C                     0.435248       0.070239
      4 C                    -0.222321      -0.025700
      5 C                     0.185823       0.088411
      6 C                     0.552083       0.074257
      7 C                    -0.871863       0.111612
      8 C                     0.136172       0.005811
      9 C                     0.182677       0.029380
     10 C                    -0.584579       0.111609
     11 C                     0.050668       0.023698
     12 C                    -0.500903       0.032452
     13 C                    -0.338857       0.025239
     14 C                    -0.037602       0.028673
     15 O                    -0.434095       0.189491
     16 O                    -0.464876       0.200511
     17 H                     0.116991       0.000390
     18 H                     0.171437      -0.001326
     19 H                     0.168438      -0.001956
     20 C                    -0.380518      -0.006919
     21 H                     0.200293      -0.002139
     22 C                    -0.844159       0.004573
     23 C                    -0.605752       0.014750
     24 C                    -0.526892       0.008137
     25 C                     0.308005       0.013776
     26 C                    -0.303313      -0.000489
     27 H                     0.198050      -0.002672
     28 H                     0.170669       0.003734
     29 H                     0.188455       0.000147
     30 H                     0.170520       0.003731
     31 H                     0.094256      -0.001133
     32 H                     0.149037      -0.003917
     33 H                     0.207828      -0.000974
     34 H                     0.174744       0.000040
     35 H                     0.168952       0.000668
     36 H                     0.169548       0.000689
  --------------------------------------------------------
  Sum of atomic charges =    -1.000006

                    Cartesian Multipole Moments
 -----------------------------------------------------------------
    Charge (ESU x 10^10)
                -4.8032
    Dipole Moment (Debye)
         X     -20.5517      Y       8.3493      Z      -1.2270
       Tot      22.2169
    Quadrupole Moments (Debye-Ang)
        XX    -218.2579     XY      51.3053     YY    -163.0369
        XZ     -17.4617     YZ       4.4143     ZZ    -134.7858

 Total job time:  233.54s(wall), 702.12s(cpu)
        *  Thank you very much for using Q-Chem.  Have a nice day.  *
