 Gaussian 16, Revision A.03,
 Gaussian 16:  ES64L-G16RevA.03 25-Dec-2016

 --------------------------------------
 #P UB3LYP/6-311++G(d,p) nosym opt freq
 --------------------------------------

 -------
 Reduced
 -------
 Symbolic Z-matrix:
 Charge = -2 Multiplicity = 1

 SCF Done:  E(UB3LYP) =  -1315.02964081     A.U. after   29 cycles
 SCF Done:  E(UB3LYP) =  -1315.02964088     A.U. after   16 cycles
 SCF Done:  E(UB3LYP) =  -1315.02964078     A.U. after   18 cycles
 SCF Done:  E(UB3LYP) =  -1315.02964090     A.U. after   16 cycles
 Optimization completed.
    -- Stationary point found.
 Normal termination of Gaussian 16 at Mon Jan  8 17:29:02 2024.

 ----------------------------------------------------------------------
 #P Geom=AllCheck Guess=TCheck SCRF=Check GenChk UB3LYP/6-311++G(d,p) F
 req
 ----------------------------------------------------------------------

 Structure from the checkpoint file:  "268-an.chk"
 -------
 Reduced
 -------
 Charge = -2 Multiplicity = 1

                          Input orientation:
 ---------------------------------------------------------------------
 Center     Atomic      Atomic             Coordinates (Angstroms)
 Number     Number       Type             X           Y           Z
 ---------------------------------------------------------------------
      1          6           0        1.493679    3.454808   -0.275214
      2          6           0        0.775457    3.184906   -1.427644
      3          6           0        0.122480    1.938441   -1.563950
      4          6           0        1.591126    2.518822    0.775914
      5          6           0        0.936120    1.252463    0.637404
      6          6           0        0.209413    1.002681   -0.549088
      7          6           0        2.372885    2.877235    1.970015
      8          6           0        2.378311    1.845326    2.957348
      9          6           0        1.738109    0.577163    2.814476
     10          6           0        0.994253    0.210532    1.677311
     11          8           0        2.983847    3.995077    2.051755
     12          8           0        0.390437   -0.916041    1.521798
     13         16           0        3.292154    2.133031    4.445315
     14          8           0        2.915198    3.384840    5.139835
     15          8           0        3.282370    0.893236    5.267663
     16          6           0        5.026902    2.335243    3.944275
     17          6           0        5.481141    3.552999    3.421136
     18          6           0        5.897777    1.249597    4.079512
     19          6           0        6.817171    3.669008    3.040552
     20          6           0        7.699006    2.593600    3.180346
     21          6           0        7.231367    1.380673    3.699952
     22          1           0        2.009073    4.399694   -0.135165
     23          1           0        0.713230    3.925958   -2.222297
     24          1           0       -0.445951    1.717359   -2.466015
     25          1           0       -0.275988    0.034044   -0.617957
     26          1           0        1.806404   -0.131685    3.630302
     27          1           0        4.768305    4.354925    3.284439
     28          1           0        5.513301    0.323204    4.488935
     29          1           0        7.171689    4.608419    2.625243
     30          1           0        8.738486    2.695230    2.880463
     31          1           0        7.907891    0.537465    3.810233
 ---------------------------------------------------------------------

 SCF Done:  E(UB3LYP) =  -1315.02964090     A.U. after    2 cycles

 Alpha  occ. eigenvalues --  -88.80180 -18.86673 -18.86574 -18.80508 -18.77764
 Alpha  occ. eigenvalues --   -9.99076  -9.98937  -9.98852  -9.98631  -9.98277
 Alpha  occ. eigenvalues --   -9.97282  -9.96941  -9.94849  -9.94711  -9.94427
 Alpha  occ. eigenvalues --   -9.93826  -9.93428  -9.93353  -9.92758  -9.92498
 Alpha  occ. eigenvalues --   -9.89501  -7.86491  -5.82797  -5.82698  -5.82545
 Alpha  occ. eigenvalues --   -0.85471  -0.74917  -0.72665  -0.69442  -0.66481
 Alpha  occ. eigenvalues --   -0.61619  -0.56783  -0.55592  -0.55338  -0.51202
 Alpha  occ. eigenvalues --   -0.50737  -0.45487  -0.42181  -0.41437  -0.39836
 Alpha  occ. eigenvalues --   -0.37168  -0.35538  -0.32885  -0.31195  -0.27983
 Alpha  occ. eigenvalues --   -0.26665  -0.26037  -0.25354  -0.24528  -0.23352
 Alpha  occ. eigenvalues --   -0.22507  -0.21575  -0.20688  -0.18954  -0.18731
 Alpha  occ. eigenvalues --   -0.17850  -0.17585  -0.16552  -0.15407  -0.15277
 Alpha  occ. eigenvalues --   -0.13697  -0.12763  -0.11017  -0.10810  -0.09322
 Alpha  occ. eigenvalues --   -0.08869  -0.08648  -0.07612  -0.06959  -0.06189
 Alpha  occ. eigenvalues --   -0.05656  -0.04891  -0.01593  -0.00450   0.00048
 Alpha  occ. eigenvalues --    0.01994   0.04371   0.10967
 Alpha virt. eigenvalues --    0.13511   0.15361   0.15534   0.16569   0.17087
 Alpha virt. eigenvalues --    0.17355   0.17909   0.20005   0.20069   0.20306
 Alpha virt. eigenvalues --    0.21013   0.21436   0.21616   0.22461   0.23328

  Beta  occ. eigenvalues --  -88.80180 -18.86673 -18.86574 -18.80508 -18.77764
  Beta  occ. eigenvalues --   -9.99076  -9.98937  -9.98852  -9.98631  -9.98277
  Beta  occ. eigenvalues --   -9.97282  -9.96941  -9.94849  -9.94711  -9.94427
  Beta  occ. eigenvalues --   -9.93826  -9.93428  -9.93353  -9.92758  -9.92498
  Beta  occ. eigenvalues --   -9.89501  -7.86491  -5.82797  -5.82698  -5.82545
  Beta  occ. eigenvalues --   -0.85471  -0.74917  -0.72665  -0.69442  -0.66481
  Beta  occ. eigenvalues --   -0.61619  -0.56783  -0.55592  -0.55338  -0.51202
  Beta  occ. eigenvalues --   -0.50737  -0.45487  -0.42181  -0.41437  -0.39836
  Beta  occ. eigenvalues --   -0.37168  -0.35538  -0.32885  -0.31195  -0.27983
  Beta  occ. eigenvalues --   -0.26665  -0.26037  -0.25354  -0.24528  -0.23352
  Beta  occ. eigenvalues --   -0.22507  -0.21575  -0.20688  -0.18954  -0.18731
  Beta  occ. eigenvalues --   -0.17850  -0.17585  -0.16552  -0.15407  -0.15277
  Beta  occ. eigenvalues --   -0.13697  -0.12763  -0.11017  -0.10810  -0.09322
  Beta  occ. eigenvalues --   -0.08869  -0.08648  -0.07612  -0.06959  -0.06189
  Beta  occ. eigenvalues --   -0.05656  -0.04891  -0.01593  -0.00450   0.00048
  Beta  occ. eigenvalues --    0.01994   0.04371   0.10967
  Beta virt. eigenvalues --    0.13511   0.15361   0.15534   0.16569   0.17087
  Beta virt. eigenvalues --    0.17355   0.17909   0.20005   0.20069   0.20306
  Beta virt. eigenvalues --    0.21013   0.21436   0.21616   0.22461   0.23328

 Mulliken charges and spin densities:
               1          2
     1  C    0.210882   0.000000
     2  C   -0.390589  -0.000000
     3  C   -0.298239   0.000000
     4  C    0.419037   0.000000
     5  C    0.503630  -0.000000
     6  C   -0.043701   0.000000
     7  C   -0.703375  -0.000000
     8  C    0.162896   0.000000
     9  C   -0.112009  -0.000000
    10  C   -0.919797   0.000000
    11  O   -0.400198   0.000000
    12  O   -0.539472  -0.000000
    13  S    0.060191  -0.000000
    14  O   -0.164291   0.000000
    15  O   -0.243127   0.000000
    16  C    0.217303   0.000000
    17  C   -0.210297  -0.000000
    18  C    0.122820  -0.000000
    19  C   -0.420774   0.000000
    20  C   -0.284125  -0.000000
    21  C   -0.476366  -0.000000
    22  H    0.129343  -0.000000
    23  H    0.083404  -0.000000
    24  H    0.086842   0.000000
    25  H    0.130742   0.000000
    26  H    0.206538   0.000000
    27  H    0.300662   0.000000
    28  H    0.223041  -0.000000
    29  H    0.133871   0.000000
    30  H    0.096609   0.000000
    31  H    0.118551   0.000000
 Sum of Mulliken charges =  -2.00000  -0.00000

 Dipole moment (field-independent basis, Debye):
    X=            -20.6278    Y=            -15.9924    Z=            -23.8720  Tot=             35.3714
 Quadrupole moment (field-independent basis, Debye-Ang):
   XX=           -219.2612   YY=           -205.3628   ZZ=           -246.7977
   XY=            -54.0449   XZ=            -74.4364   YZ=            -46.7469

  Exact polarizability: 415.937  47.419 250.699 137.590 -20.073 319.589
 Approx polarizability: 655.271  87.217 474.625 203.025 -52.917 522.032

                      1                      2                      3
                      A                      A                      A
 Frequencies --     26.9882                35.8802                61.4865
 Red. masses --      5.4286                 7.4299                 4.8917
 Frc consts  --      0.0023                 0.0056                 0.0109
 IR Inten    --      1.6874                 2.1239                 1.4495

                      4                      5                      6
                      A                      A                      A
 Frequencies --     94.4783               137.5501               147.5242
 Red. masses --      5.4978                 4.9678                 8.3647
 Frc consts  --      0.0289                 0.0554                 0.1073
 IR Inten    --      2.0330                 0.4588                 0.7860

                      7                      8                      9
                      A                      A                      A
 Frequencies --    160.0754               176.8466               197.5622
 Red. masses --      8.4244                 6.4601                 5.7934
 Frc consts  --      0.1272                 0.1190                 0.1332
 IR Inten    --      5.8857                 0.6977                 0.7270

                     10                     11                     12
                      A                      A                      A
 Frequencies --    228.1924               265.9632               276.5023
 Red. masses --      6.4167                 9.0700                 7.2090
 Frc consts  --      0.1969                 0.3780                 0.3247
 IR Inten    --      1.4792                 0.5446                 5.0923

                     13                     14                     15
                      A                      A                      A
 Frequencies --    285.2404               298.0291               358.4983
 Red. masses --      9.1427                 8.6475                10.5141
 Frc consts  --      0.4383                 0.4525                 0.7962
 IR Inten    --      1.2682                 1.8527                 2.7371

                     16                     17                     18
                      A                      A                      A
 Frequencies --    373.8813               411.7994               418.8356
 Red. masses --      8.9198                 8.6166                 2.9730
 Frc consts  --      0.7346                 0.8609                 0.3073
 IR Inten    --      3.0661                 1.1453                 0.1654

                     19                     20                     21
                      A                      A                      A
 Frequencies --    434.7598               443.8932               470.1904
 Red. masses --      3.3441                 5.2201                 9.3873
 Frc consts  --      0.3724                 0.6060                 1.2227
 IR Inten    --      4.4152                11.5111                29.4740

                     22                     23                     24
                      A                      A                      A
 Frequencies --    475.7502               493.2742               539.5050
 Red. masses --      5.7414                 6.3492                 8.5855
 Frc consts  --      0.7656                 0.9102                 1.4723
 IR Inten    --      6.8637                 4.4702                48.9271

                     25                     26                     27
                      A                      A                      A
 Frequencies --    566.0739               610.7903               627.6143
 Red. masses --      9.0591                 7.7622                 6.0590
 Frc consts  --      1.7103                 1.7062                 1.4062
 IR Inten    --     26.2511                40.6366                 0.4544

                     28                     29                     30
                      A                      A                      A
 Frequencies --    631.2792               668.2434               681.5380
 Red. masses --      3.0035                 5.8397                 2.2463
 Frc consts  --      0.7052                 1.5364                 0.6147
 IR Inten    --      9.1027                 4.7210                 9.8881

                     31                     32                     33
                      A                      A                      A
 Frequencies --    685.5665               701.5303               719.8485
 Red. masses --      2.0615                 6.4263                 6.2227
 Frc consts  --      0.5709                 1.8634                 1.8998
 IR Inten    --     53.4024                14.5581                23.8486

                     34                     35                     36
                      A                      A                      A
 Frequencies --    735.6258               752.2449               775.7111
 Red. masses --      2.0678                 1.6469                 3.4291
 Frc consts  --      0.6593                 0.5491                 1.2157
 IR Inten    --      5.0497                58.4317                 0.2248

                     37                     38                     39
                      A                      A                      A
 Frequencies --    817.6314               821.9412               824.8021
 Red. masses --      2.2083                 1.8629                 1.9585
 Frc consts  --      0.8698                 0.7415                 0.7850
 IR Inten    --     48.9293                22.1929                32.4193

                     40                     41                     42
                      A                      A                      A
 Frequencies --    834.5773               836.6588               878.8371
 Red. masses --      1.6439                 4.8212                 1.4050
 Frc consts  --      0.6746                 1.9884                 0.6393
 IR Inten    --      1.7517                 6.7263                 3.3888

                     43                     44                     45
                      A                      A                      A
 Frequencies --    950.4416               959.3863               964.0106
 Red. masses --      1.2915                 1.2215                 1.3288
 Frc consts  --      0.6874                 0.6624                 0.7276
 IR Inten    --      3.1525                 0.0435                 0.3914

                     46                     47                     48
                      A                      A                      A
 Frequencies --    964.2674              1004.5135              1021.2892
 Red. masses --      1.3489                 5.9428                 2.9285
 Frc consts  --      0.7390                 3.5330                 1.7996
 IR Inten    --      4.1313               150.7345                76.0936

                     49                     50                     51
                      A                      A                      A
 Frequencies --   1027.9225              1040.8382              1073.9342
 Red. masses --      5.2917                 2.6590                 2.9573
 Frc consts  --      3.2943                 1.6972                 2.0095
 IR Inten    --    201.4859                60.1537               129.0616

                     52                     53                     54
                      A                      A                      A
 Frequencies --   1082.7546              1087.9028              1090.1685
 Red. masses --      3.2987                 1.6646                 2.5804
 Frc consts  --      2.2785                 1.1608                 1.8069
 IR Inten    --    224.8429                13.4088                44.3832

                     55                     56                     57
                      A                      A                      A
 Frequencies --   1130.0600              1148.1173              1164.5474
 Red. masses --      1.5196                 1.7633                 1.1092
 Frc consts  --      1.1434                 1.3695                 0.8863
 IR Inten    --      7.6425                 5.0186                 3.6630

                     58                     59                     60
                      A                      A                      A
 Frequencies --   1185.5722              1190.7566              1203.9701
 Red. masses --      1.4809                 4.1159                 2.2565
 Frc consts  --      1.2264                 3.4385                 1.9272
 IR Inten    --     50.9791               107.5052                47.5119

                     61                     62                     63
                      A                      A                      A
 Frequencies --   1233.3126              1268.1757              1325.1659
 Red. masses --      2.2931                 2.1574                 2.0403
 Frc consts  --      2.0550                 2.0443                 2.1110
 IR Inten    --     89.6354                16.0058                11.2705

                     64                     65                     66
                      A                      A                      A
 Frequencies --   1337.1076              1345.4146              1357.7884
 Red. masses --      6.1365                 2.5497                 5.5593
 Frc consts  --      6.4641                 2.7193                 6.0386
 IR Inten    --     43.7194                 1.8814                55.3531

                     67                     68                     69
                      A                      A                      A
 Frequencies --   1382.0738              1427.8241              1458.1344
 Red. masses --      5.0773                 2.9747                 3.0082
 Frc consts  --      5.7141                 3.5731                 3.7684
 IR Inten    --    255.1085               384.8684                13.9880

                     70                     71                     72
                      A                      A                      A
 Frequencies --   1460.4044              1494.9760              1501.4077
 Red. masses --      2.1944                 1.9837                 5.1163
 Frc consts  --      2.7575                 2.6121                 6.7953
 IR Inten    --      8.2731                17.8986                91.6538

                     73                     74                     75
                      A                      A                      A
 Frequencies --   1516.0129              1582.9986              1588.8054
 Red. masses --      4.6236                 6.0417                 5.4027
 Frc consts  --      6.2609                 8.9202                 8.0353
 IR Inten    --    403.4303               491.3772               145.0613

                     76                     77                     78
                      A                      A                      A
 Frequencies --   1604.1019              1610.5149              3094.7437
 Red. masses --      5.7103                 6.0373                 1.0831
 Frc consts  --      8.6572                 9.2262                 6.1116
 IR Inten    --     28.1153                28.8738                36.2491

                     79                     80                     81
                      A                      A                      A
 Frequencies --   3119.1766              3121.4120              3137.0364
 Red. masses --      1.0910                 1.0831                 1.0890
 Frc consts  --      6.2539                 6.2174                 6.3140
 IR Inten    --    132.6758                 3.4101                57.6510

                     82                     83                     84
                      A                      A                      A
 Frequencies --   3152.6257              3160.3407              3163.8199
 Red. masses --      1.0952                 1.0904                 1.0912
 Frc consts  --      6.4133                 6.4163                 6.4356
 IR Inten    --     89.9479                27.4526                49.1688

                     85                     86                     87
                      A                      A                      A
 Frequencies --   3186.2422              3190.6264              3211.4179
 Red. masses --      1.0872                 1.0915                 1.0924
 Frc consts  --      6.5028                 6.5468                 6.6379
 IR Inten    --     19.4797                 8.1171                 3.4691

 - Thermochemistry -
 -------------------
 Temperature   298.150 Kelvin.  Pressure   1.00000 Atm.
 Atom     1 has atomic number  6 and mass  12.00000

 Molecular mass:   298.02998 amu.
 Principal axes and moments of inertia in atomic units:
                           1         2         3
     Eigenvalues --  3506.379669230.53383**********
           X            0.77197   0.40047  -0.49365
           Y            0.12160   0.66921   0.73306
           Z            0.62392  -0.62593   0.46791
 This molecule is an asymmetric top.
 Rotational symmetry number  1.
 Warning -- assumption of classical behavior for rotation
           may cause significant error
 Rotational temperatures (Kelvin)      0.02470     0.00938     0.00825
 Rotational constants (GHZ):           0.51470     0.19552     0.17188
 Zero-point vibrational energy     570052.5 (Joules/Mol)
                                  136.24582 (Kcal/Mol)
 Warning -- explicit consideration of  26 degrees of freedom as
           vibrations may cause significant error
 Vibrational temperatures:     38.83    51.62    88.47   135.93   197.90
          (Kelvin)            212.25   230.31   254.44   284.25   328.32
                              382.66   397.83   410.40   428.80   515.80
                              537.93   592.49   602.61   625.52   638.66
                              676.50   684.50   709.71   776.23   814.45
                              878.79   903.00   908.27   961.45   980.58
                              986.38  1009.35  1035.70  1058.40  1082.31
                             1116.08  1176.39  1182.59  1186.71  1200.77
                             1203.77  1264.45  1367.47  1380.34  1387.00
                             1387.37  1445.27  1469.41  1478.95  1497.53
                             1545.15  1557.84  1565.25  1568.51  1625.90
                             1651.88  1675.52  1705.77  1713.23  1732.24
                             1774.46  1824.62  1906.62  1923.80  1935.75
                             1953.55  1988.50  2054.32  2097.93  2101.20
                             2150.94  2160.19  2181.20  2277.58  2285.94
                             2307.94  2317.17  4452.65  4487.80  4491.02
                             4513.50  4535.93  4547.03  4552.03  4584.29
                             4590.60  4620.51

 Zero-point correction=                           0.217122 (Hartree/Particle)
 Thermal correction to Energy=                    0.233936
 Thermal correction to Enthalpy=                  0.234880
 Thermal correction to Gibbs Free Energy=         0.171973
 Sum of electronic and zero-point Energies=          -1314.812519
 Sum of electronic and thermal Energies=             -1314.795705
 Sum of electronic and thermal Enthalpies=           -1314.794761
 Sum of electronic and thermal Free Energies=        -1314.857668

                     E (Thermal)             CV                S
                      KCal/Mol        Cal/Mol-Kelvin    Cal/Mol-Kelvin
 Total                  146.797             67.037            132.400
 Electronic               0.000              0.000              0.000
 Translational            0.889              2.981             42.973
 Rotational               0.889              2.981             34.185
 Vibrational            145.019             61.075             55.242
 Vibration     1          0.593              1.984              6.039
 Vibration     2          0.594              1.982              5.474
 Vibration     3          0.597              1.973              4.409
 Vibration     4          0.603              1.953              3.565
 Vibration     5          0.614              1.916              2.838
 Vibration     6          0.617              1.905              2.704
 Vibration     7          0.622              1.891              2.549
 Vibration     8          0.628              1.871              2.361
 Vibration     9          0.637              1.843              2.156
 Vibration    10          0.651              1.798              1.893
 Vibration    11          0.672              1.735              1.622
 Vibration    12          0.678              1.717              1.555
 Vibration    13          0.683              1.701              1.502
 Vibration    14          0.691              1.677              1.428
 Vibration    15          0.733              1.558              1.129
 Vibration    16          0.745              1.526              1.064
 Vibration    17          0.776              1.445              0.920
 Vibration    18          0.782              1.429              0.896
 Vibration    19          0.795              1.394              0.843
 Vibration    20          0.803              1.374              0.814
 Vibration    21          0.827              1.316              0.737
 Vibration    22          0.832              1.304              0.722
 Vibration    23          0.849              1.265              0.675
 Vibration    24          0.895              1.163              0.566
 Vibration    25          0.922              1.105              0.512
 Vibration    26          0.970              1.009              0.431

 Optimization completed.
    -- Stationary point found.
 Normal termination of Gaussian 16 at Mon Jan  8 19:35:51 2024.
