 Q-Chem 5.4, Q-Chem, Inc., Pleasanton, CA (2021)
 Q-Chem 5.4.0 for Intel X86 EM64T Linux

User input:
--------------------------------------------------------------
$molecule
-2 1
C                  1.4936790000      3.4548080000     -0.2752140000
C                  0.7754570000      3.1849060000     -1.4276440000
C                  0.1224800000      1.9384410000     -1.5639500000
C                  1.5911260000      2.5188220000      0.7759140000
C                  0.9361200000      1.2524630000      0.6374040000
C                  0.2094130000      1.0026810000     -0.5490880000
C                  2.3728850000      2.8772350000      1.9700150000
C                  2.3783110000      1.8453260000      2.9573480000
C                  1.7381090000      0.5771630000      2.8144760000
C                  0.9942530000      0.2105320000      1.6773110000
O                  2.9838470000      3.9950770000      2.0517550000
O                  0.3904370000     -0.9160410000      1.5217980000
S                  3.2921540000      2.1330310000      4.4453150000
O                  2.9151980000      3.3848400000      5.1398350000
O                  3.2823700000      0.8932360000      5.2676630000
C                  5.0269020000      2.3352430000      3.9442750000
C                  5.4811410000      3.5529990000      3.4211360000
C                  5.8977770000      1.2495970000      4.0795120000
C                  6.8171710000      3.6690080000      3.0405520000
C                  7.6990060000      2.5936000000      3.1803460000
C                  7.2313670000      1.3806730000      3.6999520000
H                  2.0090730000      4.3996940000     -0.1351650000
H                  0.7132300000      3.9259580000     -2.2222970000
H                 -0.4459510000      1.7173590000     -2.4660150000
H                 -0.2759880000      0.0340440000     -0.6179570000
H                  1.8064040000     -0.1316850000      3.6303020000
H                  4.7683050000      4.3549250000      3.2844390000
H                  5.5133010000      0.3232040000      4.4889350000
H                  7.1716890000      4.6084190000      2.6252430000
H                  8.7384860000      2.6952300000      2.8804630000
H                  7.9078910000      0.5374650000      3.8102330000
$end

$rem
BASIS  =  6-311++G(d,p)
GUI  =  2
JOB_TYPE  =  SP
METHOD  =  B3LYP
SCF_CONVERGENCE  = 8
SOLVENT_METHOD = sm12
$end

$smx
solvent dimethylformamide
charges CM5
$end

--------------------------------------------------------------

             Standard Nuclear Orientation (Angstroms)
    I     Atom           X                Y                Z
 ----------------------------------------------------------------
    1      C       1.4936790000     3.4548080000    -0.2752140000
    2      C       0.7754570000     3.1849060000    -1.4276440000
    3      C       0.1224800000     1.9384410000    -1.5639500000
    4      C       1.5911260000     2.5188220000     0.7759140000
    5      C       0.9361200000     1.2524630000     0.6374040000
    6      C       0.2094130000     1.0026810000    -0.5490880000
    7      C       2.3728850000     2.8772350000     1.9700150000
    8      C       2.3783110000     1.8453260000     2.9573480000
    9      C       1.7381090000     0.5771630000     2.8144760000
   10      C       0.9942530000     0.2105320000     1.6773110000
   11      O       2.9838470000     3.9950770000     2.0517550000
   12      O       0.3904370000    -0.9160410000     1.5217980000
   13      S       3.2921540000     2.1330310000     4.4453150000
   14      O       2.9151980000     3.3848400000     5.1398350000
   15      O       3.2823700000     0.8932360000     5.2676630000
   16      C       5.0269020000     2.3352430000     3.9442750000
   17      C       5.4811410000     3.5529990000     3.4211360000
   18      C       5.8977770000     1.2495970000     4.0795120000
   19      C       6.8171710000     3.6690080000     3.0405520000
   20      C       7.6990060000     2.5936000000     3.1803460000
   21      C       7.2313670000     1.3806730000     3.6999520000
   22      H       2.0090730000     4.3996940000    -0.1351650000
   23      H       0.7132300000     3.9259580000    -2.2222970000
   24      H      -0.4459510000     1.7173590000    -2.4660150000
   25      H      -0.2759880000     0.0340440000    -0.6179570000
   26      H       1.8064040000    -0.1316850000     3.6303020000
   27      H       4.7683050000     4.3549250000     3.2844390000
   28      H       5.5133010000     0.3232040000     4.4889350000
   29      H       7.1716890000     4.6084190000     2.6252430000
   30      H       8.7384860000     2.6952300000     2.8804630000
   31      H       7.9078910000     0.5374650000     3.8102330000
 ----------------------------------------------------------------

   18   -1315.0163070164      4.63e-09  Convergence criterion met
 Total energy in the final basis set =    -1315.2913523543

                    Orbital Energies (a.u.)
 --------------------------------------------------------------

 Alpha MOs
 -- Occupied --
-89.0299 -19.0943 -19.0939 -19.0392 -19.0222 -10.2058 -10.2051 -10.1908
-10.1905 -10.1892 -10.1873 -10.1872 -10.1843 -10.1806 -10.1791 -10.1742
-10.1720 -10.1676 -10.1668 -10.1656 -10.1391  -8.0931  -6.0562  -6.0551
 -6.0538  -1.0825  -0.9769  -0.9624  -0.9389  -0.8706  -0.8526  -0.7964
 -0.7718  -0.7603  -0.7485  -0.7404  -0.6851  -0.6525  -0.6208  -0.6176
 -0.6074  -0.5789  -0.5546  -0.5323  -0.5022  -0.4991  -0.4717  -0.4700
 -0.4622  -0.4541  -0.4494  -0.4360  -0.4352  -0.4263  -0.4202  -0.4013
 -0.3959  -0.3849  -0.3794  -0.3737  -0.3694  -0.3548  -0.3465  -0.3430
 -0.3319  -0.3278  -0.3183  -0.3021  -0.2861  -0.2833  -0.2699  -0.2673
 -0.2525  -0.2432  -0.2393  -0.2147  -0.2002  -0.1320

          Ground-State Mulliken Net Atomic Charges

     Atom                 Charge (a.u.)
  ----------------------------------------
      1 C                     0.589757
      2 C                     1.891370
      3 C                     1.941295
      4 C                    -0.438298
      5 C                    -2.707592
      6 C                     0.153994
      7 C                    -1.650174
      8 C                    -0.327521
      9 C                    -1.160447
     10 C                    -2.128704
     11 O                    -0.193301
     12 O                    -0.428510
     13 S                     0.142293
     14 O                    -0.091685
     15 O                    -0.158266
     16 C                    -2.310898
     17 C                    -1.433376
     18 C                    -0.048068
     19 C                     0.698689
     20 C                     1.836201
     21 C                     1.126172
     22 H                     0.139738
     23 H                     0.433570
     24 H                     0.425632
     25 H                     0.097198
     26 H                     0.017647
     27 H                     0.132464
     28 H                     0.232356
     29 H                     0.353052
     30 H                     0.469979
     31 H                     0.395437
  ----------------------------------------
  Sum of atomic charges =    -2.000000

                    Cartesian Multipole Moments
 -----------------------------------------------------------------
    Charge (ESU x 10^10)
                -9.6064
    Dipole Moment (Debye)
         X     -16.7791      Y     -14.8015      Z     -24.3368
       Tot      33.0590
    Quadrupole Moments (Debye-Ang)
        XX    -179.2144     XY     -44.1718     YY    -201.7996
        XZ     -61.0858     YZ     -46.7902     ZZ    -243.3750

 Total job time:  1100.57s(wall), 7990.05s(cpu)
        *  Thank you very much for using Q-Chem.  Have a nice day.  *
