 Q-Chem 5.4, Q-Chem, Inc., Pleasanton, CA (2021)
 Q-Chem 5.4.0 for Intel X86 EM64T Linux

User input:
--------------------------------------------------------------
$molecule
-4 1
C                 -1.6782070000      2.9506860000     -0.7107820000
C                 -2.8261250000      2.2644180000     -0.3800690000
C                 -2.7307070000      0.9043680000      0.0216460000
C                 -0.3814050000      2.3678040000     -0.6557090000
C                 -0.2800620000      0.9902580000     -0.1960010000
C                 -1.4894290000      0.2951930000      0.1213840000
C                  0.7597860000      3.1926450000     -1.0555150000
C                  2.0988210000      2.5877010000     -0.9092420000
C                  2.1371950000      1.2290610000     -0.4505150000
C                  1.0416630000      0.4429840000     -0.1029720000
O                  0.5999500000      4.3850140000     -1.4933060000
O                  3.1843250000      3.2260520000     -1.1937920000
H                 -1.7316960000      3.9927050000     -1.0186710000
H                 -3.7948370000      2.7581340000     -0.4190510000
S                 -4.2937870000      0.0301480000      0.3858800000
H                 -1.4332240000     -0.7375980000      0.4423380000
H                  3.1244770000      0.7882570000     -0.3626240000
S                  1.4111200000     -1.2842060000      0.4108060000
O                  2.9126860000     -1.4119830000      0.4313800000
O                  0.8025950000     -2.2035720000     -0.6088370000
O                  0.8289830000     -1.4897450000      1.7785550000
O                 -4.9372880000      0.7576670000      1.5358390000
O                 -3.9608770000     -1.3864270000      0.7271300000
O                 -5.1371850000      0.1363770000     -0.8569520000
$end
$rem
MAX_SCF_CYCLES=200
BASIS  =  6-311++G(d,p)
GUI  =  2
JOB_TYPE  =  SP
METHOD  =  B3LYP
SOLVENT_METHOD = COSMO
$end
$solvent
dielectric 37.219
opticaldielectric 1.43
$end

--------------------------------------------------------------

             Standard Nuclear Orientation (Angstroms)
    I     Atom           X                Y                Z
 ----------------------------------------------------------------
    1      C      -0.5822703978    -2.4910872629    -0.0488095111
    2      C      -1.8372733656    -1.9230180407    -0.0665718469
    3      C      -1.9593984097    -0.5074897773    -0.0268132308
    4      C       0.6165025415    -1.7257147182    -0.0084585974
    5      C       0.4914101285    -0.2753750553    -0.0185373656
    6      C      -0.8237350692     0.2874807164    -0.0166341350
    7      C       1.8901129262    -2.4460114022     0.0317121171
    8      C       3.1173418067    -1.6259439885    -0.0103173604
    9      C       2.9326703231    -0.2034153285    -0.0210098248
   10      C       1.7148757793     0.4717392008    -0.0270397878
   11      O       1.9318652257    -3.7245086939     0.0832267665
   12      O       4.2995655916    -2.1446765812    -0.0168790125
   13      H      -0.4693571004    -3.5726160039    -0.0805345090
   14      H      -2.7257016053    -2.5489772314    -0.1170533127
   15      S      -3.6509264862     0.1834533835     0.0116109316
   16      H      -0.9343062331     1.3646701539    -0.0003659066
   17      H       3.8404478887     0.3903102802    -0.0347406219
   18      S       1.8040630979     2.3088053672     0.0027112910
   19      O       3.2655752614     2.6670846303    -0.0813652757
   20      O       1.2055020052     2.7736981402     1.2991709675
   21      O       1.0485740402     2.8234494861    -1.1873495515
   22      O      -4.3251880862    -0.2550154145    -1.2607489003
   23      O      -3.5391742338     1.6706772160     0.1098049604
   24      O      -4.3270555934    -0.4202729420     1.2139420514
 ----------------------------------------------------------------

   17   -1781.5686555991      7.64e-06  Convergence criterion met
 Total energy in the final basis set =    -1781.5686555991
    5   -1782.4697531534      9.64e-06  Convergence criterion met
 Total energy in the final basis set =    -1782.4697531534

                    Orbital Energies (a.u.)
 --------------------------------------------------------------

 Alpha MOs
 -- Occupied --
-89.0383 -89.0312 -19.0850 -19.0822 -19.0822 -19.0765 -19.0764 -19.0763
-19.0314 -19.0270 -10.1808 -10.1791 -10.1764 -10.1655 -10.1642 -10.1638
-10.1556 -10.1506 -10.1466 -10.1354  -8.0969  -8.0897  -6.0598  -6.0597
 -6.0583  -6.0527  -6.0525  -6.0510  -1.0949  -1.0875  -0.9617  -0.9566
 -0.9559  -0.9528  -0.9511  -0.9274  -0.8406  -0.7857  -0.7380  -0.7090
 -0.6729  -0.6237  -0.5968  -0.5867  -0.5512  -0.5280  -0.4932  -0.4811
 -0.4699  -0.4468  -0.4456  -0.4438  -0.4393  -0.4308  -0.4224  -0.4058
 -0.3931  -0.3810  -0.3797  -0.3580  -0.3462  -0.3434  -0.3292  -0.3270
 -0.3249  -0.3219  -0.3177  -0.3098  -0.2971  -0.2865  -0.2841  -0.2815
 -0.2790  -0.2737  -0.2618  -0.2488  -0.2431  -0.2355  -0.2190  -0.2003
 -0.1940  -0.1275

          Ground-State Mulliken Net Atomic Charges

     Atom                 Charge (a.u.)
  ----------------------------------------
      1 C                    -0.160146
      2 C                    -0.547283
      3 C                    -0.201496
      4 C                     0.933945
      5 C                    -0.036465
      6 C                    -0.380936
      7 C                    -0.728865
      8 C                     0.094847
      9 C                     0.330412
     10 C                    -1.238514
     11 O                    -0.691248
     12 O                    -0.748502
     13 H                     0.157711
     14 H                     0.229056
     15 S                     0.687179
     16 H                     0.213869
     17 H                     0.213951
     18 S                     0.637773
     19 O                    -0.459142
     20 O                    -0.458080
     21 O                    -0.467508
     22 O                    -0.452867
     23 O                    -0.468145
     24 O                    -0.459544
  ----------------------------------------
  Sum of atomic charges =    -4.000000

                    Cartesian Multipole Moments
 -----------------------------------------------------------------
    Charge (ESU x 10^10)
               -19.2128
    Dipole Moment (Debye)
         X      -8.5868      Y       1.4305      Z      -0.4366
       Tot       8.7161
    Quadrupole Moments (Debye-Ang)
        XX    -354.6104     XY      33.7096     YY    -262.4951
        XZ       0.0827     YZ       1.1961     ZZ    -160.5685

 Total job time:  104.66s(wall), 636.77s(cpu)
        *  Thank you very much for using Q-Chem.  Have a nice day.  *
