 Q-Chem 5.4, Q-Chem, Inc., Pleasanton, CA (2021)
 Q-Chem 5.4.0 for Intel X86 EM64T Linux

User input:
--------------------------------------------------------------
$molecule
-1 2
F                 -2.6856650000      0.5458980000     -0.0153840000
C                 -1.3599900000      0.2741120000     -0.0077710000
C                 -0.4668710000      1.3064420000     -0.0174240000
F                 -0.9263630000      2.5790000000     -0.0343900000
C                  0.9714350000      1.1226160000     -0.0105060000
O                  1.7905830000      2.0693880000     -0.0193490000
C                  1.3599400000     -0.2742210000      0.0077710000
C                  0.4669050000     -1.3063810000      0.0174210000
F                  0.9263040000     -2.5789410000      0.0343960000
C                 -0.9713420000     -1.1225500000      0.0104930000
O                 -1.7906080000     -2.0694490000      0.0193520000
F                  2.6856720000     -0.5459130000      0.0153910000
$end

$rem
BASIS  =  6-311++G(d,p)
GUI  =  2
JOB_TYPE  =  SP
METHOD  =  B3LYP
SCF_CONVERGENCE  = 8
SOLVENT_METHOD = sm12
$end

$smx
solvent dimethylformamide
charges CM5
$end

--------------------------------------------------------------

             Standard Nuclear Orientation (Angstroms)
    I     Atom           X                Y                Z
 ----------------------------------------------------------------
    1      F      -2.6856650000     0.5458980000    -0.0153840000
    2      C      -1.3599900000     0.2741120000    -0.0077710000
    3      C      -0.4668710000     1.3064420000    -0.0174240000
    4      F      -0.9263630000     2.5790000000    -0.0343900000
    5      C       0.9714350000     1.1226160000    -0.0105060000
    6      O       1.7905830000     2.0693880000    -0.0193490000
    7      C       1.3599400000    -0.2742210000     0.0077710000
    8      C       0.4669050000    -1.3063810000     0.0174210000
    9      F       0.9263040000    -2.5789410000     0.0343960000
   10      C      -0.9713420000    -1.1225500000     0.0104930000
   11      O      -1.7906080000    -2.0694490000     0.0193520000
   12      F       2.6856720000    -0.5459130000     0.0153910000
 ----------------------------------------------------------------

   14    -778.7106491987      9.92e-09  Convergence criterion met
 Total energy in the final basis set =     -778.7756895505

                    Orbital Energies (a.u.)
 --------------------------------------------------------------

 Alpha MOs
 -- Occupied --
-24.6911 -24.6911 -24.6911 -24.6911 -19.0878 -19.0877 -10.2570 -10.2570
-10.2564 -10.2564 -10.2411 -10.2411  -1.2356  -1.2350  -1.2215  -1.2210
 -1.0132  -1.0110  -0.8494  -0.7576  -0.7113  -0.6324  -0.6234  -0.5620
 -0.5490  -0.5486  -0.5232  -0.4987  -0.4891  -0.4788  -0.4581  -0.4501
 -0.4418  -0.4256  -0.4181  -0.3988  -0.3904  -0.3860  -0.3810  -0.3787
 -0.2845  -0.2564  -0.2550  -0.2480  -0.1715

 Beta MOs
 -- Occupied --
-24.6908 -24.6908 -24.6908 -24.6908 -19.0802 -19.0802 -10.2560 -10.2560
-10.2553 -10.2553 -10.2399 -10.2399  -1.2349  -1.2344  -1.2208  -1.2204
 -1.0003  -0.9978  -0.8435  -0.7555  -0.7009  -0.6294  -0.6201  -0.5605
 -0.5473  -0.5468  -0.5224  -0.4925  -0.4876  -0.4760  -0.4535  -0.4477
 -0.4365  -0.4240  -0.4108  -0.3977  -0.3849  -0.3774  -0.3715  -0.3499
 -0.2519  -0.2489  -0.2481  -0.2411

          Ground-State Mulliken Net Atomic Charges

     Atom                 Charge (a.u.)    Spin (a.u.)
  --------------------------------------------------------
      1 F                    -0.189206       0.002612
      2 C                     0.246198       0.089294
      3 C                     0.241526       0.089458
      4 F                    -0.188934       0.002612
      5 C                    -0.181915       0.036093
      6 O                    -0.427788       0.279891
      7 C                     0.247091       0.089334
      8 C                     0.240835       0.089326
      9 F                    -0.188938       0.002605
     10 C                    -0.181730       0.036113
     11 O                    -0.427913       0.280050
     12 F                    -0.189227       0.002611
  --------------------------------------------------------
  Sum of atomic charges =    -1.000000

                    Cartesian Multipole Moments
 -----------------------------------------------------------------
    Charge (ESU x 10^10)
                -4.8032
    Dipole Moment (Debye)
         X       0.0010      Y       0.0009      Z      -0.0000
       Tot       0.0013
    Quadrupole Moments (Debye-Ang)
        XX     -91.8103     XY     -11.0806     YY     -95.0140
        XZ       0.0454     YZ       0.3379     ZZ     -64.2874

 Total job time:  98.95s(wall), 655.60s(cpu)
        *  Thank you very much for using Q-Chem.  Have a nice day.  *
