 Q-Chem 5.4, Q-Chem, Inc., Pleasanton, CA (2021)
 Q-Chem 5.4.0 for Intel X86 EM64T Linux

User input:
--------------------------------------------------------------
$molecule
-1 2
C                 -3.3914420000     -0.7196160000     -0.3756110000
C                 -1.9822180000     -0.2795940000     -0.0837110000
C                 -1.7117580000      0.7086790000      0.8421110000
C                 -0.3937130000      1.1585960000      1.1518980000
O                 -0.1742480000      2.0807750000      2.0188300000
C                  0.7068100000      0.5227380000      0.4370630000
C                  2.0490480000      0.9230290000      0.6967680000
O                  2.3075830000      1.8899600000      1.6031010000
C                  3.1023690000      0.3179950000      0.0159720000
C                  2.8388980000     -0.6865500000     -0.9261400000
C                  1.5412130000     -1.0922320000     -1.1951990000
C                  0.4595700000     -0.4966410000     -0.5208420000
C                 -0.9175460000     -0.9359650000     -0.8148550000
O                 -1.1569640000     -1.8384250000     -1.6609800000
H                 -4.1115430000     -0.1604030000      0.2282590000
H                 -3.5168660000     -1.7895120000     -0.1770710000
H                 -3.6334160000     -0.5814480000     -1.4349250000
H                 -2.5217780000      1.1917050000      1.3826730000
H                  1.3976220000      2.1634110000      1.9513320000
H                  4.1148690000      0.6410430000      0.2321790000
H                  3.6696400000     -1.1507580000     -1.4505780000
H                  1.3238680000     -1.8667850000     -1.9202740000
$end
$rem
MAX_SCF_CYCLES=200
BASIS  =  6-311++G(d,p)
GUI  =  2
JOB_TYPE  =  SP
METHOD  =  B3LYP
SOLVENT_METHOD = PCM
$end
$pcm
theory = CPCM
$end
$solvent
dielectric 37.219
opticaldielectric 1.43
$end

--------------------------------------------------------------

             Standard Nuclear Orientation (Angstroms)
    I     Atom           X                Y                Z
 ----------------------------------------------------------------
    1      C      -3.3914420000    -0.7196160000    -0.3756110000
    2      C      -1.9822180000    -0.2795940000    -0.0837110000
    3      C      -1.7117580000     0.7086790000     0.8421110000
    4      C      -0.3937130000     1.1585960000     1.1518980000
    5      O      -0.1742480000     2.0807750000     2.0188300000
    6      C       0.7068100000     0.5227380000     0.4370630000
    7      C       2.0490480000     0.9230290000     0.6967680000
    8      O       2.3075830000     1.8899600000     1.6031010000
    9      C       3.1023690000     0.3179950000     0.0159720000
   10      C       2.8388980000    -0.6865500000    -0.9261400000
   11      C       1.5412130000    -1.0922320000    -1.1951990000
   12      C       0.4595700000    -0.4966410000    -0.5208420000
   13      C      -0.9175460000    -0.9359650000    -0.8148550000
   14      O      -1.1569640000    -1.8384250000    -1.6609800000
   15      H      -4.1115430000    -0.1604030000     0.2282590000
   16      H      -3.5168660000    -1.7895120000    -0.1770710000
   17      H      -3.6334160000    -0.5814480000    -1.4349250000
   18      H      -2.5217780000     1.1917050000     1.3826730000
   19      H       1.3976220000     2.1634110000     1.9513320000
   20      H       4.1148690000     0.6410430000     0.2321790000
   21      H       3.6696400000    -1.1507580000    -1.4505780000
   22      H       1.3238680000    -1.8667850000    -1.9202740000
 ----------------------------------------------------------------

    8    -650.0064678402      9.48e-06  Convergence criterion met
 Total energy in the final basis set =     -650.0064678402

                    Orbital Energies (a.u.)
 --------------------------------------------------------------

 Alpha MOs
 -- Occupied --
-19.1321 -19.0922 -19.0796 -10.2352 -10.2311 -10.2237 -10.1761 -10.1759
-10.1748 -10.1743 -10.1658 -10.1633 -10.1613 -10.1567  -1.0553  -1.0053
 -1.0033  -0.8562  -0.8130  -0.7576  -0.7420  -0.7024  -0.6655  -0.6248
 -0.5939  -0.5723  -0.5132  -0.5083  -0.4982  -0.4632  -0.4487  -0.4352
 -0.4342  -0.4218  -0.4129  -0.3988  -0.3881  -0.3792  -0.3771  -0.3768
 -0.3741  -0.3532  -0.3472  -0.3304  -0.2781  -0.2581  -0.2500  -0.2421
 -0.2305  -0.1567

 Beta MOs
 -- Occupied --
-19.1319 -19.0871 -19.0738 -10.2351 -10.2289 -10.2219 -10.1756 -10.1745
-10.1744 -10.1739 -10.1651 -10.1629 -10.1603 -10.1568  -1.0541  -0.9964
 -0.9930  -0.8538  -0.8082  -0.7555  -0.7395  -0.6988  -0.6591  -0.6226
 -0.5911  -0.5700  -0.5120  -0.5062  -0.4948  -0.4609  -0.4477  -0.4320
 -0.4257  -0.4175  -0.4080  -0.3962  -0.3869  -0.3761  -0.3728  -0.3679
 -0.3563  -0.3515  -0.3456  -0.3210  -0.2547  -0.2538  -0.2437  -0.2369
 -0.2223

          Ground-State Mulliken Net Atomic Charges

     Atom                 Charge (a.u.)    Spin (a.u.)
  --------------------------------------------------------
      1 C                    -0.364127       0.002104
      2 C                     0.587406       0.117402
      3 C                    -0.428251       0.051396
      4 C                    -0.909769       0.116553
      5 O                    -0.531601       0.183517
      6 C                     0.953048       0.024758
      7 C                    -0.250047       0.023922
      8 O                    -0.409984       0.007508
      9 C                    -0.154988       0.050353
     10 C                    -0.436956       0.021861
     11 C                    -0.138858       0.059492
     12 C                     0.333158       0.002535
     13 C                    -0.389060       0.123301
     14 O                    -0.489919       0.224383
     15 H                     0.163139      -0.000056
     16 H                     0.174244       0.006605
     17 H                     0.174211       0.006575
     18 H                     0.173006      -0.007948
     19 H                     0.374637      -0.004136
     20 H                     0.200268      -0.004197
     21 H                     0.204838      -0.001954
     22 H                     0.165605      -0.003973
  --------------------------------------------------------
  Sum of atomic charges =    -1.000000

                    Cartesian Multipole Moments
 -----------------------------------------------------------------
    Charge (ESU x 10^10)
                -4.8032
    Dipole Moment (Debye)
         X      -0.0961      Y      -1.2757      Z      -1.2196
       Tot       1.7675
    Quadrupole Moments (Debye-Ang)
        XX     -87.9568     XY      -9.4872     YY    -105.8762
        XZ      -9.0173     YZ     -17.4576     ZZ    -102.7720

 Total job time:  304.90s(wall), 230.68s(cpu)
        *  Thank you very much for using Q-Chem.  Have a nice day.  *
