 Q-Chem 5.4, Q-Chem, Inc., Pleasanton, CA (2021)
 Q-Chem 5.4.0 for Intel X86 EM64T Linux

User input:
--------------------------------------------------------------
$molecule
-2 2
C                 -5.0387930000     -0.0931450000     -3.9542600000
C                 -4.4824440000     -0.0681670000     -5.2224950000
C                 -3.0803140000      0.0018760000     -5.3709760000
C                 -4.2364120000     -0.0501970000     -2.7970930000
C                 -2.8232980000      0.0203240000     -2.9486870000
C                 -2.2733180000      0.0449630000     -4.2476830000
C                 -4.8948320000     -0.0800570000     -1.4653540000
C                 -3.9842070000     -0.0318260000     -0.3319050000
C                 -2.6180270000      0.0361820000     -0.5000110000
C                 -1.9480950000      0.0668200000     -1.7718800000
O                 -6.1410680000     -0.1423170000     -1.3878230000
O                 -0.6856950000      0.1298700000     -1.8854360000
S                 -4.6257680000     -0.0596440000      1.3973980000
O                 -5.4808660000      1.1509990000      1.5383350000
O                 -5.3566950000     -1.3483750000      1.5444010000
O                 -3.3971290000      0.0034420000      2.2489370000
H                 -6.1120720000     -0.1466410000     -3.8055070000
H                 -5.1225920000     -0.1023410000     -6.1012280000
H                 -2.6376810000      0.0218140000     -6.3645800000
H                 -1.1923390000      0.0990260000     -4.3255180000
H                 -1.9962640000      0.0693630000      0.3873150000
$end
$rem
MAX_SCF_CYCLES=200
BASIS  =  6-311++G(d,p)
GUI  =  2
JOB_TYPE  =  SP
METHOD  =  B3LYP
SOLVENT_METHOD = COSMO
$end
$solvent
dielectric 37.219
opticaldielectric 1.43
$end

--------------------------------------------------------------

             Standard Nuclear Orientation (Angstroms)
    I     Atom           X                Y                Z
 ----------------------------------------------------------------
    1      C       2.3443585603    -1.7432453018     0.0000945640
    2      C       3.7081768397    -1.5012374182    -0.0000082619
    3      C       4.1836416702    -0.1720066860    -0.0001553501
    4      C       1.4093977674    -0.6894219858     0.0000813646
    5      C       1.8904814154     0.6497582284    -0.0000008657
    6      C       3.2826879394     0.8783116336    -0.0001564297
    7      C      -0.0402385930    -1.0157526499     0.0001026550
    8      C      -0.9265854276     0.1377897374     0.0001733076
    9      C      -0.4405429682     1.4274002343     0.0002134960
   10      C       0.9536342347     1.7790651958     0.0001325616
   11      O      -0.4099348167    -2.2100374708     0.0001094884
   12      O       1.3621563176     2.9805782961     0.0000604655
   13      S      -2.7585710311    -0.0782933874    -0.0000626204
   14      O      -3.0855767819    -0.8154056828    -1.2516396271
   15      O      -3.0859768887    -0.8163852982     1.2508240601
   16      O      -3.2958616491     1.3181201847     0.0004185995
   17      H       1.9463031878    -2.7524375548     0.0001708231
   18      H       4.4108873433    -2.3314945814     0.0000170020
   19      H       5.2537275348     0.0241734235    -0.0002661245
   20      H       3.6136474199     1.9117343486    -0.0002462550
   21      H      -1.1559470690     2.2417924036     0.0002803411
 ----------------------------------------------------------------

   11   -1158.6068643029      5.32e-06  Convergence criterion met
 Total energy in the final basis set =    -1158.6068643029
    5   -1158.8877428174      7.28e-06  Convergence criterion met
 Total energy in the final basis set =    -1158.8877428174

                    Orbital Energies (a.u.)
 --------------------------------------------------------------

 Alpha MOs
 -- Occupied --
-89.0432 -19.0890 -19.0890 -19.0870 -19.0830 -19.0824 -10.2358 -10.2267
-10.1887 -10.1776 -10.1759 -10.1739 -10.1734 -10.1707 -10.1705 -10.1682
 -8.1018  -6.0646  -6.0646  -6.0634  -1.1049  -1.0117  -1.0013  -0.9710
 -0.9673  -0.8590  -0.8109  -0.7508  -0.7463  -0.6849  -0.6367  -0.6168
 -0.5793  -0.5563  -0.5102  -0.5037  -0.4840  -0.4616  -0.4524  -0.4497
 -0.4333  -0.4247  -0.4217  -0.4203  -0.4113  -0.3910  -0.3842  -0.3562
 -0.3553  -0.3385  -0.3343  -0.3332  -0.3093  -0.2975  -0.2920  -0.2778
 -0.2577  -0.2554  -0.2516  -0.2511  -0.2400  -0.1604

 Beta MOs
 -- Occupied --
-89.0432 -19.0888 -19.0888 -19.0871 -19.0772 -19.0759 -10.2346 -10.2249
-10.1870 -10.1770 -10.1757 -10.1737 -10.1730 -10.1706 -10.1705 -10.1664
 -8.1018  -6.0647  -6.0646  -6.0635  -1.1048  -1.0017  -0.9896  -0.9707
 -0.9673  -0.8570  -0.8054  -0.7491  -0.7444  -0.6755  -0.6345  -0.6143
 -0.5778  -0.5538  -0.5081  -0.5018  -0.4812  -0.4602  -0.4517  -0.4494
 -0.4320  -0.4236  -0.4179  -0.4067  -0.4058  -0.3885  -0.3593  -0.3550
 -0.3466  -0.3375  -0.3340  -0.3329  -0.3026  -0.2954  -0.2917  -0.2553
 -0.2535  -0.2509  -0.2463  -0.2453  -0.2349

          Ground-State Mulliken Net Atomic Charges

     Atom                 Charge (a.u.)    Spin (a.u.)
  --------------------------------------------------------
      1 C                     0.141823       0.018207
      2 C                    -0.433778       0.031765
      3 C                    -0.418637       0.008618
      4 C                    -0.042119       0.009924
      5 C                     0.487957       0.030326
      6 C                     0.069198       0.027785
      7 C                    -0.490528       0.085854
      8 C                    -0.493381       0.123089
      9 C                     0.039473       0.124751
     10 C                    -0.388266       0.100572
     11 O                    -0.435118       0.213127
     12 O                    -0.523679       0.234942
     13 S                     0.761965      -0.001729
     14 O                    -0.409965       0.006982
     15 O                    -0.410035       0.006985
     16 O                    -0.469522      -0.001201
     17 H                     0.178268      -0.001602
     18 H                     0.205962      -0.002502
     19 H                     0.208655      -0.000980
     20 H                     0.175205      -0.003354
     21 H                     0.246522      -0.011559
  --------------------------------------------------------
  Sum of atomic charges =    -2.000000

                    Cartesian Multipole Moments
 -----------------------------------------------------------------
    Charge (ESU x 10^10)
                -9.6064
    Dipole Moment (Debye)
         X      16.5267      Y      -1.6117      Z       0.0020
       Tot      16.6051
    Quadrupole Moments (Debye-Ang)
        XX    -163.1532     XY     -16.1826     YY    -144.9385
        XZ      -0.0033     YZ      -0.0003     ZZ    -114.8759

 Total job time:  61.47s(wall), 468.30s(cpu)
        *  Thank you very much for using Q-Chem.  Have a nice day.  *
