 Gaussian 16, Revision A.03,
 Gaussian 16:  ES64L-G16RevA.03 25-Dec-2016

 --------------------------------------
 #P UB3LYP/6-311++G(d,p) nosym opt freq
 --------------------------------------

 -------
 Radical
 -------
 Symbolic Z-matrix:
 Charge = -2 Multiplicity = 2

 SCF Done:  E(UB3LYP) =  -1158.60684957     A.U. after   25 cycles
 SCF Done:  E(UB3LYP) =  -1158.60684938     A.U. after   12 cycles
 SCF Done:  E(UB3LYP) =  -1158.60684984     A.U. after   12 cycles
 SCF Done:  E(UB3LYP) =  -1158.60684986     A.U. after   10 cycles
 SCF Done:  E(UB3LYP) =  -1158.60684987     A.U. after   10 cycles
 Optimization completed.
    -- Stationary point found.
 Normal termination of Gaussian 16 at Mon Jan  8 21:36:21 2024.

 ----------------------------------------------------------------------
 #P Geom=AllCheck Guess=TCheck SCRF=Check GenChk UB3LYP/6-311++G(d,p) F
 req
 ----------------------------------------------------------------------

 Structure from the checkpoint file:  "315-rad.chk"
 -------
 Radical
 -------
 Charge = -2 Multiplicity = 2

                          Input orientation:
 ---------------------------------------------------------------------
 Center     Atomic      Atomic             Coordinates (Angstroms)
 Number     Number       Type             X           Y           Z
 ---------------------------------------------------------------------
      1          6           0       -5.038793   -0.093145   -3.954260
      2          6           0       -4.482444   -0.068167   -5.222495
      3          6           0       -3.080314    0.001876   -5.370976
      4          6           0       -4.236412   -0.050197   -2.797093
      5          6           0       -2.823298    0.020324   -2.948687
      6          6           0       -2.273318    0.044963   -4.247683
      7          6           0       -4.894832   -0.080057   -1.465354
      8          6           0       -3.984207   -0.031826   -0.331905
      9          6           0       -2.618027    0.036182   -0.500011
     10          6           0       -1.948095    0.066820   -1.771880
     11          8           0       -6.141068   -0.142317   -1.387823
     12          8           0       -0.685695    0.129870   -1.885436
     13         16           0       -4.625768   -0.059644    1.397398
     14          8           0       -5.480866    1.150999    1.538335
     15          8           0       -5.356695   -1.348375    1.544401
     16          8           0       -3.397129    0.003442    2.248937
     17          1           0       -6.112072   -0.146641   -3.805507
     18          1           0       -5.122592   -0.102341   -6.101228
     19          1           0       -2.637681    0.021814   -6.364580
     20          1           0       -1.192339    0.099026   -4.325518
     21          1           0       -1.996264    0.069363    0.387315
 ---------------------------------------------------------------------

 SCF Done:  E(UB3LYP) =  -1158.60684987     A.U. after    2 cycles

 Alpha  occ. eigenvalues --  -88.76915 -18.84041 -18.83665 -18.81131 -18.81101
 Alpha  occ. eigenvalues --  -18.81100  -9.99022  -9.98614  -9.96965  -9.96834
 Alpha  occ. eigenvalues --   -9.95965  -9.95792  -9.95117  -9.95061  -9.94156
 Alpha  occ. eigenvalues --   -9.92447  -7.82735  -5.79000  -5.78985  -5.78945
 Alpha  occ. eigenvalues --   -0.82702  -0.76380  -0.75873  -0.69100  -0.68924
 Alpha  occ. eigenvalues --   -0.64150  -0.57538  -0.53564  -0.52039  -0.44598
 Alpha  occ. eigenvalues --   -0.40550  -0.39205  -0.34559  -0.31842  -0.28457
 Alpha  occ. eigenvalues --   -0.26651  -0.24431  -0.22710  -0.21247  -0.20450
 Alpha  occ. eigenvalues --   -0.18731  -0.18708  -0.17334  -0.17004  -0.16744
 Alpha  occ. eigenvalues --   -0.15830  -0.13925  -0.13348  -0.13222  -0.11781
 Alpha  occ. eigenvalues --   -0.05391  -0.05174  -0.04648  -0.04190  -0.03948
 Alpha  occ. eigenvalues --   -0.02983  -0.01558  -0.00521  -0.00392   0.01040
 Alpha  occ. eigenvalues --    0.02671   0.08163
 Alpha virt. eigenvalues --    0.14406   0.16367   0.18169   0.18876   0.19912
 Alpha virt. eigenvalues --    0.20546   0.22138   0.23235   0.24857   0.25709
 Alpha virt. eigenvalues --    0.26019   0.26103   0.26603   0.27208   0.27491

  Beta  occ. eigenvalues --  -88.76918 -18.83363 -18.83009 -18.81137 -18.81086
  Beta  occ. eigenvalues --  -18.81086  -9.98949  -9.98457  -9.96934  -9.96765
  Beta  occ. eigenvalues --   -9.95969  -9.95828  -9.95013  -9.94968  -9.93994
  Beta  occ. eigenvalues --   -9.92361  -7.82738  -5.79002  -5.78987  -5.78953
  Beta  occ. eigenvalues --   -0.82688  -0.75268  -0.74681  -0.69069  -0.68921
  Beta  occ. eigenvalues --   -0.63958  -0.57018  -0.53414  -0.51796  -0.43715
  Beta  occ. eigenvalues --   -0.40394  -0.38918  -0.34369  -0.31669  -0.28238
  Beta  occ. eigenvalues --   -0.26431  -0.24233  -0.22533  -0.21217  -0.20340
  Beta  occ. eigenvalues --   -0.18440  -0.17704  -0.17107  -0.16839  -0.16390
  Beta  occ. eigenvalues --   -0.15498  -0.13091  -0.12234  -0.11517  -0.11379
  Beta  occ. eigenvalues --   -0.05372  -0.05137  -0.03772  -0.03385  -0.02711
  Beta  occ. eigenvalues --   -0.01911  -0.01504   0.00073   0.00447   0.01519
  Beta  occ. eigenvalues --    0.02686
  Beta virt. eigenvalues --    0.14393   0.14749   0.16358   0.18671   0.18866
  Beta virt. eigenvalues --    0.20529   0.21099   0.22144   0.23259   0.24859
  Beta virt. eigenvalues --    0.25721   0.26120   0.26140   0.26616   0.27300

 Mulliken charges and spin densities:
               1          2
     1  C    0.079565  -0.002648
     2  C   -0.384547   0.055437
     3  C   -0.321167   0.023185
     4  C    0.137862   0.068185
     5  C    0.587169   0.075486
     6  C    0.007895   0.014505
     7  C   -0.666703   0.039204
     8  C   -0.371877   0.116312
     9  C    0.044846   0.048265
    10  C   -0.663078   0.076949
    11  O   -0.308326   0.247505
    12  O   -0.434601   0.245750
    13  S    0.639396  -0.002954
    14  O   -0.325505   0.007177
    15  O   -0.325443   0.007174
    16  O   -0.394088  -0.001138
    17  H    0.137351  -0.001333
    18  H    0.094505  -0.004559
    19  H    0.095704  -0.002235
    20  H    0.132298  -0.003128
    21  H    0.238746  -0.007140
 Sum of Mulliken charges =  -2.00000   1.00000

 Dipole moment (field-independent basis, Debye):
    X=             38.6924    Y=              0.3214    Z=              1.8348  Tot=             38.7373
 Quadrupole moment (field-independent basis, Debye-Ang):
   XX=           -307.6360   YY=           -115.3120   ZZ=           -163.4267
   XY=             -3.0878   XZ=              8.9003   YZ=              0.6411

  Exact polarizability: 208.006   5.182 104.211 -11.872  -0.229 261.713
 Approx polarizability: 387.691  11.152 165.276  -9.270  -0.012 360.745

                      1                      2                      3
                      A                      A                      A
 Frequencies --     42.8663                54.1645               129.7829
 Red. masses --     10.4815                11.1408                 4.6082
 Frc consts  --      0.0113                 0.0193                 0.0457
 IR Inten    --      0.7587                 0.1869                 0.1056

                      4                      5                      6
                      A                      A                      A
 Frequencies --    138.5138               139.6173               192.5683
 Red. masses --     10.0876                11.2617                 6.4926
 Frc consts  --      0.1140                 0.1293                 0.1419
 IR Inten    --      0.6595                 6.5317                 0.3608

                      7                      8                      9
                      A                      A                      A
 Frequencies --    230.9269               265.3144               272.2785
 Red. masses --     12.5291                 6.8599                 7.0452
 Frc consts  --      0.3937                 0.2845                 0.3077
 IR Inten    --      1.3862                 1.6921                 0.9573

                     10                     11                     12
                      A                      A                      A
 Frequencies --    297.8762               365.7380               397.3306
 Red. masses --     14.8969                10.8827                 6.3648
 Frc consts  --      0.7788                 0.8577                 0.5920
 IR Inten    --      1.0436                 3.8317                 0.2632

                     13                     14                     15
                      A                      A                      A
 Frequencies --    434.5413               467.9816               471.5492
 Red. masses --      3.8591                 5.9578                 9.8132
 Frc consts  --      0.4293                 0.7688                 1.2856
 IR Inten    --      3.4056                 4.9985                 0.2132

                     16                     17                     18
                      A                      A                      A
 Frequencies --    489.5494               492.3437               532.9280
 Red. masses --      9.5449                16.5246                 8.8456
 Frc consts  --      1.3478                 2.3600                 1.4802
 IR Inten    --      7.0846                13.1524                 8.6223

                     19                     20                     21
                      A                      A                      A
 Frequencies --    578.4599               627.6202               647.9918
 Red. masses --      9.3916                11.2371                 3.8077
 Frc consts  --      1.8516                 2.6079                 0.9420
 IR Inten    --     91.0895               150.3502                 6.4875

                     22                     23                     24
                      A                      A                      A
 Frequencies --    668.5987               693.4882               723.3355
 Red. masses --      6.3052                 2.9500                 6.3651
 Frc consts  --      1.6607                 0.8359                 1.9622
 IR Inten    --     10.7307                45.3140                 7.4618

                     25                     26                     27
                      A                      A                      A
 Frequencies --    753.8149               760.4244               818.0787
 Red. masses --      2.1505                 3.6209                 8.9977
 Frc consts  --      0.7200                 1.2336                 3.5479
 IR Inten    --     28.2446                 5.5901                15.9824

                     28                     29                     30
                      A                      A                      A
 Frequencies --    827.9345               834.4702               914.0003
 Red. masses --      5.2085                 1.3778                 1.3673
 Frc consts  --      2.1036                 0.5653                 0.6730
 IR Inten    --      8.3675                 0.0435                14.7723

                     31                     32                     33
                      A                      A                      A
 Frequencies --    955.9109               964.8283               967.1918
 Red. masses --      1.2382                 1.3331                15.5149
 Frc consts  --      0.6666                 0.7312                 8.5511
 IR Inten    --      0.7996                 1.9748               282.5792

                     34                     35                     36
                      A                      A                      A
 Frequencies --   1027.6440              1078.6484              1094.3459
 Red. masses --      2.3925                 3.4328                 3.0084
 Frc consts  --      1.4887                 2.3532                 2.1227
 IR Inten    --     53.1031                16.1241                18.7766

                     37                     38                     39
                      A                      A                      A
 Frequencies --   1120.7751              1134.5221              1146.2148
 Red. masses --      4.8968                 1.5303                 2.1859
 Frc consts  --      3.6241                 1.1606                 1.6921
 IR Inten    --    123.0755                11.3403               110.4062

                     40                     41                     42
                      A                      A                      A
 Frequencies --   1149.9956              1201.2190              1233.4924
 Red. masses --     20.6265                 2.3286                 1.8366
 Frc consts  --     16.0719                 1.9796                 1.6464
 IR Inten    --    335.9661                 6.5091                40.9601

                     43                     44                     45
                      A                      A                      A
 Frequencies --   1276.5814              1353.9389              1372.2482
 Red. masses --      1.8204                10.3765                 3.6621
 Frc consts  --      1.7479                11.2073                 4.0630
 IR Inten    --     37.7116                31.5328                 2.4302

                     46                     47                     48
                      A                      A                      A
 Frequencies --   1440.1583              1459.1915              1486.9190
 Red. masses --      3.4271                 2.8665                 5.3500
 Frc consts  --      4.1879                 3.5961                 6.9692
 IR Inten    --    223.5392                37.2859                56.8191

                     49                     50                     51
                      A                      A                      A
 Frequencies --   1530.7064              1538.5869              1604.9374
 Red. masses --      4.7747                 7.2510                 6.9416
 Frc consts  --      6.5914                10.1133                10.5349
 IR Inten    --    167.0357               262.1069                29.6040

                     52                     53                     54
                      A                      A                      A
 Frequencies --   1618.8706              3106.8629              3129.5096
 Red. masses --      7.1254                 1.0834                 1.0911
 Frc consts  --     11.0024                 6.1614                 6.2962
 IR Inten    --     19.0926                26.9684                89.9431

                     55                     56                     57
                      A                      A                      A
 Frequencies --   3166.5783              3171.2033              3182.5551
 Red. masses --      1.0909                 1.0914                 1.0881
 Frc consts  --      6.4449                 6.4664                 6.4934
 IR Inten    --     25.3933                29.9718                 7.2534

 - Thermochemistry -
 -------------------
 Temperature   298.150 Kelvin.  Pressure   1.00000 Atm.
 Atom     1 has atomic number  6 and mass  12.00000

 Molecular mass:   236.98577 amu.
 Principal axes and moments of inertia in atomic units:
                           1         2         3
     Eigenvalues --  1786.445245462.871136891.61932
           X           -0.24620   0.96793  -0.05004
           Y           -0.01004   0.04907   0.99874
           Z            0.96917   0.24639  -0.00236
 This molecule is an asymmetric top.
 Rotational symmetry number  1.
 Warning -- assumption of classical behavior for rotation
           may cause significant error
 Rotational temperatures (Kelvin)      0.04848     0.01586     0.01257
 Rotational constants (GHZ):           1.01024     0.33036     0.26187
 Zero-point vibrational energy     345587.5 (Joules/Mol)
                                   82.59740 (Kcal/Mol)
 Warning -- explicit consideration of  19 degrees of freedom as
           vibrations may cause significant error
 Vibrational temperatures:     61.68    77.93   186.73   199.29   200.88
          (Kelvin)            277.06   332.25   381.73   391.75   428.58
                              526.22   571.67   625.21   673.32   678.45
                              704.35   708.37   766.76   832.27   903.01
                              932.32   961.96   997.77  1040.72  1084.57
                             1094.08  1177.03  1191.21  1200.62  1315.04
                             1375.34  1388.17  1391.57  1478.55  1551.93
                             1574.52  1612.55  1632.32  1649.15  1654.59
                             1728.29  1774.72  1836.72  1948.02  1974.36
                             2072.07  2099.45  2139.34  2202.35  2213.68
                             2309.15  2329.19  4470.08  4502.67  4556.00
                             4562.65  4578.99

 Zero-point correction=                           0.131627 (Hartree/Particle)
 Thermal correction to Energy=                    0.144299
 Thermal correction to Enthalpy=                  0.145244
 Thermal correction to Gibbs Free Energy=         0.091069
 Sum of electronic and zero-point Energies=          -1158.475223
 Sum of electronic and thermal Energies=             -1158.462550
 Sum of electronic and thermal Enthalpies=           -1158.461606
 Sum of electronic and thermal Free Energies=        -1158.515781

                     E (Thermal)             CV                S
                      KCal/Mol        Cal/Mol-Kelvin    Cal/Mol-Kelvin
 Total                   90.549             48.938            114.021
 Electronic               0.000              0.000              1.377
 Translational            0.889              2.981             42.290
 Rotational               0.889              2.981             32.575
 Vibrational             88.772             42.976             37.779
 Vibration     1          0.595              1.980              5.122
 Vibration     2          0.596              1.976              4.659
 Vibration     3          0.612              1.924              2.949
 Vibration     4          0.614              1.915              2.824
 Vibration     5          0.615              1.914              2.809
 Vibration     6          0.635              1.850              2.203
 Vibration     7          0.653              1.794              1.872
 Vibration     8          0.671              1.737              1.627
 Vibration     9          0.675              1.724              1.582
 Vibration    10          0.691              1.678              1.429
 Vibration    11          0.739              1.543              1.098
 Vibration    12          0.764              1.476              0.973
 Vibration    13          0.795              1.395              0.844
 Vibration    14          0.825              1.321              0.743
 Vibration    15          0.828              1.313              0.733
 Vibration    16          0.845              1.273              0.685
 Vibration    17          0.848              1.267              0.678
 Vibration    18          0.888              1.177              0.581
 Vibration    19          0.935              1.078              0.488

 Optimization completed.
    -- Stationary point found.
 Normal termination of Gaussian 16 at Mon Jan  8 22:01:41 2024.
