 Gaussian 16, Revision A.03,
 Gaussian 16:  ES64L-G16RevA.03 25-Dec-2016

 ----------------------------------------------------------------
 #P UB3LYP/6-311++G(d,p) SCRF=(PCM,Solvent=n,n-DiMethylFormamide)
 ----------------------------------------------------------------

 -------
 Reduced
 -------
 Symbolic Z-matrix:
 Charge = -2 Multiplicity = 1

                         Standard orientation:
 ---------------------------------------------------------------------
 Center     Atomic      Atomic             Coordinates (Angstroms)
 Number     Number       Type             X           Y           Z
 ---------------------------------------------------------------------
      1          6           0       -0.261966    1.394554   -0.000145
      2          6           0       -1.454423    0.710578   -0.000126
      3          6           0       -1.454425   -0.710608   -0.000159
      4          6           0        0.983589    0.727533   -0.000155
      5          6           0        0.983592   -0.727536   -0.000123
      6          6           0       -0.261959   -1.394572   -0.000154
      7          6           0        2.208898    1.512570   -0.000060
      8          6           0        3.376405    0.704258    0.000197
      9          6           0        3.376412   -0.704252    0.000245
     10          6           0        2.208899   -1.512565    0.000059
     11          8           0        2.211311    2.808000   -0.000133
     12          8           0        2.211320   -2.807998   -0.000042
     13          1           0       -0.232836    2.479206   -0.000079
     14          1           0       -0.232748   -2.479217   -0.000112
     15         17           0       -2.994346   -1.630501    0.000041
     16         17           0       -2.994324    1.630514    0.000160
     17          1           0        4.330890    1.232464    0.000310
     18          1           0        4.330898   -1.232449    0.000394
 ---------------------------------------------------------------------

 SCF Done:  E(UB3LYP) =  -1454.76092752     A.U. after   19 cycles

 The electronic state is 1-A.
 Alpha  occ. eigenvalues -- -101.54950-101.54950 -19.01990 -19.01990 -10.22682
 Alpha  occ. eigenvalues --  -10.22638 -10.17580 -10.17579 -10.16590 -10.16588
 Alpha  occ. eigenvalues --  -10.15055 -10.15019 -10.12671 -10.12622  -9.46367
 Alpha  occ. eigenvalues --   -9.46366  -7.22810  -7.22810  -7.21864  -7.21863
 Alpha  occ. eigenvalues --   -7.21834  -7.21834  -0.93475  -0.93097  -0.88957
 Alpha  occ. eigenvalues --   -0.84166  -0.81704  -0.76215  -0.73418  -0.70041
 Alpha  occ. eigenvalues --   -0.64699  -0.60271  -0.58179  -0.53766  -0.48255
 Alpha  occ. eigenvalues --   -0.47728  -0.45439  -0.42447  -0.42046  -0.40169
 Alpha  occ. eigenvalues --   -0.39994  -0.39203  -0.36261  -0.36159  -0.36001
 Alpha  occ. eigenvalues --   -0.34027  -0.32795  -0.32597  -0.32000  -0.31717
 Alpha  occ. eigenvalues --   -0.30354  -0.29978  -0.23977  -0.22705  -0.21979
 Alpha  occ. eigenvalues --   -0.20187  -0.19837  -0.11854
 Alpha virt. eigenvalues --   -0.02000  -0.00938  -0.00225   0.00364   0.01676
 Alpha virt. eigenvalues --    0.01732   0.02975   0.04301   0.04375   0.05393
 Alpha virt. eigenvalues --    0.05579   0.06386   0.06823   0.07195   0.07490

  Beta  occ. eigenvalues -- -101.54950-101.54950 -19.01990 -19.01990 -10.22682
  Beta  occ. eigenvalues --  -10.22638 -10.17580 -10.17579 -10.16590 -10.16588
  Beta  occ. eigenvalues --  -10.15055 -10.15019 -10.12671 -10.12622  -9.46367
  Beta  occ. eigenvalues --   -9.46366  -7.22810  -7.22810  -7.21864  -7.21863
  Beta  occ. eigenvalues --   -7.21834  -7.21834  -0.93475  -0.93097  -0.88957
  Beta  occ. eigenvalues --   -0.84166  -0.81704  -0.76215  -0.73418  -0.70041
  Beta  occ. eigenvalues --   -0.64699  -0.60271  -0.58179  -0.53766  -0.48255
  Beta  occ. eigenvalues --   -0.47728  -0.45439  -0.42447  -0.42046  -0.40169
  Beta  occ. eigenvalues --   -0.39994  -0.39203  -0.36261  -0.36159  -0.36001
  Beta  occ. eigenvalues --   -0.34027  -0.32795  -0.32597  -0.32000  -0.31717
  Beta  occ. eigenvalues --   -0.30354  -0.29978  -0.23977  -0.22705  -0.21979
  Beta  occ. eigenvalues --   -0.20187  -0.19837  -0.11854
  Beta virt. eigenvalues --   -0.02000  -0.00938  -0.00225   0.00364   0.01676
  Beta virt. eigenvalues --    0.01732   0.02975   0.04301   0.04375   0.05393
  Beta virt. eigenvalues --    0.05579   0.06386   0.06823   0.07195   0.07490

 Mulliken charges and spin densities:
               1          2
     1  C   -0.905038  -0.000000
     2  C    0.737358   0.000000
     3  C    0.737428  -0.000000
     4  C   -0.321986   0.000000
     5  C   -0.321835   0.000000
     6  C   -0.904999  -0.000000
     7  C   -0.630445   0.000000
     8  C   -0.004553   0.000000
     9  C   -0.004551  -0.000000
    10  C   -0.630432   0.000000
    11  O   -0.706529   0.000000
    12  O   -0.706530  -0.000000
    13  H    0.195637  -0.000000
    14  H    0.195633  -0.000000
    15  Cl   0.500494  -0.000000
    16  Cl   0.500509  -0.000000
    17  H    0.134919   0.000000
    18  H    0.134921  -0.000000
 Sum of Mulliken charges =  -2.00000  -0.00000

 Dipole moment (field-independent basis, Debye):
    X=            -13.6103    Y=             -0.0000    Z=              0.0005  Tot=             13.6103
 Quadrupole moment (field-independent basis, Debye-Ang):
   XX=           -158.3443   YY=           -162.9805   ZZ=           -103.9993
   XY=             -0.0000   XZ=              0.0009   YZ=              0.0010

 Normal termination of Gaussian 16 at Sun Jan 21 08:42:29 2024.
