 Gaussian 16, Revision A.03,
 Gaussian 16:  ES64L-G16RevA.03 25-Dec-2016

 ----------------------------------------------------------------
 #P UB3LYP/6-311++G(d,p) SCRF=(PCM,Solvent=n,n-DiMethylFormamide)
 ----------------------------------------------------------------

 ------------------
 Quinone PCM in DMF
 ------------------
 Symbolic Z-matrix:
 Charge = -1 Multiplicity = 1

                         Standard orientation:
 ---------------------------------------------------------------------
 Center     Atomic      Atomic             Coordinates (Angstroms)
 Number     Number       Type             X           Y           Z
 ---------------------------------------------------------------------
      1          8           0       -0.432179    3.083652   -0.015938
      2          6           0       -0.537545    1.737418   -0.013634
      3          6           0       -1.855811    1.207727   -0.021368
      4          8           0       -2.836303    2.125115   -0.033599
      5          6           0       -2.063394   -0.170840   -0.030980
      6          6           0       -0.963760   -1.024721   -0.030999
      7          6           0        0.334959   -0.525938   -0.015557
      8          6           0        1.445408   -1.500785   -0.015614
      9          8           0        1.262137   -2.712564   -0.025960
     10          6           0        2.839657   -0.958899   -0.004807
     11          6           0        3.918596   -1.850295   -0.009852
     12          6           0        5.222183   -1.371450   -0.000362
     13          6           0        5.459822    0.007031    0.014100
     14          6           0        4.393026    0.896673    0.019046
     15          6           0        3.076505    0.421942    0.009231
     16          6           0        1.951564    1.420024    0.015447
     17          8           0        2.215579    2.613990    0.035549
     18          6           0        0.573085    0.884151   -0.003619
     19         16           0       -3.760699   -0.849582    0.024096
     20          8           0       -4.586277    0.367916   -0.342407
     21          8           0       -3.808749   -1.912671   -0.990976
     22          8           0       -3.965807   -1.282460    1.417469
     23          1           0       -1.344329    3.417996   -0.037652
     24          1           0       -3.709944    1.603382   -0.145430
     25          1           0       -1.112831   -2.096662   -0.049059
     26          1           0        3.703246   -2.911808   -0.020707
     27          1           0        6.055363   -2.066261   -0.004231
     28          1           0        6.477787    0.382192    0.021619
     29          1           0        4.548908    1.968433    0.030622
 ---------------------------------------------------------------------

 SCF Done:  E(UB3LYP) =  -1462.93456860     A.U. after   16 cycles

 The electronic state is 1-A.
 Alpha  occ. eigenvalues --  -89.06770 -19.17379 -19.16399 -19.12447 -19.12357
 Alpha  occ. eigenvalues --  -19.11503 -19.11063 -19.10925 -10.28116 -10.27791
 Alpha  occ. eigenvalues --  -10.26907 -10.26805 -10.21923 -10.21245 -10.20646
 Alpha  occ. eigenvalues --  -10.20468 -10.20388 -10.20241 -10.19593 -10.19539
 Alpha  occ. eigenvalues --  -10.19395 -10.19360  -8.12640  -6.08927  -6.08879
 Alpha  occ. eigenvalues --   -6.08829  -1.13343  -1.10477  -1.07029  -1.05848
 Alpha  occ. eigenvalues --   -1.05680  -0.99802  -0.99393  -0.89198  -0.88000
 Alpha  occ. eigenvalues --   -0.81362  -0.78038  -0.77408  -0.76689  -0.70115
 Alpha  occ. eigenvalues --   -0.67588  -0.65930  -0.62320  -0.62084  -0.60139
 Alpha  occ. eigenvalues --   -0.58708  -0.56304  -0.53376  -0.52324  -0.51747
 Alpha  occ. eigenvalues --   -0.50206  -0.49237  -0.47698  -0.47457  -0.46423
 Alpha  occ. eigenvalues --   -0.45967  -0.45488  -0.45148  -0.44867  -0.44538
 Alpha  occ. eigenvalues --   -0.43946  -0.42124  -0.41590  -0.40405  -0.39392
 Alpha  occ. eigenvalues --   -0.39019  -0.37958  -0.37870  -0.36545  -0.35917
 Alpha  occ. eigenvalues --   -0.35286  -0.34926  -0.32131  -0.32073  -0.30969
 Alpha  occ. eigenvalues --   -0.28305  -0.28165  -0.27699  -0.27529  -0.26858
 Alpha  occ. eigenvalues --   -0.26713  -0.24018
 Alpha virt. eigenvalues --   -0.11343  -0.07087  -0.03553  -0.02055  -0.00622
 Alpha virt. eigenvalues --    0.00047   0.00971   0.01999   0.02056   0.03307
 Alpha virt. eigenvalues --    0.03753   0.03882   0.04046   0.04532   0.04737

  Beta  occ. eigenvalues --  -89.06770 -19.17379 -19.16399 -19.12447 -19.12357
  Beta  occ. eigenvalues --  -19.11503 -19.11063 -19.10925 -10.28116 -10.27791
  Beta  occ. eigenvalues --  -10.26907 -10.26805 -10.21923 -10.21245 -10.20646
  Beta  occ. eigenvalues --  -10.20468 -10.20388 -10.20241 -10.19593 -10.19539
  Beta  occ. eigenvalues --  -10.19395 -10.19360  -8.12640  -6.08927  -6.08879
  Beta  occ. eigenvalues --   -6.08829  -1.13343  -1.10477  -1.07029  -1.05848
  Beta  occ. eigenvalues --   -1.05680  -0.99802  -0.99393  -0.89198  -0.88000
  Beta  occ. eigenvalues --   -0.81362  -0.78038  -0.77408  -0.76689  -0.70115
  Beta  occ. eigenvalues --   -0.67588  -0.65930  -0.62320  -0.62084  -0.60139
  Beta  occ. eigenvalues --   -0.58708  -0.56304  -0.53376  -0.52324  -0.51747
  Beta  occ. eigenvalues --   -0.50206  -0.49237  -0.47698  -0.47457  -0.46423
  Beta  occ. eigenvalues --   -0.45967  -0.45488  -0.45148  -0.44867  -0.44538
  Beta  occ. eigenvalues --   -0.43946  -0.42124  -0.41590  -0.40405  -0.39392
  Beta  occ. eigenvalues --   -0.39019  -0.37958  -0.37870  -0.36545  -0.35917
  Beta  occ. eigenvalues --   -0.35286  -0.34926  -0.32131  -0.32073  -0.30969
  Beta  occ. eigenvalues --   -0.28305  -0.28165  -0.27699  -0.27529  -0.26858
  Beta  occ. eigenvalues --   -0.26713  -0.24018
  Beta virt. eigenvalues --   -0.11343  -0.07087  -0.03553  -0.02055  -0.00622
  Beta virt. eigenvalues --    0.00047   0.00971   0.01999   0.02056   0.03307
  Beta virt. eigenvalues --    0.03753   0.03882   0.04046   0.04532   0.04737

 Mulliken charges and spin densities:
               1          2
     1  O   -0.236225  -0.000000
     2  C   -0.206536   0.000000
     3  C   -0.490242  -0.000000
     4  O   -0.447023  -0.000000
     5  C   -0.293293  -0.000000
     6  C   -0.253478   0.000000
     7  C    0.651835   0.000000
     8  C   -0.631978   0.000000
     9  O   -0.284119  -0.000000
    10  C    0.371203   0.000000
    11  C    0.116266  -0.000000
    12  C   -0.482291  -0.000000
    13  C   -0.517542   0.000000
    14  C    0.170521   0.000000
    15  C    0.031432  -0.000000
    16  C   -0.428745  -0.000000
    17  O   -0.285712  -0.000000
    18  C    0.580752   0.000000
    19  S    0.903510  -0.000000
    20  O   -0.466950  -0.000000
    21  O   -0.301087  -0.000000
    22  O   -0.258729  -0.000000
    23  H    0.324520  -0.000000
    24  H    0.468703   0.000000
    25  H    0.192839  -0.000000
    26  H    0.178903  -0.000000
    27  H    0.206206  -0.000000
    28  H    0.205036  -0.000000
    29  H    0.182225  -0.000000
 Sum of Mulliken charges =  -1.00000   0.00000

 Dipole moment (field-independent basis, Debye):
    X=             16.4513    Y=              3.4975    Z=             -0.3780  Tot=             16.8232
 Quadrupole moment (field-independent basis, Debye-Ang):
   XX=           -185.9862   YY=           -163.5435   ZZ=           -143.3457
   XY=            -27.4583   XZ=              1.1461   YZ=             -0.5330

 Normal termination of Gaussian 16 at Tue Jan 16 06:44:05 2024.
