 Q-Chem 5.4, Q-Chem, Inc., Pleasanton, CA (2021)
 Q-Chem 5.4.0 for Intel X86 EM64T Linux

User input:
--------------------------------------------------------------
$molecule
-2 1
C                  0.2951880000      3.9377870000      0.3229160000
C                 -0.8877440000      3.5721910000      0.9409060000
C                 -1.2740330000      2.2082490000      0.9585090000
C                  1.1421480000      2.9897170000     -0.2957470000
C                  0.7472290000      1.6071670000     -0.2854060000
C                 -0.4665820000      1.2615030000      0.3540870000
C                  2.3676270000      3.4440310000     -0.9468560000
C                  3.1438220000      2.3906290000     -1.5240340000
C                  2.7684080000      1.0139610000     -1.5107970000
C                  1.5537360000      0.5650420000     -0.9086780000
O                  2.6923980000      4.6887710000     -0.9681640000
O                  1.1807110000     -0.6734630000     -0.8865740000
H                  0.6215640000      4.9726770000      0.2884640000
H                 -1.5172190000      4.3257700000      1.4118590000
H                 -2.2027640000      1.9093830000      1.4426490000
H                 -0.7326020000      0.2088940000      0.3447530000
S                  4.6385920000      2.8601120000     -2.4203050000
C                  3.6426060000     -0.0508940000     -2.1260410000
H                  3.6724260000      0.0091420000     -3.2251880000
H                  3.2290690000     -1.0241720000     -1.8513550000
H                  4.6844890000      0.0284680000     -1.7897610000
C                  5.5768340000      3.8782640000     -1.2007690000
C                  6.7091970000      4.6274490000     -1.8997220000
H                  5.9739680000      3.2165790000     -0.4234150000
H                  4.8413750000      4.5594770000     -0.7681320000
H                  7.4017840000      3.9436130000     -2.4082330000
H                  7.2956860000      5.2106740000     -1.1793430000
H                  6.3137030000      5.3185510000     -2.6506320000
$end

$rem
BASIS  =  6-311++G(d,p)
GUI  =  2
JOB_TYPE  =  SP
METHOD  =  B3LYP
SCF_CONVERGENCE  = 8
SOLVENT_METHOD = sm12
$end

$smx
solvent dimethylformamide
charges CM5
$end

--------------------------------------------------------------

             Standard Nuclear Orientation (Angstroms)
    I     Atom           X                Y                Z
 ----------------------------------------------------------------
    1      C       0.2951880000     3.9377870000     0.3229160000
    2      C      -0.8877440000     3.5721910000     0.9409060000
    3      C      -1.2740330000     2.2082490000     0.9585090000
    4      C       1.1421480000     2.9897170000    -0.2957470000
    5      C       0.7472290000     1.6071670000    -0.2854060000
    6      C      -0.4665820000     1.2615030000     0.3540870000
    7      C       2.3676270000     3.4440310000    -0.9468560000
    8      C       3.1438220000     2.3906290000    -1.5240340000
    9      C       2.7684080000     1.0139610000    -1.5107970000
   10      C       1.5537360000     0.5650420000    -0.9086780000
   11      O       2.6923980000     4.6887710000    -0.9681640000
   12      O       1.1807110000    -0.6734630000    -0.8865740000
   13      H       0.6215640000     4.9726770000     0.2884640000
   14      H      -1.5172190000     4.3257700000     1.4118590000
   15      H      -2.2027640000     1.9093830000     1.4426490000
   16      H      -0.7326020000     0.2088940000     0.3447530000
   17      S       4.6385920000     2.8601120000    -2.4203050000
   18      C       3.6426060000    -0.0508940000    -2.1260410000
   19      H       3.6724260000     0.0091420000    -3.2251880000
   20      H       3.2290690000    -1.0241720000    -1.8513550000
   21      H       4.6844890000     0.0284680000    -1.7897610000
   22      C       5.5768340000     3.8782640000    -1.2007690000
   23      C       6.7091970000     4.6274490000    -1.8997220000
   24      H       5.9739680000     3.2165790000    -0.4234150000
   25      H       4.8413750000     4.5594770000    -0.7681320000
   26      H       7.4017840000     3.9436130000    -2.4082330000
   27      H       7.2956860000     5.2106740000    -1.1793430000
   28      H       6.3137030000     5.3185510000    -2.6506320000
 ----------------------------------------------------------------

   18   -1051.4252654246      5.16e-09  Convergence criterion met
 Total energy in the final basis set =    -1051.7044275310

                    Orbital Energies (a.u.)
 --------------------------------------------------------------

 Alpha MOs
 -- Occupied --
-88.8248 -19.0229 -19.0195 -10.1853 -10.1833 -10.1795 -10.1746 -10.1740
-10.1698 -10.1685 -10.1679 -10.1614 -10.1553 -10.1547 -10.1539 -10.1454
 -7.9098  -5.8737  -5.8700  -5.8638  -0.9426  -0.9349  -0.8444  -0.8030
 -0.7772  -0.7425  -0.7421  -0.7099  -0.6669  -0.6412  -0.6064  -0.5848
 -0.5682  -0.5368  -0.4941  -0.4795  -0.4540  -0.4470  -0.4394  -0.4254
 -0.4193  -0.4120  -0.3918  -0.3864  -0.3809  -0.3780  -0.3644  -0.3634
 -0.3554  -0.3490  -0.3350  -0.3267  -0.3209  -0.3159  -0.2976  -0.2480
 -0.2384  -0.2304  -0.2051  -0.1997  -0.1944  -0.1202

          Ground-State Mulliken Net Atomic Charges

     Atom                 Charge (a.u.)
  ----------------------------------------
      1 C                     0.091729
      2 C                     1.235244
      3 C                     1.434216
      4 C                    -1.579177
      5 C                    -1.986157
      6 C                    -0.453942
      7 C                    -1.693141
      8 C                     0.594486
      9 C                    -0.325584
     10 C                    -2.115850
     11 O                    -0.246328
     12 O                    -0.371682
     13 H                     0.118564
     14 H                     0.404129
     15 H                     0.398237
     16 H                     0.098651
     17 S                     0.670227
     18 C                     0.685994
     19 H                     0.152614
     20 H                     0.142857
     21 H                     0.160025
     22 C                    -0.564600
     23 C                     0.475427
     24 H                     0.054372
     25 H                    -0.021966
     26 H                     0.183748
     27 H                     0.289741
     28 H                     0.168167
  ----------------------------------------
  Sum of atomic charges =    -2.000000

                    Cartesian Multipole Moments
 -----------------------------------------------------------------
    Charge (ESU x 10^10)
                -9.6064
    Dipole Moment (Debye)
         X     -18.0324      Y     -19.1447      Z       9.3375
       Tot      27.9083
    Quadrupole Moments (Debye-Ang)
        XX    -173.5371     XY     -44.5699     YY    -201.7592
        XZ      32.1334     YZ      18.7169     ZZ    -134.6209

 Total job time:  665.30s(wall), 5132.77s(cpu)
        *  Thank you very much for using Q-Chem.  Have a nice day.  *
