 Gaussian 16, Revision A.03,
 Gaussian 16:  ES64L-G16RevA.03 25-Dec-2016

 ----------------------------------------------------------------
 #P UB3LYP/6-311++G(d,p) SCRF=(PCM,Solvent=n,n-DiMethylFormamide)
 ----------------------------------------------------------------

 -------
 Reduced
 -------
 Symbolic Z-matrix:
 Charge = -2 Multiplicity = 1

                         Standard orientation:
 ---------------------------------------------------------------------
 Center     Atomic      Atomic             Coordinates (Angstroms)
 Number     Number       Type             X           Y           Z
 ---------------------------------------------------------------------
      1          6           0        1.425810   -1.219332    0.000175
      2          6           0        0.707472   -2.400093    0.000022
      3          6           0       -0.707608   -2.400058   -0.000356
      4          6           0        0.739256    0.045866    0.000053
      5          6           0       -0.739243    0.045906    0.000001
      6          6           0       -1.425877   -1.219258   -0.000224
      7          6           0        1.497930    1.297637   -0.000245
      8          6           0        0.698549    2.467420   -0.000046
      9          6           0       -0.698416    2.467450    0.000135
     10          6           0       -1.497852    1.297703    0.000371
     11          8           0        2.798757    1.360452   -0.001226
     12          8           0       -2.798682    1.360581    0.000881
     13          6           0        2.939679   -1.336424    0.000945
     14          1           0        1.243388   -3.349327    0.000128
     15          1           0       -1.241005    3.413959    0.000287
     16          6           0       -2.939758   -1.336306   -0.000567
     17          1           0       -1.243587   -3.349253   -0.000591
     18          1           0        3.219260   -2.402270   -0.000008
     19          1           0        3.384260   -0.840532    0.866063
     20          1           0        3.385157   -0.837690   -0.861920
     21          1           0        1.241184    3.413901   -0.000300
     22          1           0       -3.384670   -0.840015   -0.865273
     23          1           0       -3.384917   -0.837947    0.862690
     24          1           0       -3.219320   -2.402162    0.000108
 ---------------------------------------------------------------------

 SCF Done:  E(UB3LYP) =  -614.141468595     A.U. after   18 cycles

 The electronic state is 1-A.
 Alpha  occ. eigenvalues --  -19.00377 -19.00376 -10.16395 -10.16394 -10.15130
 Alpha  occ. eigenvalues --  -10.15129 -10.13870 -10.13839 -10.13671 -10.13624
 Alpha  occ. eigenvalues --  -10.13584 -10.13583 -10.11326 -10.11274  -0.91946
 Alpha  occ. eigenvalues --   -0.91586  -0.82048  -0.75690  -0.75440  -0.69527
 Alpha  occ. eigenvalues --   -0.68184  -0.64506  -0.61388  -0.57501  -0.56233
 Alpha  occ. eigenvalues --   -0.49163  -0.46565  -0.45070  -0.43592  -0.41259
 Alpha  occ. eigenvalues --   -0.39608  -0.38565  -0.38454  -0.37660  -0.36420
 Alpha  occ. eigenvalues --   -0.35229  -0.34772  -0.34402  -0.34323  -0.32311
 Alpha  occ. eigenvalues --   -0.30490  -0.30235  -0.30189  -0.29905  -0.21421
 Alpha  occ. eigenvalues --   -0.21095  -0.20891  -0.18222  -0.18180  -0.10360
 Alpha virt. eigenvalues --    0.00141   0.00594   0.01174   0.01176   0.01317
 Alpha virt. eigenvalues --    0.02637   0.03258   0.03676   0.04372   0.04782
 Alpha virt. eigenvalues --    0.05121   0.06468   0.07207   0.07264   0.08276

  Beta  occ. eigenvalues --  -19.00377 -19.00376 -10.16395 -10.16394 -10.15130
  Beta  occ. eigenvalues --  -10.15129 -10.13870 -10.13839 -10.13671 -10.13624
  Beta  occ. eigenvalues --  -10.13584 -10.13583 -10.11326 -10.11274  -0.91946
  Beta  occ. eigenvalues --   -0.91586  -0.82048  -0.75690  -0.75440  -0.69527
  Beta  occ. eigenvalues --   -0.68184  -0.64506  -0.61388  -0.57501  -0.56233
  Beta  occ. eigenvalues --   -0.49163  -0.46565  -0.45070  -0.43592  -0.41259
  Beta  occ. eigenvalues --   -0.39608  -0.38565  -0.38454  -0.37660  -0.36420
  Beta  occ. eigenvalues --   -0.35229  -0.34772  -0.34402  -0.34323  -0.32311
  Beta  occ. eigenvalues --   -0.30490  -0.30235  -0.30189  -0.29905  -0.21421
  Beta  occ. eigenvalues --   -0.21095  -0.20891  -0.18222  -0.18180  -0.10360
  Beta virt. eigenvalues --    0.00141   0.00594   0.01174   0.01176   0.01317
  Beta virt. eigenvalues --    0.02637   0.03258   0.03676   0.04372   0.04782
  Beta virt. eigenvalues --    0.05121   0.06468   0.07207   0.07264   0.08276

 Mulliken charges and spin densities:
               1          2
     1  C    0.894535  -0.000000
     2  C   -0.587940   0.000000
     3  C   -0.587927   0.000000
     4  C    0.141379   0.000000
     5  C    0.141390   0.000000
     6  C    0.894548  -0.000000
     7  C   -0.810659   0.000000
     8  C   -0.255079  -0.000000
     9  C   -0.255086   0.000000
    10  C   -0.810669   0.000000
    11  O   -0.681506  -0.000000
    12  O   -0.681520   0.000000
    13  C   -0.338141  -0.000000
    14  H    0.110915  -0.000000
    15  H    0.120770  -0.000000
    16  C   -0.338134  -0.000000
    17  H    0.110910   0.000000
    18  H    0.113858   0.000000
    19  H    0.145856  -0.000000
    20  H    0.146011  -0.000000
    21  H    0.120769   0.000000
    22  H    0.145870  -0.000000
    23  H    0.145998  -0.000000
    24  H    0.113855   0.000000
 Sum of Mulliken charges =  -2.00000  -0.00000

 Dipole moment (field-independent basis, Debye):
    X=             -0.0001    Y=            -10.1842    Z=              0.0012  Tot=             10.1842
 Quadrupole moment (field-independent basis, Debye-Ang):
   XX=           -151.2349   YY=           -115.6800   ZZ=            -94.3161
   XY=              0.0009   XZ=              0.0238   YZ=              0.0006

 Normal termination of Gaussian 16 at Sun Jan 21 08:48:01 2024.
