 Gaussian 16, Revision A.03,
 Gaussian 16:  ES64L-G16RevA.03 25-Dec-2016

 --------------------------------------
 #P UB3LYP/6-311++G(d,p) nosym opt freq
 --------------------------------------

 -------
 Radical
 -------
 Symbolic Z-matrix:
 Charge = -1 Multiplicity = 2

 SCF Done:  E(UB3LYP) =  -1203.96984926     A.U. after   24 cycles
 SCF Done:  E(UB3LYP) =  -1203.98060065     A.U. after   21 cycles
 SCF Done:  E(UB3LYP) =  -1203.98197140     A.U. after   23 cycles
 SCF Done:  E(UB3LYP) =  -1203.98193046     A.U. after   22 cycles
 SCF Done:  E(UB3LYP) =  -1203.98235643     A.U. after   18 cycles
 SCF Done:  E(UB3LYP) =  -1203.98236285     A.U. after   17 cycles
 SCF Done:  E(UB3LYP) =  -1203.98219964     A.U. after   17 cycles
 SCF Done:  E(UB3LYP) =  -1203.98294073     A.U. after   22 cycles
 SCF Done:  E(UB3LYP) =  -1203.98325154     A.U. after   20 cycles
 SCF Done:  E(UB3LYP) =  -1203.98336647     A.U. after   16 cycles
 SCF Done:  E(UB3LYP) =  -1203.98495913     A.U. after   13 cycles
 SCF Done:  E(UB3LYP) =  -1203.98495932     A.U. after   13 cycles
 SCF Done:  E(UB3LYP) =  -1203.98495972     A.U. after   13 cycles
 SCF Done:  E(UB3LYP) =  -1203.98496022     A.U. after   13 cycles
 SCF Done:  E(UB3LYP) =  -1203.98496047     A.U. after   12 cycles
 SCF Done:  E(UB3LYP) =  -1203.98496082     A.U. after   13 cycles
 SCF Done:  E(UB3LYP) =  -1203.98496118     A.U. after   14 cycles
 SCF Done:  E(UB3LYP) =  -1203.98496125     A.U. after   13 cycles
 SCF Done:  E(UB3LYP) =  -1203.98496125     A.U. after   10 cycles
 Optimization completed.
    -- Stationary point found.
 Normal termination of Gaussian 16 at Fri Dec 29 00:56:01 2023.

 ----------------------------------------------------------------------
 #P Geom=AllCheck Guess=TCheck SCRF=Check GenChk UB3LYP/6-311++G(d,p) F
 req
 ----------------------------------------------------------------------

 Structure from the checkpoint file:  "313-rad.chk"
 -------
 Radical
 -------
 Charge = -1 Multiplicity = 2

                          Input orientation:
 ---------------------------------------------------------------------
 Center     Atomic      Atomic             Coordinates (Angstroms)
 Number     Number       Type             X           Y           Z
 ---------------------------------------------------------------------
      1          6           0       -5.514886   -0.040414   -0.431077
      2          6           0       -5.748770   -0.488265   -1.719766
      3          6           0       -4.687361   -0.563347   -2.640333
      4          6           0       -4.224488    0.344933   -0.020924
      5          6           0       -3.156110    0.269413   -0.948997
      6          6           0       -3.412085   -0.188832   -2.255224
      7          6           0       -4.028817    0.824387    1.369278
      8          6           0       -2.664772    1.186062    1.702119
      9          6           0       -1.622828    1.104655    0.789721
     10          6           0       -1.785283    0.660726   -0.564861
     11         16           0       -2.327072    1.895769    3.310490
     12          6           0       -2.430766    0.535880    4.460546
     13          6           0       -2.567563   -0.800932    4.075967
     14          6           0       -2.334703    0.846320    5.824960
     15          6           0       -2.368275   -0.147428    6.803420
     16          6           0       -2.601461   -1.796079    5.048524
     17          6           0       -2.499754   -1.482393    6.403007
     18          6           0       -2.301068    0.217116    8.269272
     19          8           0       -4.984311    0.890750    2.172252
     20          8           0       -0.824741    0.598458   -1.377072
     21          1           0       -6.312839    0.028233    0.299270
     22          1           0       -6.750085   -0.781983   -2.020505
     23          1           0       -4.870090   -0.914848   -3.651561
     24          1           0       -2.574159   -0.235428   -2.941483
     25          1           0       -0.619096    1.385883    1.088712
     26          1           0       -2.648008   -1.053059    3.026561
     27          1           0       -2.236462    1.885976    6.124695
     28          1           0       -2.707160   -2.832079    4.742004
     29          1           0       -2.525802   -2.271214    7.148828
     30          1           0       -1.780456    1.166296    8.420608
     31          1           0       -1.779049   -0.551001    8.847212
     32          1           0       -3.304880    0.322255    8.697268
 ---------------------------------------------------------------------

 SCF Done:  E(UB3LYP) =  -1203.98496125     A.U. after    2 cycles

 Alpha  occ. eigenvalues --  -88.73730 -18.95439 -18.95344 -10.10725 -10.10526
 Alpha  occ. eigenvalues --  -10.10021 -10.09392 -10.09140 -10.08131 -10.07719
 Alpha  occ. eigenvalues --  -10.07651 -10.07584 -10.07121 -10.06761 -10.06691
 Alpha  occ. eigenvalues --  -10.06083 -10.05974 -10.05961 -10.05923 -10.05043
 Alpha  occ. eigenvalues --   -7.82313  -5.78713  -5.78304  -5.77726  -0.88285
 Alpha  occ. eigenvalues --   -0.87593  -0.77010  -0.74661  -0.71059  -0.68588
 Alpha  occ. eigenvalues --   -0.66873  -0.63855  -0.63794  -0.60323  -0.59119
 Alpha  occ. eigenvalues --   -0.55218  -0.50913  -0.50520  -0.49996  -0.46997
 Alpha  occ. eigenvalues --   -0.44249  -0.41404  -0.39480  -0.38615  -0.37648
 Alpha  occ. eigenvalues --   -0.35446  -0.34910  -0.34334  -0.33726  -0.32125
 Alpha  occ. eigenvalues --   -0.31870  -0.31352  -0.30822  -0.30071  -0.29475
 Alpha  occ. eigenvalues --   -0.28543  -0.27559  -0.27103  -0.26052  -0.25519
 Alpha  occ. eigenvalues --   -0.25174  -0.24432  -0.23770  -0.22688  -0.21578
 Alpha  occ. eigenvalues --   -0.18767  -0.15922  -0.15376  -0.14348  -0.14072
 Alpha  occ. eigenvalues --   -0.12165  -0.11518  -0.10292  -0.03577
 Alpha virt. eigenvalues --    0.06158   0.07733   0.07788   0.07836   0.07939
 Alpha virt. eigenvalues --    0.08116   0.08914   0.09414   0.09924   0.10340
 Alpha virt. eigenvalues --    0.10853   0.11215   0.12164   0.12818   0.13210

  Beta  occ. eigenvalues --  -88.73733 -18.94833 -18.94612 -10.10639 -10.10510
  Beta  occ. eigenvalues --  -10.09929 -10.09393 -10.09140 -10.08132 -10.07718
  Beta  occ. eigenvalues --  -10.07649 -10.07418 -10.07118 -10.06740 -10.06661
  Beta  occ. eigenvalues --  -10.06036 -10.05969 -10.05955 -10.05896 -10.04800
  Beta  occ. eigenvalues --   -7.82315  -5.78718  -5.78310  -5.77725  -0.87252
  Beta  occ. eigenvalues --   -0.86331  -0.76995  -0.74491  -0.70775  -0.68387
  Beta  occ. eigenvalues --   -0.66765  -0.63720  -0.63653  -0.60255  -0.58861
  Beta  occ. eigenvalues --   -0.54472  -0.50860  -0.50433  -0.49755  -0.46876
  Beta  occ. eigenvalues --   -0.44033  -0.41371  -0.39265  -0.38433  -0.37586
  Beta  occ. eigenvalues --   -0.35307  -0.34792  -0.34332  -0.33574  -0.32057
  Beta  occ. eigenvalues --   -0.31711  -0.31309  -0.30798  -0.29782  -0.28451
  Beta  occ. eigenvalues --   -0.27945  -0.27314  -0.26962  -0.25936  -0.25193
  Beta  occ. eigenvalues --   -0.24259  -0.23228  -0.22777  -0.22481  -0.21199
  Beta  occ. eigenvalues --   -0.18702  -0.15544  -0.13809  -0.13490  -0.12712
  Beta  occ. eigenvalues --   -0.11543  -0.10958  -0.10070
  Beta virt. eigenvalues --    0.03228   0.06157   0.07817   0.07838   0.07939
  Beta virt. eigenvalues --    0.08078   0.08431   0.09338   0.09914   0.10017
  Beta virt. eigenvalues --    0.10346   0.10898   0.11241   0.12173   0.12828

 Mulliken charges and spin densities:
               1          2
     1  C    0.093660   0.018283
     2  C   -0.364633   0.022844
     3  C   -0.415560   0.013564
     4  C   -0.042720  -0.001745
     5  C    0.657005   0.039078
     6  C   -0.110060   0.019217
     7  C   -1.033283   0.074886
     8  C    1.576875   0.086714
     9  C   -0.190542   0.180306
    10  C   -0.746256   0.064997
    11  S   -0.323193  -0.005506
    12  C    0.328420   0.004614
    13  C    0.222330   0.006221
    14  C   -0.911657   0.002188
    15  C    0.285769  -0.000466
    16  C   -0.198314  -0.006440
    17  C   -0.500628   0.002849
    18  C   -0.437783   0.000026
    19  O   -0.311933   0.227696
    20  O   -0.388486   0.267896
    21  H    0.175552  -0.002043
    22  H    0.127469  -0.002036
    23  H    0.126871  -0.001335
    24  H    0.168180  -0.003224
    25  H    0.192352  -0.014565
    26  H    0.178440   0.005492
    27  H    0.148429   0.000654
    28  H    0.164749  -0.000165
    29  H    0.109764  -0.000032
    30  H    0.134449   0.000058
    31  H    0.127397   0.000013
    32  H    0.157338  -0.000037
 Sum of Mulliken charges =  -1.00000   1.00000

 Dipole moment (field-independent basis, Debye):
    X=             13.5571    Y=             -3.6566    Z=             -4.6405  Tot=             14.7885
 Quadrupole moment (field-independent basis, Debye-Ang):
   XX=           -188.6843   YY=           -132.9173   ZZ=           -160.9038
   XY=             11.8436   XZ=             24.0953   YZ=             -3.8806

  Exact polarizability: 226.112  22.274 187.253  17.707  13.657 376.120
 Approx polarizability: 398.252  36.682 320.700 -24.777  31.574 509.210

                      1                      2                      3
                      A                      A                      A
 Frequencies --     16.7195                23.6688                33.3727
 Red. masses --      4.8814                 5.2170                 2.8818
 Frc consts  --      0.0008                 0.0017                 0.0019
 IR Inten    --      0.6233                 0.1398                 0.7790

                      4                      5                      6
                      A                      A                      A
 Frequencies --     34.9391                86.5208               132.4284
 Red. masses --      1.2541                 8.8946                 4.5209
 Frc consts  --      0.0009                 0.0392                 0.0467
 IR Inten    --      0.6100                 6.7073                 0.1286

                      7                      8                      9
                      A                      A                      A
 Frequencies --    154.7693               171.8309               187.5603
 Red. masses --      4.7968                 6.5631                 5.2293
 Frc consts  --      0.0677                 0.1142                 0.1084
 IR Inten    --      0.1070                 2.3443                 0.3433

                     10                     11                     12
                      A                      A                      A
 Frequencies --    207.9475               215.1948               226.9057
 Red. masses --      4.1673                 5.2510                 5.2382
 Frc consts  --      0.1062                 0.1433                 0.1589
 IR Inten    --      4.0103                 0.1674                 0.5489

                     13                     14                     15
                      A                      A                      A
 Frequencies --    278.6624               335.8997               369.8002
 Red. masses --      7.6071                 5.2920                10.7730
 Frc consts  --      0.3480                 0.3518                 0.8680
 IR Inten    --      1.4468                 1.8058                 9.1469

                     16                     17                     18
                      A                      A                      A
 Frequencies --    375.9894               413.5080               428.9143
 Red. masses --      4.5429                 7.6096                 3.6843
 Frc consts  --      0.3784                 0.7666                 0.3993
 IR Inten    --      1.6606                 2.5374                 1.7139

                     19                     20                     21
                      A                      A                      A
 Frequencies --    437.7832               456.1940               468.4079
 Red. masses --      2.9474                 5.2797                 9.3435
 Frc consts  --      0.3328                 0.6474                 1.2078
 IR Inten    --      4.7569                 3.8229                 0.0709

                     22                     23                     24
                      A                      A                      A
 Frequencies --    500.7109               516.5636               524.7905
 Red. masses --      5.9912                 6.4416                 4.2633
 Frc consts  --      0.8850                 1.0127                 0.6918
 IR Inten    --      1.2215                 2.5140                 0.3454

                     25                     26                     27
                      A                      A                      A
 Frequencies --    543.3905               612.9668               653.5095
 Red. masses --      4.7799                 7.0012                 3.2906
 Frc consts  --      0.8316                 1.5499                 0.8280
 IR Inten    --      4.9392                 3.6318                 3.7316

                     28                     29                     30
                      A                      A                      A
 Frequencies --    661.5614               690.7505               697.2838
 Red. masses --      6.2257                 6.6371                 2.4811
 Frc consts  --      1.6054                 1.8658                 0.7107
 IR Inten    --      1.7156                13.1026                12.7897

                     31                     32                     33
                      A                      A                      A
 Frequencies --    703.7592               725.4000               771.4973
 Red. masses --      3.5880                 6.3739                 1.3734
 Frc consts  --      1.0470                 1.9761                 0.4816
 IR Inten    --     27.0129                10.4404                29.3788

                     34                     35                     36
                      A                      A                      A
 Frequencies --    776.2185               794.5076               824.6127
 Red. masses --      1.5873                 4.1609                 5.4499
 Frc consts  --      0.5635                 1.5475                 2.1834
 IR Inten    --     45.0851                 0.6350                17.7496

                     37                     38                     39
                      A                      A                      A
 Frequencies --    842.4229               859.6974               873.2981
 Red. masses --      8.3641                 4.3545                 1.5450
 Frc consts  --      3.4973                 1.8962                 0.6942
 IR Inten    --     21.5114                24.2952                16.5050

                     40                     41                     42
                      A                      A                      A
 Frequencies --    874.8090               881.3447               886.7410
 Red. masses --      1.4071                 1.4440                 1.3301
 Frc consts  --      0.6344                 0.6609                 0.6162
 IR Inten    --      5.2926                 0.4166                 0.3831

                     43                     44                     45
                      A                      A                      A
 Frequencies --    975.6272               982.5649               987.2883
 Red. masses --      1.3035                 1.3602                 1.2726
 Frc consts  --      0.7310                 0.7737                 0.7308
 IR Inten    --      0.1323                 2.1013                 0.1095

                     46                     47                     48
                      A                      A                      A
 Frequencies --   1005.4849              1009.3199              1037.4002
 Red. masses --      1.4886                 5.5289                 2.5003
 Frc consts  --      0.8867                 3.3185                 1.5854
 IR Inten    --      1.0348                 2.3846                26.5925

                     49                     50                     51
                      A                      A                      A
 Frequencies --   1055.3808              1085.7380              1101.2445
 Red. masses --      1.5131                 3.1407                 2.4640
 Frc consts  --      0.9930                 2.1813                 1.7606
 IR Inten    --      9.0648                 4.3426                22.0782

                     52                     53                     54
                      A                      A                      A
 Frequencies --   1102.7523              1116.6461              1138.7836
 Red. masses --      2.4648                 1.5650                 1.7075
 Frc consts  --      1.7660                 1.1498                 1.3046
 IR Inten    --     18.4686                 0.4455                22.6559

                     55                     56                     57
                      A                      A                      A
 Frequencies --   1156.5835              1190.3658              1212.9261
 Red. masses --      1.4621                 1.1342                 2.3949
 Frc consts  --      1.1523                 0.9469                 2.0759
 IR Inten    --      3.7348                 0.5948                 5.8312

                     58                     59                     60
                      A                      A                      A
 Frequencies --   1228.9936              1243.3230              1280.2805
 Red. masses --      2.8659                 1.9428                 1.7720
 Frc consts  --      2.5504                 1.7695                 1.7113
 IR Inten    --      9.1089                11.7204                30.0032

                     61                     62                     63
                      A                      A                      A
 Frequencies --   1307.3948              1341.1638              1351.8847
 Red. masses --      2.4910                 1.9445                 9.6808
 Frc consts  --      2.5087                 2.0607                10.4242
 IR Inten    --      2.4948                 3.7845                 0.3321

                     64                     65                     66
                      A                      A                      A
 Frequencies --   1367.3467              1406.2987              1435.4908
 Red. masses --      3.4337                 1.2525                 2.4650
 Frc consts  --      3.7824                 1.4594                 2.9927
 IR Inten    --     20.0572                 0.1817                 5.1327

                     67                     68                     69
                      A                      A                      A
 Frequencies --   1451.9190              1464.6272              1488.0424
 Red. masses --      3.9921                 3.1406                 1.0490
 Frc consts  --      4.9584                 3.9693                 1.3686
 IR Inten    --     97.1928                90.8272                 5.0669

                     70                     71                     72
                      A                      A                      A
 Frequencies --   1490.0687              1494.4804              1507.6317
 Red. masses --      3.3405                 1.2292                 2.0054
 Frc consts  --      4.3699                 1.6175                 2.6856
 IR Inten    --     17.3158                11.2802                42.3833

                     73                     74                     75
                      A                      A                      A
 Frequencies --   1538.5980              1556.4745              1607.1097
 Red. masses --      5.9608                 7.1659                 5.3983
 Frc consts  --      8.3139                10.2283                 8.2149
 IR Inten    --    394.2502                42.9898                66.2278

                     76                     77                     78
                      A                      A                      A
 Frequencies --   1616.4402              1626.6772              1633.8902
 Red. masses --      7.7905                 5.7270                 6.2054
 Frc consts  --     11.9932                 8.9286                 9.7604
 IR Inten    --     15.9573                79.5055                11.4597

                     79                     80                     81
                      A                      A                      A
 Frequencies --   3009.5060              3059.6581              3086.5042
 Red. masses --      1.0401                 1.0947                 1.1014
 Frc consts  --      5.5505                 6.0382                 6.1820
 IR Inten    --     68.3178                30.4718                23.1016

                     82                     83                     84
                      A                      A                      A
 Frequencies --   3135.8761              3141.9271              3143.8502
 Red. masses --      1.0849                 1.0860                 1.0892
 Frc consts  --      6.2856                 6.3163                 6.3427
 IR Inten    --     14.2136                10.0037                21.7512

                     85                     86                     87
                      A                      A                      A
 Frequencies --   3154.8394              3161.9753              3173.0702
 Red. masses --      1.0914                 1.0932                 1.0895
 Frc consts  --      6.4003                 6.4400                 6.4630
 IR Inten    --     50.7535                37.2123                 7.6285

                     88                     89                     90
                      A                      A                      A
 Frequencies --   3182.1152              3185.2522              3197.7696
 Red. masses --      1.0916                 1.0927                 1.0921
 Frc consts  --      6.5122                 6.5321                 6.5799
 IR Inten    --     12.3586                25.1711                 3.5774

 - Thermochemistry -
 -------------------
 Temperature   298.150 Kelvin.  Pressure   1.00000 Atm.
 Atom     1 has atomic number  6 and mass  12.00000

 Molecular mass:   280.05580 amu.
 Principal axes and moments of inertia in atomic units:
                           1         2         3
     Eigenvalues --  2443.52299********************
           X            0.17607   0.88934  -0.42198
           Y           -0.01732   0.43141   0.90199
           Z            0.98423  -0.15150   0.09136
 This molecule is an asymmetric top.
 Rotational symmetry number  1.
 Warning -- assumption of classical behavior for rotation
           may cause significant error
 Rotational temperatures (Kelvin)      0.03545     0.00767     0.00714
 Rotational constants (GHZ):           0.73858     0.15974     0.14880
 Zero-point vibrational energy     625057.4 (Joules/Mol)
                                  149.39231 (Kcal/Mol)
 Warning -- explicit consideration of  26 degrees of freedom as
           vibrations may cause significant error
 Vibrational temperatures:     24.06    34.05    48.02    50.27   124.48
          (Kelvin)            190.53   222.68   247.23   269.86   299.19
                              309.62   326.47   400.93   483.28   532.06
                              540.96   594.95   617.11   629.87   656.36
                              673.93   720.41   743.22   755.06   781.82
                              881.92   940.25   951.84   993.84  1003.24
                             1012.55  1043.69  1110.01  1116.81  1143.12
                             1186.43  1212.06  1236.91  1256.48  1258.65
                             1268.06  1275.82  1403.71  1413.69  1420.49
                             1446.67  1452.19  1492.59  1518.46  1562.13
                             1584.45  1586.61  1606.60  1638.46  1664.07
                             1712.67  1745.13  1768.25  1788.86  1842.04
                             1881.05  1929.64  1945.06  1967.31  2023.35
                             2065.35  2088.99  2107.27  2140.96  2143.88
                             2150.22  2169.15  2213.70  2239.42  2312.27
                             2325.70  2340.43  2350.80  4330.01  4402.17
                             4440.79  4511.83  4520.53  4523.30  4539.11
                             4549.38  4565.34  4578.35  4582.87  4600.88

 Zero-point correction=                           0.238072 (Hartree/Particle)
 Thermal correction to Energy=                    0.255113
 Thermal correction to Enthalpy=                  0.256057
 Thermal correction to Gibbs Free Energy=         0.189675
 Sum of electronic and zero-point Energies=          -1203.746889
 Sum of electronic and thermal Energies=             -1203.729848
 Sum of electronic and thermal Enthalpies=           -1203.728904
 Sum of electronic and thermal Free Energies=        -1203.795287

                     E (Thermal)             CV                S
                      KCal/Mol        Cal/Mol-Kelvin    Cal/Mol-Kelvin
 Total                  160.086             65.609            139.714
 Electronic               0.000              0.000              1.377
 Translational            0.889              2.981             42.788
 Rotational               0.889              2.981             34.170
 Vibrational            158.308             59.648             61.379
 Vibration     1          0.593              1.986              6.990
 Vibration     2          0.593              1.985              6.300
 Vibration     3          0.594              1.983              5.618
 Vibration     4          0.594              1.983              5.527
 Vibration     5          0.601              1.959              3.737
 Vibration     6          0.613              1.921              2.910
 Vibration     7          0.620              1.897              2.613
 Vibration     8          0.626              1.877              2.415
 Vibration     9          0.632              1.857              2.252
 Vibration    10          0.641              1.829              2.062
 Vibration    11          0.645              1.818              1.999
 Vibration    12          0.651              1.800              1.903
 Vibration    13          0.679              1.713              1.542
 Vibration    14          0.717              1.604              1.232
 Vibration    15          0.742              1.534              1.081
 Vibration    16          0.747              1.521              1.055
 Vibration    17          0.777              1.441              0.914
 Vibration    18          0.790              1.407              0.862
 Vibration    19          0.798              1.388              0.834
 Vibration    20          0.814              1.347              0.777
 Vibration    21          0.826              1.320              0.742
 Vibration    22          0.856              1.248              0.656
 Vibration    23          0.872              1.213              0.618
 Vibration    24          0.880              1.195              0.599
 Vibration    25          0.899              1.154              0.558
 Vibration    26          0.972              1.004              0.428

 Optimization completed.
    -- Stationary point found.
 Normal termination of Gaussian 16 at Fri Dec 29 02:26:04 2023.
