 Q-Chem 5.4, Q-Chem, Inc., Pleasanton, CA (2021)
 Q-Chem 5.4.0 for Intel X86 EM64T Linux

User input:
--------------------------------------------------------------
$molecule
0 1
N                  3.1040460000     -1.3456670000      1.2244260000
C                  2.6486970000     -0.5878700000      0.1825730000
C                  3.5885400000     -0.1213650000     -0.7633190000
C                  3.2119960000      0.6753830000     -1.8148360000
C                  1.8755640000      1.0685820000     -1.9924700000
O                  1.5477910000      1.8652040000     -3.0449860000
C                  0.9038550000      0.6257650000     -1.0800710000
C                 -0.5103050000      1.0263380000     -1.2387910000
O                 -0.8629440000      1.7895840000     -2.1552800000
C                 -1.5070560000      0.5105760000     -0.2948500000
C                 -2.8493330000      0.8964520000     -0.4626490000
O                 -3.2699120000      1.7114530000     -1.4389410000
C                 -3.8219910000      0.4107930000      0.4362690000
C                 -3.4706440000     -0.4300610000      1.4575910000
C                 -2.1277560000     -0.8458200000      1.6610370000
N                 -1.8646870000     -1.7092120000      2.6842280000
C                 -1.1338120000     -0.3617230000      0.7730720000
C                  0.2695630000     -0.7286570000      0.9520880000
O                  0.6093420000     -1.4785880000      1.8981250000
C                  1.2854980000     -0.2178540000      0.0126070000
H                  4.0381870000     -1.7160790000      1.1810460000
H                  2.4105880000     -1.7696610000      1.8274320000
H                  4.6306320000     -0.3999470000     -0.6460200000
H                  3.9606530000      1.0156690000     -2.5250340000
H                  2.3474170000      2.0567830000     -3.5475680000
H                 -2.4568380000      1.9489060000     -1.9622460000
H                 -4.8499430000      0.7208440000      0.2915630000
H                 -4.2332520000     -0.7992860000      2.1361190000
H                 -0.8946170000     -1.9194090000      2.8807790000
H                 -2.5792800000     -1.8911350000      3.3681050000
$end
$rem
MAX_SCF_CYCLES=200
BASIS  =  6-311++G(d,p)
GUI  =  2
JOB_TYPE  =  SP
METHOD  =  B3LYP
SOLVENT_METHOD = COSMO
$end
$solvent
dielectric 37.219
opticaldielectric 1.43
$end

--------------------------------------------------------------

             Standard Nuclear Orientation (Angstroms)
    I     Atom           X                Y                Z
 ----------------------------------------------------------------
    1      N      -2.5389416737    -2.8109624514    -0.0973230860
    2      C      -2.4713670954    -1.4479750103    -0.0283622970
    3      C      -3.6823001062    -0.7214063960     0.0088230144
    4      C      -3.6944548290     0.6501366174     0.0404898085
    5      C      -2.5023772338     1.3924583811     0.0295724616
    6      O      -2.5610937554     2.7510445591     0.0546253590
    7      C      -1.2728988244     0.7141181735    -0.0022805585
    8      C      -0.0015545764     1.4683866026    -0.0184735273
    9      O       0.0075683679     2.7118511740    -0.0422104097
   10      C       1.2652246905     0.7296864441    -0.0066425125
   11      C       2.4662932095     1.4618752402    -0.0165579442
   12      O       2.5185251629     2.8002048871    -0.0366819030
   13      C       3.6946130288     0.7682582241    -0.0061812152
   14      C       3.7234392072    -0.5999984493     0.0187490630
   15      C       2.5344547840    -1.3770069310     0.0317052232
   16      N       2.6487273195    -2.7354917071     0.0867667138
   17      C       1.2894536226    -0.6984943951     0.0130164937
   18      C       0.0329937763    -1.4448326582    -0.0078768317
   19      O       0.0446437923    -2.6989027509    -0.0100582857
   20      C      -1.2503340725    -0.7178113253    -0.0212107113
   21      H      -3.4197982669    -3.2613390942     0.0842225663
   22      H      -1.6711436788    -3.3236129727    -0.0057412714
   23      H      -4.6198826117    -1.2675377204     0.0072918517
   24      H      -4.6439315633     1.1776677314     0.0699502809
   25      H      -3.4864329399     3.0194606628     0.0744523274
   26      H       1.5716323942     3.1078888632    -0.0434668212
   27      H       4.6086201821     1.3498526081    -0.0159617889
   28      H       4.6776949247    -1.1171956537     0.0329401274
   29      H       1.8008071313    -3.2800113190    -0.0047790447
   30      H       3.5496728785    -3.1579440581    -0.0590345059
 ----------------------------------------------------------------

    9    -950.2126492352      5.86e-06  Convergence criterion met
 Total energy in the final basis set =     -950.2126492352
    5    -950.2409977790      5.11e-06  Convergence criterion met
 Total energy in the final basis set =     -950.2409977790

                    Orbital Energies (a.u.)
 --------------------------------------------------------------

 Alpha MOs
 -- Occupied --
-19.1657 -19.1535 -19.1226 -19.1138 -14.3262 -14.3239 -10.2770 -10.2691
-10.2567 -10.2538 -10.2398 -10.2392 -10.2034 -10.1998 -10.1982 -10.1959
-10.1954 -10.1941 -10.1936 -10.1917  -1.0855  -1.0793  -1.0476  -1.0463
 -0.9384  -0.9339  -0.8711  -0.8543  -0.8078  -0.7715  -0.7549  -0.7417
 -0.6869  -0.6671  -0.6621  -0.6209  -0.6015  -0.5854  -0.5664  -0.5529
 -0.5386  -0.5257  -0.5220  -0.5042  -0.4816  -0.4771  -0.4723  -0.4617
 -0.4611  -0.4504  -0.4381  -0.4322  -0.4247  -0.4220  -0.4192  -0.3996
 -0.3963  -0.3927  -0.3872  -0.3773  -0.3737  -0.3680  -0.3124  -0.3034
 -0.2840  -0.2783  -0.2741  -0.2667  -0.2216  -0.2020

          Ground-State Mulliken Net Atomic Charges

     Atom                 Charge (a.u.)
  ----------------------------------------
      1 N                    -0.448181
      2 C                     0.023620
      3 C                    -0.155134
      4 C                    -0.318799
      5 C                    -0.124992
      6 O                    -0.266746
      7 C                     0.390207
      8 C                    -0.507168
      9 O                    -0.369560
     10 C                     0.599268
     11 C                    -0.086391
     12 O                    -0.394730
     13 C                    -0.301792
     14 C                    -0.226906
     15 C                     0.039094
     16 N                    -0.453405
     17 C                     0.193677
     18 C                    -0.436050
     19 O                    -0.404967
     20 C                     0.323689
     21 H                     0.308106
     22 H                     0.344954
     23 H                     0.223130
     24 H                     0.211927
     25 H                     0.325676
     26 H                     0.395693
     27 H                     0.233721
     28 H                     0.222062
     29 H                     0.347659
     30 H                     0.312335
  ----------------------------------------
  Sum of atomic charges =     0.000000

                    Cartesian Multipole Moments
 -----------------------------------------------------------------
    Charge (ESU x 10^10)
                 0.0000
    Dipole Moment (Debye)
         X      -3.9732      Y      -5.3569      Z       0.2345
       Tot       6.6737
    Quadrupole Moments (Debye-Ang)
        XX     -64.4554     XY     -13.0131     YY    -117.5766
        XZ      -3.0403     YZ       0.0468     ZZ    -120.1674

 Total job time:  76.17s(wall), 584.00s(cpu)
        *  Thank you very much for using Q-Chem.  Have a nice day.  *
