 Gaussian 16, Revision A.03,
 Gaussian 16:  ES64L-G16RevA.03 25-Dec-2016

 --------------------------------------
 #P UB3LYP/6-311++G(d,p) nosym opt freq
 --------------------------------------

 -------
 Radical
 -------
 Symbolic Z-matrix:
 Charge = -1 Multiplicity = 2

 SCF Done:  E(UB3LYP) =  -649.897748543     A.U. after   23 cycles
 SCF Done:  E(UB3LYP) =  -649.918209561     A.U. after   18 cycles
 SCF Done:  E(UB3LYP) =  -649.921933234     A.U. after   17 cycles
 SCF Done:  E(UB3LYP) =  -649.922168299     A.U. after   16 cycles
 SCF Done:  E(UB3LYP) =  -649.922191765     A.U. after   15 cycles
 SCF Done:  E(UB3LYP) =  -649.922195022     A.U. after   14 cycles
 SCF Done:  E(UB3LYP) =  -649.922195103     A.U. after   11 cycles
 SCF Done:  E(UB3LYP) =  -649.922195552     A.U. after   10 cycles
 Optimization completed.
    -- Stationary point found.
 Normal termination of Gaussian 16 at Tue Dec 26 20:32:59 2023.

 ----------------------------------------------------------------------
 #P Geom=AllCheck Guess=TCheck SCRF=Check GenChk UB3LYP/6-311++G(d,p) F
 req
 ----------------------------------------------------------------------

 Structure from the checkpoint file:  "281-rad.chk"
 -------
 Radical
 -------
 Charge = -1 Multiplicity = 2

                          Input orientation:
 ---------------------------------------------------------------------
 Center     Atomic      Atomic             Coordinates (Angstroms)
 Number     Number       Type             X           Y           Z
 ---------------------------------------------------------------------
      1          6           0        3.291722   -0.272764   -0.104039
      2          6           0        1.793205   -0.401826   -0.145666
      3          6           0        0.970310    0.752048    0.150085
      4          8           0        1.463291    1.872272    0.444106
      5          6           0       -0.496298    0.564264    0.093216
      6          6           0       -1.345056    1.650054    0.370924
      7          6           0       -2.723421    1.514510    0.328073
      8          6           0       -3.296463    0.268884    0.000970
      9          6           0       -2.483790   -0.814696   -0.276369
     10          6           0       -1.077767   -0.693828   -0.237174
     11          6           0       -0.227877   -1.829010   -0.527770
     12          8           0       -0.639415   -2.996563   -0.833762
     13          6           0        1.195984   -1.603013   -0.461298
     14          8           0        1.940784   -2.711097   -0.745415
     15          1           0        3.732762   -0.959797    0.627782
     16          1           0        3.556561    0.750783    0.163392
     17          1           0        3.741887   -0.517729   -1.073279
     18          1           0       -0.877355    2.595994    0.619515
     19          1           0       -3.362038    2.365521    0.545848
     20          1           0       -4.376904    0.161206   -0.033009
     21          1           0       -2.900411   -1.782914   -0.530499
     22          1           0        1.245648   -3.382171   -0.923654
 ---------------------------------------------------------------------

 SCF Done:  E(UB3LYP) =  -649.922195552     A.U. after    2 cycles

 Alpha  occ. eigenvalues --  -19.01458 -18.95192 -18.93901 -10.09099 -10.09041
 Alpha  occ. eigenvalues --  -10.08820 -10.05500 -10.05319 -10.04887 -10.04749
 Alpha  occ. eigenvalues --  -10.04690 -10.04541 -10.03566 -10.03410  -0.93343
 Alpha  occ. eigenvalues --   -0.86421  -0.86166  -0.73365  -0.67969  -0.63059
 Alpha  occ. eigenvalues --   -0.62667  -0.57072  -0.53338  -0.49298  -0.47025
 Alpha  occ. eigenvalues --   -0.44323  -0.41072  -0.37832  -0.35532  -0.33558
 Alpha  occ. eigenvalues --   -0.32812  -0.31065  -0.30294  -0.28684  -0.27825
 Alpha  occ. eigenvalues --   -0.27527  -0.26428  -0.25827  -0.25643  -0.23893
 Alpha  occ. eigenvalues --   -0.23031  -0.22069  -0.21344  -0.21057  -0.13893
 Alpha  occ. eigenvalues --   -0.13256  -0.12571  -0.10480  -0.09983  -0.01881
 Alpha virt. eigenvalues --    0.08444   0.09243   0.09755   0.10361   0.11444
 Alpha virt. eigenvalues --    0.11699   0.12370   0.13282   0.14068   0.14564
 Alpha virt. eigenvalues --    0.15980   0.16044   0.17614   0.18050   0.18308

  Beta  occ. eigenvalues --  -19.01417 -18.94528 -18.93323 -10.09004 -10.08957
  Beta  occ. eigenvalues --  -10.08557 -10.05495 -10.05219 -10.04848 -10.04733
  Beta  occ. eigenvalues --  -10.04714 -10.04409 -10.03481 -10.03417  -0.93153
  Beta  occ. eigenvalues --   -0.85433  -0.85045  -0.73137  -0.67577  -0.62814
  Beta  occ. eigenvalues --   -0.62487  -0.56739  -0.52654  -0.49139  -0.46718
  Beta  occ. eigenvalues --   -0.44087  -0.40916  -0.37603  -0.35234  -0.33431
  Beta  occ. eigenvalues --   -0.32704  -0.30268  -0.30245  -0.28305  -0.27457
  Beta  occ. eigenvalues --   -0.26787  -0.26277  -0.25540  -0.24822  -0.23783
  Beta  occ. eigenvalues --   -0.21918  -0.21279  -0.20845  -0.19704  -0.12582
  Beta  occ. eigenvalues --   -0.11975  -0.11816  -0.09928  -0.08880
  Beta virt. eigenvalues --    0.04687   0.08437   0.09766   0.09869   0.10354
  Beta virt. eigenvalues --    0.11711   0.12369   0.12487   0.13387   0.14059
  Beta virt. eigenvalues --    0.14569   0.16033   0.16071   0.17620   0.18181

 Mulliken charges and spin densities:
               1          2
     1  C   -0.296980  -0.002499
     2  C    1.441027   0.069221
     3  C   -0.919393   0.038108
     4  O   -0.380680   0.212124
     5  C    0.261291   0.093027
     6  C    0.154907  -0.011661
     7  C   -0.357400   0.079683
     8  C   -0.218977   0.002174
     9  C   -0.077520   0.068668
    10  C    0.517511  -0.000595
    11  C   -1.017388   0.146505
    12  O   -0.454827   0.243354
    13  C   -0.666950   0.057283
    14  O   -0.269235   0.013770
    15  H    0.141868   0.003242
    16  H    0.186730  -0.001597
    17  H    0.141873   0.003240
    18  H    0.152262   0.000379
    19  H    0.122213  -0.006081
    20  H    0.121632  -0.000758
    21  H    0.151427  -0.003693
    22  H    0.266609  -0.003896
 Sum of Mulliken charges =  -1.00000   1.00000

 Dipole moment (field-independent basis, Debye):
    X=             -1.7652    Y=              2.1619    Z=              0.7970  Tot=              2.9025
 Quadrupole moment (field-independent basis, Debye-Ang):
   XX=           -100.3552   YY=           -111.4853   ZZ=            -88.8935
   XY=             -5.0014   XZ=             -1.2828   YZ=             -6.4638

  Exact polarizability: 216.869 -10.485 187.171  -1.992  27.247  89.257
 Approx polarizability: 323.201   2.844 340.635   1.813  55.496 141.765

 ******    1 imaginary frequencies (negative Signs) ******

                      1                      2                      3
                      A                      A                      A
 Frequencies --    -17.2936                82.2802               119.5926
 Red. masses --      1.0186                 6.0225                 4.1131
 Frc consts  --      0.0002                 0.0240                 0.0347
 IR Inten    --      0.0481                 6.0054                 0.0118

                      4                      5                      6
                      A                      A                      A
 Frequencies --    160.6352               174.3567               249.7369
 Red. masses --      5.6918                 7.2388                 4.1454
 Frc consts  --      0.0865                 0.1297                 0.1523
 IR Inten    --      0.0660                 1.4578                 3.2614

                      7                      8                      9
                      A                      A                      A
 Frequencies --    282.8603               295.0834               335.9295
 Red. masses --      3.6131                 4.7709                 5.6935
 Frc consts  --      0.1703                 0.2448                 0.3786
 IR Inten    --      3.5724                 0.1054                 8.2851

                     10                     11                     12
                      A                      A                      A
 Frequencies --    380.1288               413.6641               425.8536
 Red. masses --     10.2742                 5.8014                 7.1872
 Frc consts  --      0.8747                 0.5849                 0.7679
 IR Inten    --     10.7465                 0.0113                 6.1590

                     13                     14                     15
                      A                      A                      A
 Frequencies --    433.3945               447.5381               519.7902
 Red. masses --      8.0891                 3.6374                10.0385
 Frc consts  --      0.8952                 0.4292                 1.5980
 IR Inten    --      4.7123                 1.4176                 0.1740

                     16                     17                     18
                      A                      A                      A
 Frequencies --    533.8001               621.3898               672.0926
 Red. masses --      4.5109                 6.8851                 6.3519
 Frc consts  --      0.7573                 1.5663                 1.6905
 IR Inten    --      1.8838                12.6788                 3.2946

                     19                     20                     21
                      A                      A                      A
 Frequencies --    685.6548               698.0307               709.1003
 Red. masses --      4.4847                 3.7012                 5.6302
 Frc consts  --      1.2422                 1.0625                 1.6680
 IR Inten    --      4.8521                 9.8843                 2.2869

                     22                     23                     24
                      A                      A                      A
 Frequencies --    730.6070               750.8984               774.9625
 Red. masses --      1.1488                 2.8523                 2.1300
 Frc consts  --      0.3613                 0.9476                 0.7537
 IR Inten    --    136.6189                 0.3169                13.4807

                     25                     26                     27
                      A                      A                      A
 Frequencies --    854.2465               858.4265               943.7417
 Red. masses --      3.4822                 1.3724                 6.0065
 Frc consts  --      1.4971                 0.5959                 3.1520
 IR Inten    --     15.6192                 0.0243                24.9614

                     28                     29                     30
                      A                      A                      A
 Frequencies --    965.9106               975.8122              1001.5716
 Red. masses --      1.2895                 1.3050                 2.5942
 Frc consts  --      0.7088                 0.7321                 1.5332
 IR Inten    --      1.2436                 1.5922                 1.8423

                     31                     32                     33
                      A                      A                      A
 Frequencies --   1036.8929              1048.8068              1103.4700
 Red. masses --      2.0833                 1.4295                 3.0004
 Frc consts  --      1.3197                 0.9264                 2.1525
 IR Inten    --     24.1211                 0.0179               101.6188

                     34                     35                     36
                      A                      A                      A
 Frequencies --   1106.4211              1150.0820              1196.3198
 Red. masses --      2.0938                 1.3160                 2.3908
 Frc consts  --      1.5102                 1.0256                 2.0160
 IR Inten    --     10.4248                 1.0568                 7.6863

                     37                     38                     39
                      A                      A                      A
 Frequencies --   1208.8840              1254.0215              1287.8568
 Red. masses --      2.7247                 3.3082                 2.4306
 Frc consts  --      2.3461                 3.0652                 2.3752
 IR Inten    --     40.6711                47.1187                20.1722

                     40                     41                     42
                      A                      A                      A
 Frequencies --   1343.5513              1353.9139              1383.1893
 Red. masses --      2.2911                 5.0530                 1.3478
 Frc consts  --      2.4367                 5.4574                 1.5193
 IR Inten    --     38.3878                62.9277                25.7464

                     43                     44                     45
                      A                      A                      A
 Frequencies --   1428.0661              1462.2955              1470.3571
 Red. masses --      2.2733                 2.5491                 2.1152
 Frc consts  --      2.7315                 3.2115                 2.6943
 IR Inten    --    362.4133                51.3692                41.9699

                     46                     47                     48
                      A                      A                      A
 Frequencies --   1491.7372              1497.0182              1524.2979
 Red. masses --      1.0466                 1.5200                 5.9557
 Frc consts  --      1.3722                 2.0070                 8.1531
 IR Inten    --      4.9791                71.4334               451.4008

                     49                     50                     51
                      A                      A                      A
 Frequencies --   1539.4174              1578.4804              1621.0458
 Red. masses --      5.9267                 5.4747                 5.8490
 Frc consts  --      8.2752                 8.0370                 9.0557
 IR Inten    --     80.6969                13.4142                13.5404

                     52                     53                     54
                      A                      A                      A
 Frequencies --   1639.8523              3000.6351              3034.6170
 Red. masses --      6.2428                 1.0391                 1.0993
 Frc consts  --      9.8910                 5.5123                 5.9643
 IR Inten    --      7.6597               103.4141                43.9193

                     55                     56                     57
                      A                      A                      A
 Frequencies --   3110.7967              3131.9460              3151.3867
 Red. masses --      1.0965                 1.0845                 1.0909
 Frc consts  --      6.2518                 6.2677                 6.3834
 IR Inten    --      8.1943                16.1569                48.3286

                     58                     59                     60
                      A                      A                      A
 Frequencies --   3178.7767              3182.1480              3490.0299
 Red. masses --      1.0916                 1.0927                 1.0635
 Frc consts  --      6.4990                 6.5189                 7.6320
 IR Inten    --     15.2758                23.3732                89.0266

 - Thermochemistry -
 -------------------
 Temperature   298.150 Kelvin.  Pressure   1.00000 Atm.
 Atom     1 has atomic number  6 and mass  12.00000

 Molecular mass:   188.04734 amu.
 Principal axes and moments of inertia in atomic units:
                           1         2         3
     Eigenvalues --  1642.501462733.338334364.72202
           X            0.91275   0.40847  -0.00528
           Y           -0.39654   0.88284  -0.25171
           Z           -0.09815   0.23184   0.96779
 This molecule is an asymmetric top.
 Rotational symmetry number  1.
 Warning -- assumption of classical behavior for rotation
           may cause significant error
 Rotational temperatures (Kelvin)      0.05273     0.03169     0.01984
 Rotational constants (GHZ):           1.09878     0.66027     0.41348
    1 imaginary frequencies ignored.
 Zero-point vibrational energy     425292.8 (Joules/Mol)
                                  101.64742 (Kcal/Mol)
 Warning -- explicit consideration of  15 degrees of freedom as
           vibrations may cause significant error
 Vibrational temperatures:    118.38   172.07   231.12   250.86   359.32
          (Kelvin)            406.97   424.56   483.33   546.92   595.17
                              612.71   623.56   643.91   747.86   768.02
                              894.04   966.99   986.50  1004.31  1020.24
                             1051.18  1080.38  1115.00  1229.07  1235.08
                             1357.83  1389.73  1403.98  1441.04  1491.86
                             1509.00  1587.65  1591.89  1654.71  1721.24
                             1739.31  1804.26  1852.94  1933.07  1947.98
                             1990.10  2054.67  2103.92  2115.52  2146.28
                             2153.88  2193.12  2214.88  2271.08  2332.32
                             2359.38  4317.24  4366.14  4475.74  4506.17
                             4534.14  4573.55  4578.40  5021.37

 Zero-point correction=                           0.161985 (Hartree/Particle)
 Thermal correction to Energy=                    0.172558
 Thermal correction to Enthalpy=                  0.173503
 Thermal correction to Gibbs Free Energy=         0.125217
 Sum of electronic and zero-point Energies=           -649.760210
 Sum of electronic and thermal Energies=              -649.749637
 Sum of electronic and thermal Enthalpies=            -649.748693
 Sum of electronic and thermal Free Energies=         -649.796978

                     E (Thermal)             CV                S
                      KCal/Mol        Cal/Mol-Kelvin    Cal/Mol-Kelvin
 Total                  108.282             42.480            101.625
 Electronic               0.000              0.000              1.377
 Translational            0.889              2.981             41.600
 Rotational               0.889              2.981             31.350
 Vibrational            106.505             36.519             27.297
 Vibration     1          0.600              1.961              3.836
 Vibration     2          0.609              1.933              3.107
 Vibration     3          0.622              1.891              2.542
 Vibration     4          0.627              1.874              2.388
 Vibration     5          0.663              1.763              1.732
 Vibration     6          0.682              1.705              1.516
 Vibration     7          0.689              1.683              1.445
 Vibration     8          0.717              1.604              1.231
 Vibration     9          0.750              1.513              1.039
 Vibration    10          0.777              1.441              0.914
 Vibration    11          0.788              1.414              0.872
 Vibration    12          0.794              1.397              0.848
 Vibration    13          0.807              1.366              0.803
 Vibration    14          0.875              1.206              0.610
 Vibration    15          0.889              1.175              0.579

                           ! Non-Optimized Parameters !
 Normal termination of Gaussian 16 at Tue Dec 26 21:12:36 2023.
