 Gaussian 16, Revision A.03,
 Gaussian 16:  ES64L-G16RevA.03 25-Dec-2016

 ----------------------------------------------------------------------
 #P UB3LYP/6-311++G(d,p) nosym opt freq SCRF=(PCM,Solvent=n,n-DiMethylF
 ormamide)
 ----------------------------------------------------------------------

 -------
 Reduced
 -------
 Symbolic Z-matrix:
 Charge = -2 Multiplicity = 1

 SCF Done:  E(UB3LYP) =  -1035.86936776     A.U. after   16 cycles
 SCF Done:  E(UB3LYP) =  -1035.87165594     A.U. after   12 cycles
 SCF Done:  E(UB3LYP) =  -1035.87185258     A.U. after   12 cycles
 SCF Done:  E(UB3LYP) =  -1035.87204666     A.U. after   12 cycles
 SCF Done:  E(UB3LYP) =  -1035.87213822     A.U. after   11 cycles
 SCF Done:  E(UB3LYP) =  -1035.87218736     A.U. after   12 cycles
 SCF Done:  E(UB3LYP) =  -1035.87221826     A.U. after   11 cycles
 SCF Done:  E(UB3LYP) =  -1035.87222711     A.U. after   11 cycles
 SCF Done:  E(UB3LYP) =  -1035.87223700     A.U. after   10 cycles
 SCF Done:  E(UB3LYP) =  -1035.87224115     A.U. after   10 cycles
 SCF Done:  E(UB3LYP) =  -1035.87224157     A.U. after   10 cycles
 SCF Done:  E(UB3LYP) =  -1035.87224189     A.U. after    9 cycles
 SCF Done:  E(UB3LYP) =  -1035.87224212     A.U. after    9 cycles
 SCF Done:  E(UB3LYP) =  -1035.87224216     A.U. after    8 cycles
 Optimization completed.
    -- Stationary point found.
 Normal termination of Gaussian 16 at Sat Feb 10 21:28:02 2024.

 ----------------------------------------------------------------------
 #P Geom=AllCheck Guess=TCheck SCRF=Check GenChk UB3LYP/6-311++G(d,p) F
 req
 ----------------------------------------------------------------------

 Structure from the checkpoint file:  "173-an.chk"
 -------
 Reduced
 -------
 Charge = -2 Multiplicity = 1

                          Input orientation:
 ---------------------------------------------------------------------
 Center     Atomic      Atomic             Coordinates (Angstroms)
 Number     Number       Type             X           Y           Z
 ---------------------------------------------------------------------
      1          6           0       -1.407346    2.342234   -3.925373
      2          6           0       -1.410043    0.971603   -4.049327
      3          6           0       -1.156757    0.161141   -2.907255
      4          6           0       -1.160854    2.991364   -2.681207
      5          6           0       -0.901274    2.171625   -1.526777
      6          6           0       -0.913256    0.756360   -1.690594
      7          6           0       -1.183473    4.422990   -2.602404
      8          6           0       -0.627586    2.741309   -0.239556
      9          6           0       -0.962553    5.012779   -1.306149
     10          6           0       -0.621697    4.179537   -0.145398
     11          6           0       -1.076322    6.456914   -1.122067
     12          6           0       -0.771492    7.010860    0.105048
     13          6           0       -0.367456    6.212527    1.204198
     14          6           0       -0.277400    4.838467    1.111307
     15          8           0       -1.393289    5.124037   -3.698046
     16          8           0       -0.406430    1.940188    0.783058
     17          1           0       -1.600972    2.974432   -4.784081
     18          1           0       -1.606160    0.508089   -5.011555
     19          1           0       -1.155875   -0.920924   -2.998592
     20          1           0       -0.718773    0.154707   -0.810384
     21          1           0       -0.114163    6.710384    2.132973
     22          1           0       -0.852475    8.081458    0.252114
     23          7           0       -1.572919    7.240320   -2.177955
     24          7           0        0.212571    4.062573    2.177390
     25          1           0       -1.539418    6.689614   -3.047927
     26          1           0        0.018868    3.069989    1.981698
     27          6           0        0.057186    4.471957    3.570945
     28          6           0        0.865463    3.515872    4.454720
     29          6           0       -1.412279    4.532301    4.030836
     30          6           0       -1.260203    8.660217   -2.309055
     31          6           0        0.233636    8.937802   -2.565946
     32          6           0       -2.123920    9.250914   -3.428789
     33          1           0        0.490062    5.472153    3.691634
     34          1           0        0.789186    3.801044    5.507686
     35          1           0        1.921070    3.519953    4.170873
     36          1           0        0.491830    2.490725    4.357156
     37          1           0       -1.997390    5.184561    3.378425
     38          1           0       -1.490073    4.914402    5.054111
     39          1           0       -1.859341    3.532680    4.005273
     40          1           0       -1.542435    9.166452   -1.378113
     41          1           0        0.853403    8.486342   -1.787786
     42          1           0        0.437424   10.013607   -2.582732
     43          1           0        0.537058    8.518387   -3.531183
     44          1           0       -1.903645    8.763388   -4.384738
     45          1           0       -1.929972   10.320693   -3.546269
     46          1           0       -3.187277    9.113843   -3.215526
 ---------------------------------------------------------------------

 SCF Done:  E(UB3LYP) =  -1035.87224216     A.U. after    1 cycles

 Alpha  occ. eigenvalues --  -19.02005 -19.01997 -14.26989 -14.26947 -10.18879
 Alpha  occ. eigenvalues --  -10.18855 -10.17467 -10.17465 -10.17222 -10.17185
 Alpha  occ. eigenvalues --  -10.14928 -10.14915 -10.14804 -10.14761 -10.14508
 Alpha  occ. eigenvalues --  -10.14500 -10.14494 -10.14478 -10.14106 -10.14071
 Alpha  occ. eigenvalues --  -10.13470 -10.13430 -10.12708 -10.12662  -0.93685
 Alpha  occ. eigenvalues --   -0.93266  -0.89208  -0.88814  -0.82424  -0.80261
 Alpha  occ. eigenvalues --   -0.76253  -0.75274  -0.73666  -0.72162  -0.70169
 Alpha  occ. eigenvalues --   -0.68023  -0.67610  -0.67173  -0.63307  -0.60723
 Alpha  occ. eigenvalues --   -0.60108  -0.57635  -0.56494  -0.54497  -0.53036
 Alpha  occ. eigenvalues --   -0.49933  -0.49453  -0.47387  -0.46112  -0.44800
 Alpha  occ. eigenvalues --   -0.43901  -0.43693  -0.43180  -0.42492  -0.41833
 Alpha  occ. eigenvalues --   -0.41118  -0.40388  -0.39857  -0.39435  -0.38037
 Alpha  occ. eigenvalues --   -0.37845  -0.37600  -0.37594  -0.37165  -0.36544
 Alpha  occ. eigenvalues --   -0.36057  -0.35386  -0.34780  -0.34214  -0.34200
 Alpha  occ. eigenvalues --   -0.33185  -0.33174  -0.32643  -0.32089  -0.32046
 Alpha  occ. eigenvalues --   -0.31300  -0.30079  -0.30029  -0.27674  -0.22866
 Alpha  occ. eigenvalues --   -0.22765  -0.21772  -0.21123  -0.20123  -0.19217
 Alpha  occ. eigenvalues --   -0.15595  -0.10250
 Alpha virt. eigenvalues --   -0.01749  -0.00287   0.00353   0.00441   0.00525
 Alpha virt. eigenvalues --    0.01576   0.01700   0.01965   0.02302   0.02670
 Alpha virt. eigenvalues --    0.03170   0.03933   0.04002   0.04367   0.04613

  Beta  occ. eigenvalues --  -19.02005 -19.01997 -14.26989 -14.26947 -10.18879
  Beta  occ. eigenvalues --  -10.18855 -10.17467 -10.17465 -10.17222 -10.17185
  Beta  occ. eigenvalues --  -10.14928 -10.14915 -10.14804 -10.14761 -10.14508
  Beta  occ. eigenvalues --  -10.14500 -10.14494 -10.14478 -10.14106 -10.14071
  Beta  occ. eigenvalues --  -10.13470 -10.13430 -10.12708 -10.12662  -0.93685
  Beta  occ. eigenvalues --   -0.93266  -0.89208  -0.88814  -0.82424  -0.80261
  Beta  occ. eigenvalues --   -0.76253  -0.75274  -0.73666  -0.72162  -0.70169
  Beta  occ. eigenvalues --   -0.68023  -0.67610  -0.67173  -0.63307  -0.60723
  Beta  occ. eigenvalues --   -0.60108  -0.57635  -0.56494  -0.54497  -0.53036
  Beta  occ. eigenvalues --   -0.49933  -0.49453  -0.47387  -0.46112  -0.44800
  Beta  occ. eigenvalues --   -0.43901  -0.43693  -0.43180  -0.42492  -0.41833
  Beta  occ. eigenvalues --   -0.41118  -0.40388  -0.39857  -0.39435  -0.38037
  Beta  occ. eigenvalues --   -0.37845  -0.37600  -0.37594  -0.37165  -0.36544
  Beta  occ. eigenvalues --   -0.36057  -0.35386  -0.34780  -0.34214  -0.34200
  Beta  occ. eigenvalues --   -0.33185  -0.33174  -0.32643  -0.32089  -0.32046
  Beta  occ. eigenvalues --   -0.31300  -0.30079  -0.30029  -0.27674  -0.22866
  Beta  occ. eigenvalues --   -0.22765  -0.21772  -0.21123  -0.20123  -0.19217
  Beta  occ. eigenvalues --   -0.15595  -0.10250
  Beta virt. eigenvalues --   -0.01749  -0.00287   0.00353   0.00441   0.00525
  Beta virt. eigenvalues --    0.01576   0.01700   0.01965   0.02302   0.02670
  Beta virt. eigenvalues --    0.03170   0.03933   0.04002   0.04367   0.04613

 Mulliken charges and spin densities:
               1          2
     1  C   -0.229566  -0.000000
     2  C   -0.422258   0.000000
     3  C   -0.418899   0.000000
     4  C    0.356727   0.000000
     5  C    0.342392  -0.000000
     6  C   -0.236659  -0.000000
     7  C   -0.355712   0.000000
     8  C   -0.354907   0.000000
     9  C    0.084300   0.000000
    10  C    0.078434  -0.000000
    11  C   -0.377959  -0.000000
    12  C   -0.067171   0.000000
    13  C   -0.086312   0.000000
    14  C   -0.391386  -0.000000
    15  O   -0.637344  -0.000000
    16  O   -0.636130  -0.000000
    17  H    0.141571  -0.000000
    18  H    0.157040   0.000000
    19  H    0.157356   0.000000
    20  H    0.141465  -0.000000
    21  H    0.161933   0.000000
    22  H    0.162973   0.000000
    23  N   -0.074092  -0.000000
    24  N   -0.075958   0.000000
    25  H    0.377924  -0.000000
    26  H    0.379778  -0.000000
    27  C    0.052929  -0.000000
    28  C   -0.546722   0.000000
    29  C   -0.558714   0.000000
    30  C    0.051208   0.000000
    31  C   -0.553615   0.000000
    32  C   -0.543989  -0.000000
    33  H    0.105264   0.000000
    34  H    0.143873  -0.000000
    35  H    0.150538  -0.000000
    36  H    0.137459   0.000000
    37  H    0.138924  -0.000000
    38  H    0.134949  -0.000000
    39  H    0.149278  -0.000000
    40  H    0.105228  -0.000000
    41  H    0.138312  -0.000000
    42  H    0.135286  -0.000000
    43  H    0.149264   0.000000
    44  H    0.137616   0.000000
    45  H    0.144767   0.000000
    46  H    0.150605   0.000000
 Sum of Mulliken charges =  -2.00000  -0.00000

 Dipole moment (field-independent basis, Debye):
    X=              8.4827    Y=            -35.5200    Z=             12.8433  Tot=             38.7114
 Quadrupole moment (field-independent basis, Debye-Ang):
   XX=           -173.5248   YY=           -315.1062   ZZ=           -208.5967
   XY=             36.6614   XZ=            -20.9037   YZ=             59.8647

  Exact polarizability: 279.251  -1.127 627.386  67.998  57.450 570.050
 Approx polarizability: 304.873  -3.903 688.721  78.664  59.924 627.626

                      1                      2                      3
                      A                      A                      A
 Frequencies --     24.6981                26.8826                46.1511
 Red. masses --      3.9671                 4.3414                 2.8101
 Frc consts  --      0.0014                 0.0018                 0.0035
 IR Inten    --     10.7663                 1.2319                 1.0963

                      4                      5                      6
                      A                      A                      A
 Frequencies --     53.3194                63.8242                87.2105
 Red. masses --      3.1536                 6.6363                 3.5456
 Frc consts  --      0.0053                 0.0159                 0.0159
 IR Inten    --      1.0390                14.1362                 4.9990

                      7                      8                      9
                      A                      A                      A
 Frequencies --    100.4325               104.6309               139.7966
 Red. masses --      3.6468                 3.5925                 4.5770
 Frc consts  --      0.0217                 0.0232                 0.0527
 IR Inten    --      4.6967                 0.9553                 0.1101

                     10                     11                     12
                      A                      A                      A
 Frequencies --    147.5726               176.3600               222.1694
 Red. masses --      4.3548                 7.1272                 1.1559
 Frc consts  --      0.0559                 0.1306                 0.0336
 IR Inten    --     14.0072                 3.8316                 0.8804

                     13                     14                     15
                      A                      A                      A
 Frequencies --    226.9923               231.4234               245.4184
 Red. masses --      1.2532                 1.2913                 2.3958
 Frc consts  --      0.0380                 0.0407                 0.0850
 IR Inten    --      1.9718                 4.0034                 0.4863

                     16                     17                     18
                      A                      A                      A
 Frequencies --    250.2599               253.2718               267.4677
 Red. masses --      1.3071                 4.7709                 1.4952
 Frc consts  --      0.0482                 0.1803                 0.0630
 IR Inten    --      6.0784                16.0811                 4.4589

                     19                     20                     21
                      A                      A                      A
 Frequencies --    279.9348               326.7502               345.7681
 Red. masses --      4.6110                 3.5633                 4.9836
 Frc consts  --      0.2129                 0.2241                 0.3510
 IR Inten    --      0.5639                 5.6928                 0.3476

                     22                     23                     24
                      A                      A                      A
 Frequencies --    376.8120               387.7139               389.9268
 Red. masses --      3.4491                 4.2657                 6.6343
 Frc consts  --      0.2885                 0.3778                 0.5943
 IR Inten    --      2.6788                10.0604                 0.2629

                     25                     26                     27
                      A                      A                      A
 Frequencies --    397.4260               421.3583               423.6658
 Red. masses --      2.9855                 3.9806                 3.9128
 Frc consts  --      0.2778                 0.4164                 0.4138
 IR Inten    --      1.5190                21.3739                 8.1068

                     28                     29                     30
                      A                      A                      A
 Frequencies --    430.0676               449.8452               469.9523
 Red. masses --     11.8992                 3.2666                 2.5133
 Frc consts  --      1.2967                 0.3895                 0.3270
 IR Inten    --     26.0498                11.5079                60.2591

                     31                     32                     33
                      A                      A                      A
 Frequencies --    475.2510               500.1399               505.9612
 Red. masses --      2.9828                 3.8974                 5.7927
 Frc consts  --      0.3969                 0.5744                 0.8737
 IR Inten    --      6.5985                 4.8798                27.0792

                     34                     35                     36
                      A                      A                      A
 Frequencies --    508.6697               602.4805               607.0980
 Red. masses --      8.6792                 3.6007                 5.1541
 Frc consts  --      1.3231                 0.7701                 1.1192
 IR Inten    --      1.5700                91.9552                 4.0951

                     37                     38                     39
                      A                      A                      A
 Frequencies --    622.1182               634.1339               671.8899
 Red. masses --      4.8200                 4.8115                 5.6539
 Frc consts  --      1.0991                 1.1400                 1.5038
 IR Inten    --     44.0095                 1.0033                 8.0669

                     40                     41                     42
                      A                      A                      A
 Frequencies --    714.4342               717.5945               741.8942
 Red. masses --      2.9128                 3.8453                 5.1569
 Frc consts  --      0.8760                 1.1666                 1.6723
 IR Inten    --     11.4005                21.1975                 0.5011

                     43                     44                     45
                      A                      A                      A
 Frequencies --    751.1520               772.8237               784.5584
 Red. masses --      2.5204                 1.8013                 1.9958
 Frc consts  --      0.8379                 0.6339                 0.7238
 IR Inten    --    413.1142                88.2201                17.5998

                     46                     47                     48
                      A                      A                      A
 Frequencies --    796.4379               808.0351               819.0708
 Red. masses --      3.1928                 2.7848                 3.4008
 Frc consts  --      1.1932                 1.0713                 1.3442
 IR Inten    --      3.8099                10.8077                94.5394

                     49                     50                     51
                      A                      A                      A
 Frequencies --    843.6868               850.9778               853.5750
 Red. masses --      1.4909                 2.6363                 1.8170
 Frc consts  --      0.6252                 1.1248                 0.7800
 IR Inten    --      9.7064                19.4591                 3.1817

                     52                     53                     54
                      A                      A                      A
 Frequencies --    868.5690               887.4833               903.9044
 Red. masses --      2.5315                 1.6738                 1.6758
 Frc consts  --      1.1252                 0.7768                 0.8067
 IR Inten    --    251.4167                88.1837                88.8194

                     55                     56                     57
                      A                      A                      A
 Frequencies --    924.1439               925.5055               938.1870
 Red. masses --      1.2785                 1.3133                 2.3659
 Frc consts  --      0.6433                 0.6628                 1.2270
 IR Inten    --     10.4256                24.0079                 6.6474

                     58                     59                     60
                      A                      A                      A
 Frequencies --    944.7464               947.7638               960.7066
 Red. masses --      1.3817                 1.6155                 2.0658
 Frc consts  --      0.7266                 0.8550                 1.1234
 IR Inten    --      0.9891                34.4931                 6.5361

                     61                     62                     63
                      A                      A                      A
 Frequencies --    979.2237               983.6957              1012.4575
 Red. masses --      1.3524                 1.2466                 2.6138
 Frc consts  --      0.7640                 0.7107                 1.5786
 IR Inten    --      4.0570                 0.5830               189.6631

                     64                     65                     66
                      A                      A                      A
 Frequencies --   1015.1680              1062.9619              1092.0752
 Red. masses --      2.1475                 2.5109                 2.9120
 Frc consts  --      1.3039                 1.6715                 2.0462
 IR Inten    --    108.6152                46.1629               445.8694

                     67                     68                     69
                      A                      A                      A
 Frequencies --   1122.1588              1130.6067              1132.1871
 Red. masses --      1.5951                 2.1678                 2.1795
 Frc consts  --      1.1834                 1.6326                 1.6461
 IR Inten    --    470.8498                81.8874                19.7207

                     70                     71                     72
                      A                      A                      A
 Frequencies --   1159.1910              1160.1978              1175.7668
 Red. masses --      2.4099                 1.7532                 2.0458
 Frc consts  --      1.9079                 1.3904                 1.6663
 IR Inten    --    150.7165               437.8371                 1.1247

                     73                     74                     75
                      A                      A                      A
 Frequencies --   1176.7812              1181.8300              1183.6057
 Red. masses --      1.8955                 2.1336                 1.6548
 Frc consts  --      1.5466                 1.7558                 1.3659
 IR Inten    --      3.1350               195.4485               310.1490

                     76                     77                     78
                      A                      A                      A
 Frequencies --   1209.6062              1238.7518              1250.3311
 Red. masses --      2.8059                 2.4423                 4.5376
 Frc consts  --      2.4188                 2.2081                 4.1795
 IR Inten    --    191.2743                36.4101                31.4264

                     79                     80                     81
                      A                      A                      A
 Frequencies --   1260.8513              1265.7196              1331.0422
 Red. masses --      3.7252                 6.4051                 2.3761
 Frc consts  --      3.4892                 6.0458                 2.4803
 IR Inten    --    249.8760                19.9412              1654.9293

                     82                     83                     84
                      A                      A                      A
 Frequencies --   1342.4126              1349.8305              1353.7567
 Red. masses --      7.4852                 1.6079                 1.4727
 Frc consts  --      7.9474                 1.7261                 1.5902
 IR Inten    --    315.8088                26.8134               286.2099

                     85                     86                     87
                      A                      A                      A
 Frequencies --   1357.7090              1359.0123              1373.9132
 Red. masses --      1.4144                 1.4716                 1.6874
 Frc consts  --      1.5362                 1.6013                 1.8766
 IR Inten    --    222.4878               226.4203               278.0186

                     88                     89                     90
                      A                      A                      A
 Frequencies --   1378.9640              1380.1350              1381.1043
 Red. masses --      1.7134                 1.2505                 1.2508
 Frc consts  --      1.9196                 1.4034                 1.4057
 IR Inten    --     28.5839                20.2483                17.4275

                     91                     92                     93
                      A                      A                      A
 Frequencies --   1401.6244              1402.4965              1425.2130
 Red. masses --      1.2650                 1.2650                 7.9893
 Frc consts  --      1.4643                 1.4661                 9.5613
 IR Inten    --      9.0261                 7.0805                62.1570

                     94                     95                     96
                      A                      A                      A
 Frequencies --   1438.2188              1471.0761              1475.2168
 Red. masses --      3.2406                 2.3073                 1.0488
 Frc consts  --      3.9493                 2.9419                 1.3448
 IR Inten    --    440.8405                11.6813                 1.4797

                     97                     98                     99
                      A                      A                      A
 Frequencies --   1476.4041              1476.9142              1478.2768
 Red. masses --      1.0466                 1.0616                 1.0611
 Frc consts  --      1.3441                 1.3643                 1.3663
 IR Inten    --      1.7436                 5.8450                 4.8009

                    100                    101                    102
                      A                      A                      A
 Frequencies --   1484.1441              1485.2542              1492.2738
 Red. masses --      1.0595                 1.0662                 4.8854
 Frc consts  --      1.3750                 1.3857                 6.4098
 IR Inten    --     23.8636                 4.8566                34.2691

                    103                    104                    105
                      A                      A                      A
 Frequencies --   1495.8800              1497.1164              1538.0199
 Red. masses --      1.0622                 1.0582                 1.6682
 Frc consts  --      1.4004                 1.3974                 2.3251
 IR Inten    --      6.5683                 7.3026               430.4790

                    106                    107                    108
                      A                      A                      A
 Frequencies --   1542.7872              1573.7884              1605.4227
 Red. masses --      5.0616                 1.7001                 5.2601
 Frc consts  --      7.0983                 2.4810                 7.9877
 IR Inten    --    105.5147               569.4779                14.0654

                    109                    110                    111
                      A                      A                      A
 Frequencies --   1607.0406              1627.2790              2996.4176
 Red. masses --      4.5703                 2.7462                 1.0828
 Frc consts  --      6.9542                 4.2846                 5.7278
 IR Inten    --      5.5769               175.1238                74.4331

                    112                    113                    114
                      A                      A                      A
 Frequencies --   2998.7759              3008.6205              3009.2470
 Red. masses --      1.0825                 1.0361                 1.0360
 Frc consts  --      5.7352                 5.5258                 5.5275
 IR Inten    --     93.7079                52.1275                49.9041

                    115                    116                    117
                      A                      A                      A
 Frequencies --   3016.5049              3016.5968              3067.0540
 Red. masses --      1.0368                 1.0369                 1.1020
 Frc consts  --      5.5583                 5.5593                 6.1074
 IR Inten    --    127.5149                 4.7046                37.1252

                    118                    119                    120
                      A                      A                      A
 Frequencies --   3067.4830              3077.4232              3077.5112
 Red. masses --      1.1020                 1.0997                 1.1000
 Frc consts  --      6.1094                 6.1361                 6.1382
 IR Inten    --     38.5082                90.7698               188.5865

                    121                    122                    123
                      A                      A                      A
 Frequencies --   3088.7906              3090.0873              3090.4640
 Red. masses --      1.1023                 1.1010                 1.1010
 Frc consts  --      6.1960                 6.1940                 6.1958
 IR Inten    --     65.3580                40.0109                71.9665

                    124                    125                    126
                      A                      A                      A
 Frequencies --   3091.3368              3137.9515              3154.0144
 Red. masses --      1.0997                 1.0849                 1.0899
 Frc consts  --      6.1916                 6.2938                 6.3882
 IR Inten    --     47.6612                29.5518                47.4706

                    127                    128                    129
                      A                      A                      A
 Frequencies --   3158.2092              3176.0305              3176.1300
 Red. masses --      1.0847                 1.0912                 1.0912
 Frc consts  --      6.3746                 6.4853                 6.4856
 IR Inten    --     82.4049                75.1880                69.5606

                    130                    131                    132
                      A                      A                      A
 Frequencies --   3179.6516              3203.6621              3208.9517
 Red. masses --      1.0930                 1.0817                 1.0818
 Frc consts  --      6.5109                 6.5411                 6.5635
 IR Inten    --     71.8841                19.7523              1131.1588

 - Thermochemistry -
 -------------------
 Temperature   298.150 Kelvin.  Pressure   1.00000 Atm.
 Atom     1 has atomic number  6 and mass  12.00000

 Molecular mass:   322.16813 amu.
 Principal axes and moments of inertia in atomic units:
                           1         2         3
     Eigenvalues --  7501.828998465.78103**********
           X            0.15899   0.09530   0.98267
           Y           -0.58266   0.81257   0.01546
           Z            0.79702   0.57502  -0.18472
 This molecule is an asymmetric top.
 Rotational symmetry number  1.
 Warning -- assumption of classical behavior for rotation
           may cause significant error
 Rotational temperatures (Kelvin)      0.01155     0.01023     0.00567
 Rotational constants (GHZ):           0.24057     0.21318     0.11818
 Zero-point vibrational energy     985343.1 (Joules/Mol)
                                  235.50265 (Kcal/Mol)
 Warning -- explicit consideration of  36 degrees of freedom as
           vibrations may cause significant error
 Vibrational temperatures:     35.54    38.68    66.40    76.71    91.83
          (Kelvin)            125.48   144.50   150.54   201.14   212.32
                              253.74   319.65   326.59   332.97   353.10
                              360.07   364.40   384.83   402.76   470.12
                              497.48   542.15   557.83   561.02   571.81
                              606.24   609.56   618.77   647.23   676.16
                              683.78   719.59   727.97   731.86   866.84
                              873.48   895.09   912.38   966.70  1027.91
                             1032.46  1067.42  1080.74  1111.92  1128.80
                             1145.90  1162.58  1178.46  1213.88  1224.37
                             1228.10  1249.68  1276.89  1300.52  1329.64
                             1331.60  1349.84  1359.28  1363.62  1382.24
                             1408.88  1415.32  1456.70  1460.60  1529.37
                             1571.25  1614.54  1626.69  1628.96  1667.82
                             1669.27  1691.67  1693.13  1700.39  1702.94
                             1740.35  1782.29  1798.95  1814.08  1821.09
                             1915.07  1931.43  1942.11  1947.75  1953.44
                             1955.32  1976.75  1984.02  1985.71  1987.10
                             2016.62  2017.88  2050.56  2069.28  2116.55
                             2122.51  2124.22  2124.95  2126.91  2135.35
                             2136.95  2147.05  2152.24  2154.02  2212.87
                             2219.73  2264.33  2309.85  2312.17  2341.29
                             4311.18  4314.57  4328.73  4329.64  4340.08
                             4340.21  4412.81  4413.42  4427.73  4427.85
                             4444.08  4445.95  4446.49  4447.74  4514.81
                             4537.92  4543.96  4569.60  4569.74  4574.81
                             4609.36  4616.97

 Zero-point correction=                           0.375297 (Hartree/Particle)
 Thermal correction to Energy=                    0.397566
 Thermal correction to Enthalpy=                  0.398510
 Thermal correction to Gibbs Free Energy=         0.323482
 Sum of electronic and zero-point Energies=          -1035.496945
 Sum of electronic and thermal Energies=             -1035.474676
 Sum of electronic and thermal Enthalpies=           -1035.473732
 Sum of electronic and thermal Free Energies=        -1035.548760

                     E (Thermal)             CV                S
                      KCal/Mol        Cal/Mol-Kelvin    Cal/Mol-Kelvin
 Total                  249.476             87.740            157.909
 Electronic               0.000              0.000              0.000
 Translational            0.889              2.981             43.205
 Rotational               0.889              2.981             35.227
 Vibrational            247.699             81.778             79.477
 Vibration     1          0.593              1.985              6.215
 Vibration     2          0.593              1.984              6.047
 Vibration     3          0.595              1.979              4.976
 Vibration     4          0.596              1.976              4.690
 Vibration     5          0.597              1.972              4.335
 Vibration     6          0.601              1.958              3.722
 Vibration     7          0.604              1.949              3.446
 Vibration     8          0.605              1.946              3.366
 Vibration     9          0.615              1.914              2.807
 Vibration    10          0.617              1.905              2.703
 Vibration    11          0.628              1.871              2.367
 Vibration    12          0.648              1.807              1.941
 Vibration    13          0.651              1.800              1.903
 Vibration    14          0.653              1.793              1.868
 Vibration    15          0.660              1.770              1.763
 Vibration    16          0.663              1.762              1.729
 Vibration    17          0.664              1.757              1.708
 Vibration    18          0.673              1.733              1.613
 Vibration    19          0.680              1.711              1.534
 Vibration    20          0.710              1.622              1.276
 Vibration    21          0.724              1.584              1.185
 Vibration    22          0.747              1.520              1.052
 Vibration    23          0.756              1.496              1.009
 Vibration    24          0.758              1.492              1.000
 Vibration    25          0.764              1.476              0.972
 Vibration    26          0.784              1.424              0.887
 Vibration    27          0.786              1.419              0.880
 Vibration    28          0.791              1.405              0.858
 Vibration    29          0.809              1.361              0.796
 Vibration    30          0.827              1.317              0.738
 Vibration    31          0.832              1.305              0.723
 Vibration    32          0.856              1.250              0.658
 Vibration    33          0.861              1.237              0.643
 Vibration    34          0.864              1.231              0.637
 Vibration    35          0.961              1.027              0.445
 Vibration    36          0.966              1.017              0.438

 Optimization completed.
    -- Stationary point found.
 Normal termination of Gaussian 16 at Sun Feb 11 01:52:34 2024.
