 Q-Chem 5.4, Q-Chem, Inc., Pleasanton, CA (2021)
 Q-Chem 5.4.0 for Intel X86 EM64T Linux

User input:
--------------------------------------------------------------
$molecule
-2 1
C                 -1.2954710000      2.1049270000      0.5864480000
C                 -2.4965310000      1.4063430000      0.2286040000
C                 -2.6246850000      0.1274750000     -0.3090710000
C                 -1.4829040000     -0.6947020000     -0.5852750000
C                 -0.2461600000     -0.0538830000     -0.2498650000
C                 -0.1942360000      1.2306760000      0.2858350000
O                 -1.5619940000     -1.8891130000     -1.0854920000
H                 -3.6065920000     -0.2758510000     -0.5320500000
O                 -1.2115220000      3.2833500000      1.0794100000
Cl                 1.4594860000      1.8894220000      0.6520820000
Br                -4.1837130000      2.4052860000      0.5472250000
H                  0.6746330000     -0.6015600000     -0.4251820000
$end
$rem
MAX_SCF_CYCLES=200
BASIS  =  6-311++G(d,p)
GUI  =  2
JOB_TYPE  =  SP
METHOD  =  B3LYP
SOLVENT_METHOD = COSMO
$end
$solvent
dielectric 37.219
opticaldielectric 1.43
$end

--------------------------------------------------------------

             Standard Nuclear Orientation (Angstroms)
    I     Atom           X                Y                Z
 ----------------------------------------------------------------
    1      C       0.3177112249    -0.8779314483    -0.0004524978
    2      C      -0.6019203007     0.2233836007    -0.0001748979
    3      C      -0.3168375962     1.5871097651    -0.0000527988
    4      C       1.0303254166     2.0781080350    -0.0002449744
    5      C       2.0022973681     1.0255135864    -0.0000639274
    6      C       1.6429285038    -0.3200778918    -0.0001606213
    7      O       1.3352059397     3.3391146140     0.0001867617
    8      H      -1.1220554775     2.3138538485     0.0001797241
    9      O       0.0225975606    -2.1235828848    -0.0000541020
   10      Cl      3.0056569633    -1.5225131915     0.0001659090
   11      Br     -2.5238745153    -0.2786935785     0.0000764648
   12      H       3.0520394353     1.3022579405     0.0001605818
 ----------------------------------------------------------------

   10   -3414.7334710263      7.12e-06  Convergence criterion met
 Total energy in the final basis set =    -3414.7334710263
    6   -3415.0224554958      4.81e-06  Convergence criterion met
 Total energy in the final basis set =    -3415.0224554958

                    Orbital Energies (a.u.)
 --------------------------------------------------------------

 Alpha MOs
 -- Occupied --
********-101.5317 -62.4609 -56.2810 -56.2777 -56.2775 -19.0372 -19.0325
-10.2029 -10.2008 -10.1963 -10.1914 -10.1431 -10.1428  -9.4459  -8.6694
 -7.2099  -7.2013  -7.2006  -6.4997  -6.4886  -6.4881  -2.6108  -2.6076
 -2.6073  -2.5985  -2.5985  -0.9586  -0.9442  -0.8415  -0.8057  -0.7573
 -0.6921  -0.6699  -0.5629  -0.5435  -0.4595  -0.4509  -0.4148  -0.3898
 -0.3847  -0.3813  -0.3565  -0.3380  -0.3366  -0.3259  -0.2982  -0.2920
 -0.2755  -0.2424  -0.2212  -0.2202  -0.2138  -0.1403

          Ground-State Mulliken Net Atomic Charges

     Atom                 Charge (a.u.)
  ----------------------------------------
      1 C                    -1.460289
      2 C                     0.783505
      3 C                    -0.280198
      4 C                    -0.495984
      5 C                    -0.661816
      6 C                     1.280608
      7 O                    -0.758366
      8 H                     0.197931
      9 O                    -0.632883
     10 Cl                    0.141595
     11 Br                   -0.285697
     12 H                     0.171594
  ----------------------------------------
  Sum of atomic charges =    -2.000000

                    Cartesian Multipole Moments
 -----------------------------------------------------------------
    Charge (ESU x 10^10)
                -9.6064
    Dipole Moment (Debye)
         X      -5.5611      Y      -3.3461      Z       0.0001
       Tot       6.4901
    Quadrupole Moments (Debye-Ang)
        XX    -106.7016     XY     -13.1749     YY    -147.5039
        XZ      -0.0000     YZ      -0.0006     ZZ     -85.3484

 Total job time:  15.82s(wall), 116.09s(cpu)
        *  Thank you very much for using Q-Chem.  Have a nice day.  *
