 Q-Chem 5.4, Q-Chem, Inc., Pleasanton, CA (2021)
 Q-Chem 5.4.0 for Intel X86 EM64T Linux

User input:
--------------------------------------------------------------
$molecule
-1 2
C                  2.6102860000     -0.1804260000      0.7131090000
O                  1.8268020000      0.2338050000     -0.4042370000
C                  0.4531340000      0.1449460000     -0.2486360000
C                 -0.2889790000      1.2693750000     -0.4989140000
C                 -1.7359510000      1.2852590000     -0.4404910000
O                 -2.4119600000      2.3284180000     -0.6722590000
C                 -2.3504180000      0.0214710000     -0.0853050000
C                 -1.6079240000     -1.1029630000      0.1627650000
C                 -0.1648530000     -1.1380810000      0.0820960000
O                  0.5033140000     -2.1983510000      0.2693680000
H                  2.4066900000     -1.2215860000      0.9681150000
H                  3.6543230000     -0.0580000000      0.4143260000
H                  2.4100970000      0.4636700000      1.5812280000
H                  0.2165480000      2.1937530000     -0.7594060000
H                 -3.4352150000      0.0039900000     -0.0265590000
H                 -2.0858950000     -2.0452810000      0.4173600000
$end
$rem
MAX_SCF_CYCLES=200
BASIS  =  6-311++G(d,p)
GUI  =  2
JOB_TYPE  =  SP
METHOD  =  B3LYP
SOLVENT_METHOD = COSMO
$end
$solvent
dielectric 37.219
opticaldielectric 1.43
$end

--------------------------------------------------------------

             Standard Nuclear Orientation (Angstroms)
    I     Atom           X                Y                Z
 ----------------------------------------------------------------
    1      C      -2.7566316540    -0.9276379613     0.4981658091
    2      O      -1.7004647820    -1.1175037072    -0.4411739166
    3      C      -0.5376123653    -0.4045280386    -0.1992827835
    4      C       0.6386680990    -1.1055272208    -0.1475548976
    5      C       1.9269006416    -0.4674043360     0.0275154233
    6      O       3.0069709890    -1.1232134593     0.0749254592
    7      C       1.8852665044     0.9757063548     0.1562983044
    8      C       0.7090051465     1.6761995768     0.1023877391
    9      C      -0.5802015872     1.0533463210    -0.0980979011
   10      O      -1.6531967734     1.7208667691    -0.1918432827
   11      H      -3.0548075548     0.1209419735     0.5436057628
   12      H      -3.5878147920    -1.5458412814     0.1499820787
   13      H      -2.4489669626    -1.2729189317     1.4955069645
   14      H       0.6191914187    -2.1861027886    -0.2468797075
   15      H       2.8362442730     1.4823491393     0.2959248836
   16      H       0.6973094394     2.7594468914     0.1900037754
 ----------------------------------------------------------------

   10    -496.1965581433      7.93e-06  Convergence criterion met
 Total energy in the final basis set =     -496.1965581433
    4    -496.2860658442      9.06e-06  Convergence criterion met
 Total energy in the final basis set =     -496.2860658442

                    Orbital Energies (a.u.)
 --------------------------------------------------------------

 Alpha MOs
 -- Occupied --
-19.1415 -19.0854 -19.0843 -10.2275 -10.2265 -10.2252 -10.2039 -10.1677
-10.1657 -10.1615  -1.0549  -1.0046  -1.0021  -0.8253  -0.7515  -0.6967
 -0.6720  -0.6028  -0.5690  -0.4976  -0.4902  -0.4690  -0.4587  -0.4364
 -0.4259  -0.4123  -0.4066  -0.3865  -0.3805  -0.3691  -0.3507  -0.3031
 -0.2849  -0.2519  -0.2479  -0.2402  -0.1692

 Beta MOs
 -- Occupied --
-19.1412 -19.0783 -19.0776 -10.2257 -10.2253 -10.2241 -10.2039 -10.1668
-10.1642 -10.1608  -1.0536  -0.9929  -0.9899  -0.8191  -0.7491  -0.6909
 -0.6653  -0.5986  -0.5655  -0.4956  -0.4875  -0.4649  -0.4554  -0.4343
 -0.4232  -0.4067  -0.3897  -0.3811  -0.3672  -0.3520  -0.3477  -0.2985
 -0.2550  -0.2445  -0.2412  -0.2338

          Ground-State Mulliken Net Atomic Charges

     Atom                 Charge (a.u.)    Spin (a.u.)
  --------------------------------------------------------
      1 C                    -0.308967       0.005663
      2 O                    -0.244575       0.002088
      3 C                    -0.310722       0.112639
      4 C                     0.520404       0.012143
      5 C                    -0.513229       0.133226
      6 O                    -0.549688       0.227929
      7 C                     0.093107       0.104456
      8 C                    -0.075795       0.079069
      9 C                    -0.207305       0.090128
     10 O                    -0.530193       0.252623
     11 H                     0.180428      -0.001063
     12 H                     0.158686       0.000474
     13 H                     0.145206       0.000403
     14 H                     0.225332      -0.005785
     15 H                     0.206055      -0.007901
     16 H                     0.211254      -0.006092
  --------------------------------------------------------
  Sum of atomic charges =    -1.000000

                    Cartesian Multipole Moments
 -----------------------------------------------------------------
    Charge (ESU x 10^10)
                -4.8032
    Dipole Moment (Debye)
         X      -3.9482      Y      -0.2135      Z       1.7797
       Tot       4.3361
    Quadrupole Moments (Debye-Ang)
        XX     -89.8491     XY      18.8084     YY     -71.7796
        XZ      -4.5968     YZ      -0.0207     ZZ     -62.8117

 Total job time:  21.10s(wall), 145.96s(cpu)
        *  Thank you very much for using Q-Chem.  Have a nice day.  *
