 Q-Chem 5.4, Q-Chem, Inc., Pleasanton, CA (2021)
 Q-Chem 5.4.0 for Intel X86 EM64T Linux

User input:
--------------------------------------------------------------
$molecule
-1 2
C                 -5.5148860000     -0.0404140000     -0.4310770000
C                 -5.7487700000     -0.4882650000     -1.7197660000
C                 -4.6873610000     -0.5633470000     -2.6403330000
C                 -4.2244880000      0.3449330000     -0.0209240000
C                 -3.1561100000      0.2694130000     -0.9489970000
C                 -3.4120850000     -0.1888320000     -2.2552240000
C                 -4.0288170000      0.8243870000      1.3692780000
C                 -2.6647720000      1.1860620000      1.7021190000
C                 -1.6228280000      1.1046550000      0.7897210000
C                 -1.7852830000      0.6607260000     -0.5648610000
S                 -2.3270720000      1.8957690000      3.3104900000
C                 -2.4307660000      0.5358800000      4.4605460000
C                 -2.5675630000     -0.8009320000      4.0759670000
C                 -2.3347030000      0.8463200000      5.8249600000
C                 -2.3682750000     -0.1474280000      6.8034200000
C                 -2.6014610000     -1.7960790000      5.0485240000
C                 -2.4997540000     -1.4823930000      6.4030070000
C                 -2.3010680000      0.2171160000      8.2692720000
O                 -4.9843110000      0.8907500000      2.1722520000
O                 -0.8247410000      0.5984580000     -1.3770720000
H                 -6.3128390000      0.0282330000      0.2992700000
H                 -6.7500850000     -0.7819830000     -2.0205050000
H                 -4.8700900000     -0.9148480000     -3.6515610000
H                 -2.5741590000     -0.2354280000     -2.9414830000
H                 -0.6190960000      1.3858830000      1.0887120000
H                 -2.6480080000     -1.0530590000      3.0265610000
H                 -2.2364620000      1.8859760000      6.1246950000
H                 -2.7071600000     -2.8320790000      4.7420040000
H                 -2.5258020000     -2.2712140000      7.1488280000
H                 -1.7804560000      1.1662960000      8.4206080000
H                 -1.7790490000     -0.5510010000      8.8472120000
H                 -3.3048800000      0.3222550000      8.6972680000
$end

$rem
BASIS  =  6-311++G(d,p)
GUI  =  2
JOB_TYPE  =  SP
METHOD  =  B3LYP
SCF_CONVERGENCE  = 8
SOLVENT_METHOD = sm12
$end

$smx
solvent dimethylformamide
charges CM5
$end

--------------------------------------------------------------

             Standard Nuclear Orientation (Angstroms)
    I     Atom           X                Y                Z
 ----------------------------------------------------------------
    1      C      -5.5148860000    -0.0404140000    -0.4310770000
    2      C      -5.7487700000    -0.4882650000    -1.7197660000
    3      C      -4.6873610000    -0.5633470000    -2.6403330000
    4      C      -4.2244880000     0.3449330000    -0.0209240000
    5      C      -3.1561100000     0.2694130000    -0.9489970000
    6      C      -3.4120850000    -0.1888320000    -2.2552240000
    7      C      -4.0288170000     0.8243870000     1.3692780000
    8      C      -2.6647720000     1.1860620000     1.7021190000
    9      C      -1.6228280000     1.1046550000     0.7897210000
   10      C      -1.7852830000     0.6607260000    -0.5648610000
   11      S      -2.3270720000     1.8957690000     3.3104900000
   12      C      -2.4307660000     0.5358800000     4.4605460000
   13      C      -2.5675630000    -0.8009320000     4.0759670000
   14      C      -2.3347030000     0.8463200000     5.8249600000
   15      C      -2.3682750000    -0.1474280000     6.8034200000
   16      C      -2.6014610000    -1.7960790000     5.0485240000
   17      C      -2.4997540000    -1.4823930000     6.4030070000
   18      C      -2.3010680000     0.2171160000     8.2692720000
   19      O      -4.9843110000     0.8907500000     2.1722520000
   20      O      -0.8247410000     0.5984580000    -1.3770720000
   21      H      -6.3128390000     0.0282330000     0.2992700000
   22      H      -6.7500850000    -0.7819830000    -2.0205050000
   23      H      -4.8700900000    -0.9148480000    -3.6515610000
   24      H      -2.5741590000    -0.2354280000    -2.9414830000
   25      H      -0.6190960000     1.3858830000     1.0887120000
   26      H      -2.6480080000    -1.0530590000     3.0265610000
   27      H      -2.2364620000     1.8859760000     6.1246950000
   28      H      -2.7071600000    -2.8320790000     4.7420040000
   29      H      -2.5258020000    -2.2712140000     7.1488280000
   30      H      -1.7804560000     1.1662960000     8.4206080000
   31      H      -1.7790490000    -0.5510010000     8.8472120000
   32      H      -3.3048800000     0.3222550000     8.6972680000
 ----------------------------------------------------------------

   17   -1203.9800602280      7.99e-09  Convergence criterion met
 Total energy in the final basis set =    -1204.0692586259

                    Orbital Energies (a.u.)
 --------------------------------------------------------------

 Alpha MOs
 -- Occupied --
-88.8537 -19.0823 -19.0820 -10.2338 -10.2283 -10.2136 -10.2002 -10.1921
-10.1870 -10.1864 -10.1863 -10.1854 -10.1841 -10.1827 -10.1826 -10.1800
-10.1788 -10.1764 -10.1762 -10.1704  -7.9392  -5.9031  -5.8992  -5.8934
 -1.0106  -1.0046  -0.8733  -0.8695  -0.8295  -0.7930  -0.7733  -0.7617
 -0.7548  -0.7112  -0.6918  -0.6747  -0.6287  -0.6179  -0.6083  -0.5818
 -0.5635  -0.5202  -0.5158  -0.5047  -0.4792  -0.4741  -0.4598  -0.4501
 -0.4378  -0.4335  -0.4272  -0.4244  -0.4219  -0.4160  -0.4095  -0.3988
 -0.3920  -0.3834  -0.3746  -0.3708  -0.3637  -0.3563  -0.3520  -0.3496
 -0.3332  -0.2959  -0.2826  -0.2675  -0.2642  -0.2570  -0.2496  -0.2422
 -0.2156  -0.1628

 Beta MOs
 -- Occupied --
-88.8537 -19.0762 -19.0749 -10.2329 -10.2273 -10.2134 -10.1984 -10.1921
-10.1867 -10.1860 -10.1859 -10.1850 -10.1842 -10.1827 -10.1826 -10.1800
-10.1788 -10.1762 -10.1742 -10.1704  -7.9392  -5.9032  -5.8992  -5.8934
 -1.0001  -0.9923  -0.8729  -0.8679  -0.8254  -0.7914  -0.7730  -0.7603
 -0.7534  -0.7077  -0.6915  -0.6680  -0.6270  -0.6156  -0.6081  -0.5807
 -0.5614  -0.5191  -0.5140  -0.5025  -0.4783  -0.4723  -0.4586  -0.4496
 -0.4373  -0.4300  -0.4243  -0.4222  -0.4195  -0.4098  -0.4036  -0.3957
 -0.3916  -0.3748  -0.3701  -0.3592  -0.3556  -0.3545  -0.3512  -0.3479
 -0.3293  -0.2943  -0.2620  -0.2594  -0.2575  -0.2524  -0.2434  -0.2363
 -0.2143

          Ground-State Mulliken Net Atomic Charges

     Atom                 Charge (a.u.)    Spin (a.u.)
  --------------------------------------------------------
      1 C                     0.227941       0.025879
      2 C                     1.074379       0.021085
      3 C                     0.962162       0.012515
      4 C                    -0.941151      -0.006893
      5 C                    -1.036868       0.032643
      6 C                    -0.033228       0.025792
      7 C                    -1.866304       0.079040
      8 C                     1.208866       0.093930
      9 C                    -0.641606       0.163632
     10 C                    -1.450827       0.069646
     11 S                     0.387385      -0.002302
     12 C                    -1.488496       0.004951
     13 C                    -1.772643       0.006881
     14 C                    -0.241536       0.003002
     15 C                     1.252626      -0.000451
     16 C                     0.141180      -0.006508
     17 C                     0.099933       0.002654
     18 C                     1.045112       0.000144
     19 O                    -0.259619       0.230827
     20 O                    -0.360032       0.260878
     21 H                     0.154095      -0.002386
     22 H                     0.369048      -0.001757
     23 H                     0.369189      -0.001159
     24 H                     0.163414      -0.003328
     25 H                     0.182013      -0.013692
     26 H                    -0.062548       0.004838
     27 H                     0.226464       0.000305
     28 H                     0.304244      -0.000135
     29 H                     0.274948      -0.000032
     30 H                     0.243925       0.000031
     31 H                     0.244051       0.000002
     32 H                     0.223883      -0.000033
  --------------------------------------------------------
  Sum of atomic charges =    -1.000000

                    Cartesian Multipole Moments
 -----------------------------------------------------------------
    Charge (ESU x 10^10)
                -4.8032
    Dipole Moment (Debye)
         X      12.9930      Y      -4.2835      Z      -3.2660
       Tot      14.0653
    Quadrupole Moments (Debye-Ang)
        XX    -184.2274     XY      14.1902     YY    -132.3810
        XZ      23.5023     YZ      -4.3781     ZZ    -140.4622

 Total job time:  982.14s(wall), 7551.70s(cpu)
        *  Thank you very much for using Q-Chem.  Have a nice day.  *
