 Gaussian 16, Revision A.03,
 Gaussian 16:  ES64L-G16RevA.03 25-Dec-2016

 ----------------------------------------------------------------------
 #P UB3LYP/6-311++G(d,p) nosym opt freq SCRF=(PCM,Solvent=n,n-DiMethylF
 ormamide)
 ----------------------------------------------------------------------

 --------
 Oxidized
 --------
 Symbolic Z-matrix:
 Charge =  0 Multiplicity = 1

 SCF Done:  E(UB3LYP) =  -992.163168226     A.U. after   15 cycles
 SCF Done:  E(UB3LYP) =  -992.163365728     A.U. after   12 cycles
 SCF Done:  E(UB3LYP) =  -992.163268035     A.U. after   12 cycles
 SCF Done:  E(UB3LYP) =  -992.163427326     A.U. after   12 cycles
 SCF Done:  E(UB3LYP) =  -992.163479309     A.U. after   11 cycles
 SCF Done:  E(UB3LYP) =  -992.163485502     A.U. after   11 cycles
 SCF Done:  E(UB3LYP) =  -992.163494551     A.U. after   10 cycles
 SCF Done:  E(UB3LYP) =  -992.163497033     A.U. after   11 cycles
 SCF Done:  E(UB3LYP) =  -992.163499963     A.U. after   10 cycles
 SCF Done:  E(UB3LYP) =  -992.163503479     A.U. after   11 cycles
 SCF Done:  E(UB3LYP) =  -992.163505536     A.U. after   11 cycles
 SCF Done:  E(UB3LYP) =  -992.163506578     A.U. after    9 cycles
 SCF Done:  E(UB3LYP) =  -992.163506939     A.U. after   10 cycles
 SCF Done:  E(UB3LYP) =  -992.163507042     A.U. after    9 cycles
 SCF Done:  E(UB3LYP) =  -992.163507185     A.U. after    9 cycles
 SCF Done:  E(UB3LYP) =  -992.163507357     A.U. after    8 cycles
 SCF Done:  E(UB3LYP) =  -992.163507496     A.U. after    8 cycles
 SCF Done:  E(UB3LYP) =  -992.163507637     A.U. after    8 cycles
 SCF Done:  E(UB3LYP) =  -992.163507736     A.U. after    9 cycles
 Optimization completed.
    -- Stationary point found.
 Normal termination of Gaussian 16 at Sat Feb 10 18:23:50 2024.

 ----------------------------------------------------------------------
 #P Geom=AllCheck Guess=TCheck SCRF=Check GenChk UB3LYP/6-311++G(d,p) F
 req
 ----------------------------------------------------------------------

 Structure from the checkpoint file:  "180.chk"
 --------
 Oxidized
 --------
 Charge =  0 Multiplicity = 1

                          Input orientation:
 ---------------------------------------------------------------------
 Center     Atomic      Atomic             Coordinates (Angstroms)
 Number     Number       Type             X           Y           Z
 ---------------------------------------------------------------------
      1          6           0       -1.567263    1.916329   -4.804705
      2          6           0       -1.556897    0.548675   -5.052230
      3          6           0       -1.302558   -0.348784   -4.011452
      4          6           0       -1.326845    2.397292   -3.512973
      5          6           0       -1.069152    1.496576   -2.466261
      6          6           0       -1.056326    0.122961   -2.726658
      7          6           0       -1.348114    3.852631   -3.260295
      8          6           0       -0.787889    1.973093   -1.082615
      9          6           0       -1.151619    4.340077   -1.889146
     10          6           0       -0.896821    3.439101   -0.814837
     11          6           0       -1.241566    5.729976   -1.639995
     12          6           0       -1.099947    6.214884   -0.330428
     13          6           0       -0.867954    5.338024    0.706114
     14          6           0       -0.759843    3.963200    0.470773
     15          8           0       -1.546527    4.645351   -4.196825
     16          8           0       -0.475020    1.173899   -0.210493
     17          1           0       -1.761244    2.623579   -5.600535
     18          1           0       -1.746346    0.179339   -6.053042
     19          1           0       -1.295478   -1.414880   -4.205036
     20          1           0       -0.853171   -0.561572   -1.913398
     21          1           0       -0.766038    5.698222    1.722399
     22          8           0       -1.467090    6.626095   -2.610281
     23          8           0       -0.604886    3.158889    1.592565
     24          6           0        0.643220    2.681191    1.900069
     25          6           0        0.571476    1.739138    3.062200
     26          8           0        1.632311    3.009848    1.296956
     27          1           0       -1.179286    7.280703   -0.156977
     28          1           0       -1.545844    6.117016   -3.457418
     29          1           0        0.065256    0.825753    2.740355
     30          1           0       -0.013142    2.176426    3.873094
     31          1           0        1.575460    1.499869    3.405411
 ---------------------------------------------------------------------

 SCF Done:  E(UB3LYP) =  -992.163507736     A.U. after    1 cycles

 Alpha  occ. eigenvalues --  -19.19039 -19.16718 -19.14542 -19.13516 -19.13301
 Alpha  occ. eigenvalues --  -10.32569 -10.29539 -10.29166 -10.27469 -10.26822
 Alpha  occ. eigenvalues --  -10.22565 -10.21923 -10.21441 -10.21366 -10.21127
 Alpha  occ. eigenvalues --  -10.20551 -10.20271 -10.20245 -10.20174 -10.20138
 Alpha  occ. eigenvalues --  -10.18477  -1.13383  -1.09765  -1.06976  -1.06584
 Alpha  occ. eigenvalues --   -1.04921  -0.90183  -0.88752  -0.82437  -0.79639
 Alpha  occ. eigenvalues --   -0.78347  -0.78149  -0.75412  -0.70566  -0.68007
 Alpha  occ. eigenvalues --   -0.66518  -0.65281  -0.61005  -0.59424  -0.57526
 Alpha  occ. eigenvalues --   -0.56336  -0.54429  -0.51449  -0.51036  -0.50766
 Alpha  occ. eigenvalues --   -0.49980  -0.49387  -0.48154  -0.46910  -0.46687
 Alpha  occ. eigenvalues --   -0.46044  -0.45665  -0.45052  -0.44926  -0.43511
 Alpha  occ. eigenvalues --   -0.42768  -0.42435  -0.41771  -0.40670  -0.39392
 Alpha  occ. eigenvalues --   -0.39347  -0.38742  -0.38308  -0.37355  -0.35873
 Alpha  occ. eigenvalues --   -0.34094  -0.30431  -0.29974  -0.29949  -0.28437
 Alpha  occ. eigenvalues --   -0.28333  -0.27981  -0.25468
 Alpha virt. eigenvalues --   -0.12755  -0.07746  -0.04553  -0.02672  -0.01541
 Alpha virt. eigenvalues --   -0.00707   0.00020   0.00445   0.01430   0.01858
 Alpha virt. eigenvalues --    0.02608   0.02755   0.03128   0.03391   0.03683

  Beta  occ. eigenvalues --  -19.19039 -19.16718 -19.14542 -19.13516 -19.13301
  Beta  occ. eigenvalues --  -10.32569 -10.29539 -10.29166 -10.27469 -10.26822
  Beta  occ. eigenvalues --  -10.22565 -10.21923 -10.21441 -10.21366 -10.21127
  Beta  occ. eigenvalues --  -10.20551 -10.20271 -10.20245 -10.20174 -10.20138
  Beta  occ. eigenvalues --  -10.18477  -1.13383  -1.09765  -1.06976  -1.06584
  Beta  occ. eigenvalues --   -1.04921  -0.90183  -0.88752  -0.82437  -0.79639
  Beta  occ. eigenvalues --   -0.78347  -0.78149  -0.75412  -0.70566  -0.68007
  Beta  occ. eigenvalues --   -0.66518  -0.65281  -0.61005  -0.59424  -0.57526
  Beta  occ. eigenvalues --   -0.56336  -0.54429  -0.51449  -0.51036  -0.50766
  Beta  occ. eigenvalues --   -0.49980  -0.49387  -0.48154  -0.46910  -0.46687
  Beta  occ. eigenvalues --   -0.46044  -0.45665  -0.45052  -0.44926  -0.43511
  Beta  occ. eigenvalues --   -0.42768  -0.42435  -0.41771  -0.40670  -0.39392
  Beta  occ. eigenvalues --   -0.39347  -0.38742  -0.38308  -0.37355  -0.35873
  Beta  occ. eigenvalues --   -0.34094  -0.30431  -0.29974  -0.29949  -0.28437
  Beta  occ. eigenvalues --   -0.28333  -0.27981  -0.25468
  Beta virt. eigenvalues --   -0.12755  -0.07746  -0.04553  -0.02672  -0.01541
  Beta virt. eigenvalues --   -0.00707   0.00020   0.00445   0.01430   0.01858
  Beta virt. eigenvalues --    0.02608   0.02755   0.03128   0.03391   0.03683

 Mulliken charges and spin densities:
               1          2
     1  C    0.005876  -0.000000
     2  C   -0.477910   0.000000
     3  C   -0.396480  -0.000000
     4  C    0.118849  -0.000000
     5  C   -0.228774   0.000000
     6  C    0.088128   0.000000
     7  C   -0.343755  -0.000000
     8  C   -0.266576   0.000000
     9  C    0.770437   0.000000
    10  C    0.682786   0.000000
    11  C   -0.325257  -0.000000
    12  C   -0.143041   0.000000
    13  C    0.180479  -0.000000
    14  C   -0.246885   0.000000
    15  O   -0.311745   0.000000
    16  O   -0.253496   0.000000
    17  H    0.192622   0.000000
    18  H    0.208110  -0.000000
    19  H    0.212945  -0.000000
    20  H    0.183754  -0.000000
    21  H    0.234223   0.000000
    22  O   -0.319090  -0.000000
    23  O    0.016554   0.000000
    24  C    0.032305  -0.000000
    25  C   -0.487876   0.000000
    26  O   -0.272198   0.000000
    27  H    0.235543  -0.000000
    28  H    0.351569   0.000000
    29  H    0.196013  -0.000000
    30  H    0.186385  -0.000000
    31  H    0.176505   0.000000
 Sum of Mulliken charges =  -0.00000  -0.00000

 Dipole moment (field-independent basis, Debye):
    X=             -2.4799    Y=             -2.3920    Z=              0.1776  Tot=              3.4501
 Quadrupole moment (field-independent basis, Debye-Ang):
   XX=           -126.4974   YY=           -124.6842   ZZ=            -99.1037
   XY=             -3.5715   XZ=              2.3493   YZ=             21.2974

  Exact polarizability: 159.669 -12.530 367.290  40.205  30.173 355.703
 Approx polarizability: 190.262 -17.786 426.959  40.294   8.387 416.039

                      1                      2                      3
                      A                      A                      A
 Frequencies --     24.2720                50.8685                58.6147
 Red. masses --      8.3511                 6.1466                 4.4279
 Frc consts  --      0.0029                 0.0094                 0.0090
 IR Inten    --      5.6867                 1.0943                 2.7806

                      4                      5                      6
                      A                      A                      A
 Frequencies --     69.6519                88.0419                96.3287
 Red. masses --      1.5104                 2.1661                 5.0123
 Frc consts  --      0.0043                 0.0099                 0.0274
 IR Inten    --      4.3504                 2.9331                 0.9833

                      7                      8                      9
                      A                      A                      A
 Frequencies --    121.6876               161.4897               174.4534
 Red. masses --      6.7800                 6.5585                 7.5710
 Frc consts  --      0.0592                 0.1008                 0.1358
 IR Inten    --      0.7713                 0.7365                 3.9042

                     10                     11                     12
                      A                      A                      A
 Frequencies --    211.5175               243.4371               290.9522
 Red. masses --      6.0538                 7.1264                 4.2409
 Frc consts  --      0.1596                 0.2488                 0.2115
 IR Inten    --      0.9453                 2.0875                 7.5592

                     13                     14                     15
                      A                      A                      A
 Frequencies --    310.3296               338.1132               368.6235
 Red. masses --      7.9505                 6.3886                 5.5867
 Frc consts  --      0.4511                 0.4303                 0.4473
 IR Inten    --      1.5071                 5.7131                 0.7855

                     16                     17                     18
                      A                      A                      A
 Frequencies --    392.5612               418.9920               425.9720
 Red. masses --      9.1532                 4.9554                 4.5782
 Frc consts  --      0.8311                 0.5126                 0.4895
 IR Inten    --      6.3672                 6.0223                10.5780

                     19                     20                     21
                      A                      A                      A
 Frequencies --    434.7812               438.4879               480.9238
 Red. masses --      5.8618                10.0707                 7.1685
 Frc consts  --      0.6529                 1.1408                 0.9769
 IR Inten    --      7.0194                33.0267                 6.2981

                     22                     23                     24
                      A                      A                      A
 Frequencies --    496.5548               503.6172               523.8102
 Red. masses --      4.8675                 5.7839                 6.5509
 Frc consts  --      0.7071                 0.8643                 1.0590
 IR Inten    --      1.1373                 0.5164                28.0417

                     25                     26                     27
                      A                      A                      A
 Frequencies --    573.8643               584.3650               611.8085
 Red. masses --      4.1774                 3.0569                 5.0426
 Frc consts  --      0.8105                 0.6150                 1.1121
 IR Inten    --     31.1148                10.3299                 7.0853

                     28                     29                     30
                      A                      A                      A
 Frequencies --    653.3589               665.5969               677.3808
 Red. masses --      5.4756                 5.8358                 5.6074
 Frc consts  --      1.3772                 1.5233                 1.5159
 IR Inten    --     10.6570                12.5768                15.8600

                     31                     32                     33
                      A                      A                      A
 Frequencies --    713.7078               732.4603               736.8502
 Red. masses --      6.3326                 4.9118                 2.2585
 Frc consts  --      1.9005                 1.5526                 0.7225
 IR Inten    --     10.2325                18.7864                32.6983

                     34                     35                     36
                      A                      A                      A
 Frequencies --    773.4799               794.0737               799.6328
 Red. masses --      5.1658                 1.4626                 2.5516
 Frc consts  --      1.8209                 0.5434                 0.9612
 IR Inten    --      5.4982               155.6129                68.3903

                     37                     38                     39
                      A                      A                      A
 Frequencies --    816.9815               844.8895               877.3942
 Red. masses --      2.2502                 2.1736                 3.7391
 Frc consts  --      0.8849                 0.9142                 1.6959
 IR Inten    --      3.7321                13.7480                94.6788

                     40                     41                     42
                      A                      A                      A
 Frequencies --    896.8171               913.9607               924.4704
 Red. masses --      5.8505                 1.4033                 6.5896
 Frc consts  --      2.7724                 0.6906                 3.3182
 IR Inten    --     82.2554                 0.6457                52.8039

                     43                     44                     45
                      A                      A                      A
 Frequencies --    963.4378               989.3962              1003.1906
 Red. masses --      5.5214                 1.3705                 1.3839
 Frc consts  --      3.0196                 0.7904                 0.8206
 IR Inten    --     69.5507                 7.0498                 1.5949

                     46                     47                     48
                      A                      A                      A
 Frequencies --   1015.6016              1024.4663              1048.2230
 Red. masses --      2.0856                 1.3331                 2.7541
 Frc consts  --      1.2675                 0.8243                 1.7829
 IR Inten    --    188.0597                 0.0272                50.1821

                     49                     50                     51
                      A                      A                      A
 Frequencies --   1058.3537              1086.1388              1114.3948
 Red. masses --      1.7799                 2.1801                 2.3051
 Frc consts  --      1.1746                 1.5153                 1.6866
 IR Inten    --     15.8691                69.7849                 1.7204

                     52                     53                     54
                      A                      A                      A
 Frequencies --   1171.5057              1182.7006              1184.7557
 Red. masses --      1.3332                 1.5140                 1.8080
 Frc consts  --      1.0780                 1.2477                 1.4952
 IR Inten    --     40.7777               204.2032               174.6622

                     55                     56                     57
                      A                      A                      A
 Frequencies --   1188.3699              1242.0954              1247.7210
 Red. masses --      2.9920                 4.9391                 1.9656
 Frc consts  --      2.4895                 4.4896                 1.8030
 IR Inten    --    704.8794               110.0470               251.1025

                     58                     59                     60
                      A                      A                      A
 Frequencies --   1263.0120              1294.8409              1321.6442
 Red. masses --      3.1690                 2.4407                 3.1800
 Frc consts  --      2.9784                 2.4110                 3.2727
 IR Inten    --    711.8815               229.6987                79.9725

                     61                     62                     63
                      A                      A                      A
 Frequencies --   1358.7647              1371.6820              1389.6783
 Red. masses --      6.3731                 4.4201                 4.3922
 Frc consts  --      6.9325                 4.8999                 4.9976
 IR Inten    --     57.4398               427.5277                87.2387

                     64                     65                     66
                      A                      A                      A
 Frequencies --   1391.5630              1455.8637              1458.5505
 Red. masses --      1.3659                 5.4275                 1.0532
 Frc consts  --      1.5584                 6.7778                 1.3201
 IR Inten    --    122.6541               113.2124                31.6960

                     67                     68                     69
                      A                      A                      A
 Frequencies --   1463.1081              1481.8136              1485.2983
 Red. masses --      1.0542                 2.4862                 2.2054
 Frc consts  --      1.3297                 3.2165                 2.8666
 IR Inten    --     15.8048               148.3619               258.8681

                     70                     71                     72
                      A                      A                      A
 Frequencies --   1508.3039              1600.5195              1612.6857
 Red. masses --      2.6561                 7.2674                 5.3336
 Frc consts  --      3.5602                10.9685                 8.1729
 IR Inten    --     21.1244                69.1854                29.5118

                     73                     74                     75
                      A                      A                      A
 Frequencies --   1617.4377              1620.8458              1659.5271
 Red. masses --      4.6259                 5.7204                 7.5675
 Frc consts  --      7.1301                 8.8544                12.2792
 IR Inten    --     36.8316               341.3820               414.2266

                     76                     77                     78
                      A                      A                      A
 Frequencies --   1700.7903              1784.6591              3054.5153
 Red. masses --     11.6777                11.5622                 1.0367
 Frc consts  --     19.9026                21.6970                 5.6986
 IR Inten    --    344.0768               458.8189                 0.5436

                     79                     80                     81
                      A                      A                      A
 Frequencies --   3118.6617              3159.5015              3180.9106
 Red. masses --      1.0994                 1.1040                 1.0877
 Frc consts  --      6.3000                 6.4934                 6.4846
 IR Inten    --      3.7461                 9.6634                 3.3512

                     82                     83                     84
                      A                      A                      A
 Frequencies --   3193.3122              3195.1125              3207.2701
 Red. masses --      1.0920                 1.0891                 1.0926
 Frc consts  --      6.5609                 6.5505                 6.6218
 IR Inten    --     13.2559                 3.5431                 2.5829

                     85                     86                     87
                      A                      A                      A
 Frequencies --   3207.5113              3209.9309              3254.3488
 Red. masses --      1.0964                 1.0950                 1.0687
 Frc consts  --      6.6460                 6.6475                 6.6684
 IR Inten    --      3.7250                16.0940               548.1946

 - Thermochemistry -
 -------------------
 Temperature   298.150 Kelvin.  Pressure   1.00000 Atm.
 Atom     1 has atomic number  6 and mass  12.00000

 Molecular mass:   282.05282 amu.
 Principal axes and moments of inertia in atomic units:
                           1         2         3
     Eigenvalues --  4025.312296389.58204**********
           X            0.25704  -0.17923   0.94964
           Y            0.24878   0.96181   0.11419
           Z            0.93383  -0.20690  -0.29181
 This molecule is an asymmetric top.
 Rotational symmetry number  1.
 Warning -- assumption of classical behavior for rotation
           may cause significant error
 Rotational temperatures (Kelvin)      0.02152     0.01356     0.00866
 Rotational constants (GHZ):           0.44835     0.28245     0.18046
 Zero-point vibrational energy     588904.8 (Joules/Mol)
                                  140.75162 (Kcal/Mol)
 Warning -- explicit consideration of  27 degrees of freedom as
           vibrations may cause significant error
 Vibrational temperatures:     34.92    73.19    84.33   100.21   126.67
          (Kelvin)            138.60   175.08   232.35   251.00   304.33
                              350.25   418.62   446.50   486.47   530.37
                              564.81   602.84   612.88   625.55   630.89
                              691.94   714.43   724.59   753.65   825.66
                              840.77   880.26   940.04   957.65   974.60
                             1026.87  1053.85  1060.16  1112.87  1142.49
                             1150.49  1175.45  1215.61  1262.37  1290.32
                             1314.99  1330.11  1386.17  1423.52  1443.37
                             1461.22  1473.98  1508.16  1522.73  1562.71
                             1603.37  1685.54  1701.64  1704.60  1709.80
                             1787.10  1795.19  1817.19  1862.99  1901.55
                             1954.96  1973.54  1999.44  2002.15  2094.66
                             2098.53  2105.09  2132.00  2137.01  2170.11
                             2302.79  2320.30  2327.13  2332.04  2387.69
                             2447.06  2567.73  4394.77  4487.06  4545.82
                             4576.62  4594.46  4597.05  4614.55  4614.89
                             4618.37  4682.28

 Zero-point correction=                           0.224302 (Hartree/Particle)
 Thermal correction to Energy=                    0.241117
 Thermal correction to Enthalpy=                  0.242061
 Thermal correction to Gibbs Free Energy=         0.178503
 Sum of electronic and zero-point Energies=           -991.939206
 Sum of electronic and thermal Energies=              -991.922391
 Sum of electronic and thermal Enthalpies=            -991.921446
 Sum of electronic and thermal Free Energies=         -991.985005

                     E (Thermal)             CV                S
                      KCal/Mol        Cal/Mol-Kelvin    Cal/Mol-Kelvin
 Total                  151.303             65.056            133.769
 Electronic               0.000              0.000              0.000
 Translational            0.889              2.981             42.809
 Rotational               0.889              2.981             33.908
 Vibrational            149.526             59.094             57.052
 Vibration     1          0.593              1.985              6.250
 Vibration     2          0.595              1.977              4.783
 Vibration     3          0.596              1.974              4.503
 Vibration     4          0.598              1.969              4.163
 Vibration     5          0.601              1.958              3.703
 Vibration     6          0.603              1.952              3.527
 Vibration     7          0.609              1.931              3.073
 Vibration     8          0.622              1.890              2.532
 Vibration     9          0.627              1.874              2.387
 Vibration    10          0.643              1.823              2.031
 Vibration    11          0.659              1.774              1.778
 Vibration    12          0.687              1.691              1.468
 Vibration    13          0.699              1.654              1.361
 Vibration    14          0.718              1.599              1.221
 Vibration    15          0.741              1.537              1.086
 Vibration    16          0.760              1.486              0.990
 Vibration    17          0.782              1.429              0.895
 Vibration    18          0.788              1.414              0.872
 Vibration    19          0.795              1.394              0.843
 Vibration    20          0.799              1.386              0.831
 Vibration    21          0.837              1.292              0.708
 Vibration    22          0.852              1.258              0.667
 Vibration    23          0.859              1.242              0.649
 Vibration    24          0.879              1.197              0.601
 Vibration    25          0.930              1.088              0.497
 Vibration    26          0.941              1.065              0.477
 Vibration    27          0.971              1.007              0.430

 Optimization completed.
    -- Stationary point found.
 Normal termination of Gaussian 16 at Sat Feb 10 20:11:12 2024.
