 Gaussian 16, Revision A.03,
 Gaussian 16:  ES64L-G16RevA.03 25-Dec-2016

 ----------------------------------------------------------------------
 #P UB3LYP/6-311++G(d,p) nosym opt freq SCRF=(PCM,Solvent=n,n-DiMethylF
 ormamide)
 ----------------------------------------------------------------------

 -------
 Reduced
 -------
 Symbolic Z-matrix:
 Charge = -4 Multiplicity = 1

 SCF Done:  E(UB3LYP) =  -1936.06617450     A.U. after   18 cycles
 SCF Done:  E(UB3LYP) =  -1936.07600986     A.U. after   15 cycles
 SCF Done:  E(UB3LYP) =  -1936.07643664     A.U. after   14 cycles
 SCF Done:  E(UB3LYP) =  -1936.07454344     A.U. after   17 cycles
 SCF Done:  E(UB3LYP) =  -1936.07622669     A.U. after   14 cycles
 SCF Done:  E(UB3LYP) =  -1936.07739290     A.U. after   12 cycles
 SCF Done:  E(UB3LYP) =  -1936.07749362     A.U. after   13 cycles
 SCF Done:  E(UB3LYP) =  -1936.07760967     A.U. after   14 cycles
 SCF Done:  E(UB3LYP) =  -1936.07763191     A.U. after   12 cycles
 SCF Done:  E(UB3LYP) =  -1936.07762763     A.U. after   11 cycles
 SCF Done:  E(UB3LYP) =  -1936.07765235     A.U. after   12 cycles
 SCF Done:  E(UB3LYP) =  -1936.07766059     A.U. after   12 cycles
 SCF Done:  E(UB3LYP) =  -1936.07766299     A.U. after   12 cycles
 SCF Done:  E(UB3LYP) =  -1936.07766444     A.U. after   10 cycles
 SCF Done:  E(UB3LYP) =  -1936.07766627     A.U. after   11 cycles
 SCF Done:  E(UB3LYP) =  -1936.07766662     A.U. after   11 cycles
 SCF Done:  E(UB3LYP) =  -1936.07766665     A.U. after   10 cycles
 SCF Done:  E(UB3LYP) =  -1936.07766675     A.U. after   11 cycles
 SCF Done:  E(UB3LYP) =  -1936.07766671     A.U. after   11 cycles
 Optimization completed.
    -- Stationary point found.
 Normal termination of Gaussian 16 at Sun Feb 11 06:34:40 2024.

 ----------------------------------------------------------------------
 #P Geom=AllCheck Guess=TCheck SCRF=Check GenChk UB3LYP/6-311++G(d,p) F
 req
 ----------------------------------------------------------------------

 Structure from the checkpoint file:  "224-an.chk"
 -------
 Reduced
 -------
 Charge = -4 Multiplicity = 1

                          Input orientation:
 ---------------------------------------------------------------------
 Center     Atomic      Atomic             Coordinates (Angstroms)
 Number     Number       Type             X           Y           Z
 ---------------------------------------------------------------------
      1          6           0        5.577024   -4.793605    0.802309
      2          6           0        6.603108   -4.677171   -0.099523
      3          6           0        6.559527   -3.641630   -1.063332
      4          6           0        4.450449   -3.932791    0.786343
      5          6           0        4.352535   -2.900187   -0.242789
      6          6           0        5.488559   -2.776096   -1.139530
      7          6           0        3.445962   -4.182115    1.807527
      8          6           0        2.316608   -3.293321    1.822893
      9          6           0        2.186080   -2.309391    0.750036
     10          6           0        3.150813   -2.117530   -0.320045
     11          6           0        1.252341   -3.308232    2.812279
     12          6           0        0.166458   -2.463929    2.710443
     13          6           0        0.044628   -1.543388    1.642345
     14          6           0        1.040263   -1.476226    0.702661
     15          8           0        3.590807   -5.163311    2.631860
     16          8           0        2.904028   -1.286013   -1.274299
     17         16           0        1.167399   -4.349938    4.341005
     18          8           0       -0.042739   -3.843280    5.080361
     19          8           0        2.394602   -4.099184    5.154912
     20          8           0        0.952151   -5.777392    3.950941
     21         16           0        5.755687   -1.461520   -2.414370
     22          8           0        7.170528   -1.671952   -2.885275
     23          8           0        4.813663   -1.671517   -3.556413
     24          8           0        5.639441   -0.132695   -1.741174
     25          1           0        5.590959   -5.556280    1.571667
     26          1           0        7.456066   -5.347708   -0.069267
     27          1           0        7.388900   -3.505317   -1.742179
     28          1           0       -0.594926   -2.502033    3.475910
     29          1           0       -0.822784   -0.893075    1.589547
     30          1           0        0.990160   -0.774245   -0.121225
 ---------------------------------------------------------------------

 SCF Done:  E(UB3LYP) =  -1936.07766671     A.U. after    2 cycles

 Alpha  occ. eigenvalues --  -89.01886 -89.01886 -19.06272 -19.06259 -19.06250
 Alpha  occ. eigenvalues --  -19.06237 -19.05929 -19.05921 -19.00468 -19.00453
 Alpha  occ. eigenvalues --  -10.17528 -10.17503 -10.16999 -10.16977 -10.14739
 Alpha  occ. eigenvalues --  -10.14723 -10.14580 -10.14539 -10.14412 -10.14404
 Alpha  occ. eigenvalues --  -10.14275 -10.14261 -10.13555 -10.13551  -8.07741
 Alpha  occ. eigenvalues --   -8.07740  -6.04025  -6.04024  -6.04010  -6.04009
 Alpha  occ. eigenvalues --   -6.03897  -6.03896  -1.07612  -1.07606  -0.94247
 Alpha  occ. eigenvalues --   -0.94238  -0.93535  -0.93521  -0.92764  -0.92354
 Alpha  occ. eigenvalues --   -0.82665  -0.82231  -0.75178  -0.73054  -0.73045
 Alpha  occ. eigenvalues --   -0.70517  -0.63931  -0.62307  -0.60067  -0.58773
 Alpha  occ. eigenvalues --   -0.57490  -0.52853  -0.50603  -0.50546  -0.49041
 Alpha  occ. eigenvalues --   -0.45316  -0.44332  -0.44089  -0.43245  -0.42785
 Alpha  occ. eigenvalues --   -0.42567  -0.42543  -0.42413  -0.41390  -0.41274
 Alpha  occ. eigenvalues --   -0.37794  -0.37555  -0.36529  -0.35932  -0.34502
 Alpha  occ. eigenvalues --   -0.34196  -0.33858  -0.32102  -0.31906  -0.31246
 Alpha  occ. eigenvalues --   -0.31013  -0.30760  -0.30194  -0.30048  -0.29918
 Alpha  occ. eigenvalues --   -0.27743  -0.27072  -0.26975  -0.26517  -0.25763
 Alpha  occ. eigenvalues --   -0.25743  -0.22951  -0.22786  -0.22626  -0.22088
 Alpha  occ. eigenvalues --   -0.21441  -0.21226  -0.18493  -0.18207  -0.10014
 Alpha virt. eigenvalues --   -0.03106   0.00419   0.00732   0.01040   0.01300
 Alpha virt. eigenvalues --    0.02286   0.03029   0.03291   0.04691   0.04817
 Alpha virt. eigenvalues --    0.05103   0.05505   0.05677   0.06402   0.06893

  Beta  occ. eigenvalues --  -89.01886 -89.01886 -19.06272 -19.06259 -19.06250
  Beta  occ. eigenvalues --  -19.06237 -19.05929 -19.05921 -19.00468 -19.00453
  Beta  occ. eigenvalues --  -10.17528 -10.17503 -10.16999 -10.16977 -10.14739
  Beta  occ. eigenvalues --  -10.14723 -10.14580 -10.14539 -10.14412 -10.14404
  Beta  occ. eigenvalues --  -10.14275 -10.14261 -10.13555 -10.13551  -8.07741
  Beta  occ. eigenvalues --   -8.07740  -6.04025  -6.04024  -6.04010  -6.04009
  Beta  occ. eigenvalues --   -6.03897  -6.03896  -1.07612  -1.07606  -0.94247
  Beta  occ. eigenvalues --   -0.94238  -0.93535  -0.93521  -0.92764  -0.92354
  Beta  occ. eigenvalues --   -0.82665  -0.82231  -0.75178  -0.73054  -0.73045
  Beta  occ. eigenvalues --   -0.70517  -0.63931  -0.62307  -0.60067  -0.58773
  Beta  occ. eigenvalues --   -0.57490  -0.52853  -0.50603  -0.50546  -0.49041
  Beta  occ. eigenvalues --   -0.45316  -0.44332  -0.44089  -0.43245  -0.42785
  Beta  occ. eigenvalues --   -0.42567  -0.42543  -0.42413  -0.41390  -0.41274
  Beta  occ. eigenvalues --   -0.37794  -0.37555  -0.36529  -0.35932  -0.34502
  Beta  occ. eigenvalues --   -0.34196  -0.33858  -0.32102  -0.31906  -0.31246
  Beta  occ. eigenvalues --   -0.31013  -0.30760  -0.30194  -0.30048  -0.29918
  Beta  occ. eigenvalues --   -0.27743  -0.27072  -0.26975  -0.26517  -0.25763
  Beta  occ. eigenvalues --   -0.25743  -0.22951  -0.22786  -0.22626  -0.22088
  Beta  occ. eigenvalues --   -0.21441  -0.21226  -0.18493  -0.18207  -0.10014
  Beta virt. eigenvalues --   -0.03106   0.00419   0.00732   0.01040   0.01300
  Beta virt. eigenvalues --    0.02286   0.03029   0.03291   0.04691   0.04817
  Beta virt. eigenvalues --    0.05103   0.05505   0.05677   0.06402   0.06893

 Mulliken charges and spin densities:
               1          2
     1  C   -0.314401  -0.000000
     2  C   -0.481499   0.000000
     3  C    0.670017  -0.000000
     4  C    0.888599   0.000000
     5  C    0.205233  -0.000000
     6  C   -1.046375  -0.000000
     7  C   -1.032215   0.000000
     8  C    0.149135  -0.000000
     9  C    0.859849   0.000000
    10  C   -1.155232   0.000000
    11  C   -1.039200   0.000000
    12  C    0.539720   0.000000
    13  C   -0.477088   0.000000
    14  C   -0.324521  -0.000000
    15  O   -0.569343  -0.000000
    16  O   -0.568506  -0.000000
    17  S    0.690414  -0.000000
    18  O   -0.471566  -0.000000
    19  O   -0.455389   0.000000
    20  O   -0.441189  -0.000000
    21  S    0.678285  -0.000000
    22  O   -0.477525  -0.000000
    23  O   -0.437574   0.000000
    24  O   -0.459848   0.000000
    25  H    0.144015  -0.000000
    26  H    0.167383   0.000000
    27  H    0.223958   0.000000
    28  H    0.222742   0.000000
    29  H    0.168216   0.000000
    30  H    0.143907  -0.000000
 Sum of Mulliken charges =  -4.00000  -0.00000

 Dipole moment (field-independent basis, Debye):
    X=            -65.3689    Y=             57.5283    Z=            -17.0388  Tot=             88.7295
 Quadrupole moment (field-independent basis, Debye-Ang):
   XX=           -478.3842   YY=           -411.7933   ZZ=           -386.9770
   XY=            150.1962   XZ=             45.0114   YZ=            144.9275

  Exact polarizability: 544.223 -89.267 386.951-147.732-101.266 465.105
 Approx polarizability: 610.568-117.794 445.518-142.949-108.136 504.137

                      1                      2                      3
                      A                      A                      A
 Frequencies --     22.8208                44.6106                58.2707
 Red. masses --     11.5136                 9.3302                10.4598
 Frc consts  --      0.0035                 0.0109                 0.0209
 IR Inten    --      4.0199                17.0552                 2.5405

                      4                      5                      6
                      A                      A                      A
 Frequencies --     93.0686               107.5815               121.0289
 Red. masses --     11.3662                 9.2437                10.5254
 Frc consts  --      0.0580                 0.0630                 0.0908
 IR Inten    --      1.9537                 2.1645                 6.5829

                      7                      8                      9
                      A                      A                      A
 Frequencies --    137.2743               148.0638               177.8014
 Red. masses --     14.9032                 6.4595                 8.2742
 Frc consts  --      0.1655                 0.0834                 0.1541
 IR Inten    --      0.4181                 0.5540                 1.3765

                     10                     11                     12
                      A                      A                      A
 Frequencies --    201.2132               217.1272               237.0433
 Red. masses --      8.2004                 8.5086                 7.6868
 Frc consts  --      0.1956                 0.2363                 0.2545
 IR Inten    --      2.1534                 5.3438                 0.8058

                     13                     14                     15
                      A                      A                      A
 Frequencies --    243.7369               275.2734               300.6351
 Red. masses --     13.9345                12.0511                 8.9952
 Frc consts  --      0.4877                 0.5380                 0.4790
 IR Inten    --      0.4663                 0.4968                 1.5312

                     16                     17                     18
                      A                      A                      A
 Frequencies --    303.0085               335.7641               346.9064
 Red. masses --      9.8697                 7.9375                 6.1621
 Frc consts  --      0.5339                 0.5272                 0.4369
 IR Inten    --      1.9221                 1.2346                 0.1651

                     19                     20                     21
                      A                      A                      A
 Frequencies --    365.6958               375.2506               392.7050
 Red. masses --      6.4791                10.1767                 8.4595
 Frc consts  --      0.5105                 0.8443                 0.7686
 IR Inten    --     14.9588                15.4295                17.2629

                     22                     23                     24
                      A                      A                      A
 Frequencies --    405.6912               465.4039               484.7894
 Red. masses --      9.2935                 9.2741                 9.2602
 Frc consts  --      0.9012                 1.1835                 1.2823
 IR Inten    --      0.1198                 1.2228                37.7267

                     25                     26                     27
                      A                      A                      A
 Frequencies --    496.5248               501.4575               503.0915
 Red. masses --      4.9190                12.0831                 9.9312
 Frc consts  --      0.7145                 1.7902                 1.4810
 IR Inten    --      6.6795                45.6804                 0.8841

                     28                     29                     30
                      A                      A                      A
 Frequencies --    507.4345               526.9765               558.8129
 Red. masses --     13.9946                11.4938                 8.8897
 Frc consts  --      2.1231                 1.8806                 1.6356
 IR Inten    --     68.6091                 1.2679                76.5268

                     31                     32                     33
                      A                      A                      A
 Frequencies --    577.0460               580.2968               596.2846
 Red. masses --      5.2231                11.8547                17.1590
 Frc consts  --      1.0247                 2.3520                 3.5946
 IR Inten    --    175.1803               784.0153                18.8861

                     34                     35                     36
                      A                      A                      A
 Frequencies --    610.7900               643.4952               686.2940
 Red. masses --      6.4587                 5.7831                 5.3278
 Frc consts  --      1.4196                 1.4109                 1.4785
 IR Inten    --     66.6619                 7.2248                21.4552

                     37                     38                     39
                      A                      A                      A
 Frequencies --    697.3164               698.7282               743.2507
 Red. masses --      9.3441                 2.9241                 9.2009
 Frc consts  --      2.6770                 0.8411                 2.9947
 IR Inten    --     88.2873                84.4541                 1.3909

                     40                     41                     42
                      A                      A                      A
 Frequencies --    761.0953               771.0667               793.3871
 Red. masses --      1.5149                 7.9437                 1.7232
 Frc consts  --      0.5170                 2.7826                 0.6391
 IR Inten    --      9.4895                 6.4693                82.6352

                     43                     44                     45
                      A                      A                      A
 Frequencies --    813.6786               819.8670               923.2176
 Red. masses --      4.1831                 6.2353                 1.3521
 Frc consts  --      1.6317                 2.4694                 0.6790
 IR Inten    --      0.3332                 1.1630                 3.8524

                     46                     47                     48
                      A                      A                      A
 Frequencies --    925.1032               927.5585               932.1150
 Red. masses --      1.8757                 2.9322                10.3729
 Frc consts  --      0.9458                 1.4863                 5.3099
 IR Inten    --      2.2775                 7.8094               168.0444

                     49                     50                     51
                      A                      A                      A
 Frequencies --    960.3784               961.4350               989.5477
 Red. masses --     12.2817                12.6294                 1.3164
 Frc consts  --      6.6741                 6.8782                 0.7595
 IR Inten    --    287.7034               946.0768                 2.1428

                     52                     53                     54
                      A                      A                      A
 Frequencies --    997.1984              1051.1651              1052.4465
 Red. masses --      1.3048                 7.0075                 7.0648
 Frc consts  --      0.7645                 4.5620                 4.6105
 IR Inten    --      2.5260               339.2853               648.0037

                     55                     56                     57
                      A                      A                      A
 Frequencies --   1077.4576              1079.6266              1090.8206
 Red. masses --      2.5984                 2.7879                 3.9305
 Frc consts  --      1.7773                 1.9146                 2.7555
 IR Inten    --    142.4203               174.2181               816.8868

                     58                     59                     60
                      A                      A                      A
 Frequencies --   1103.3614              1104.2383              1110.9252
 Red. masses --     19.1233                19.5286                 3.1365
 Frc consts  --     13.7167                14.0296                 2.2807
 IR Inten    --    435.1789               753.0493                 5.6664

                     61                     62                     63
                      A                      A                      A
 Frequencies --   1116.8638              1152.1106              1183.7654
 Red. masses --      2.2047                 1.6021                 2.1674
 Frc consts  --      1.6203                 1.2530                 1.7895
 IR Inten    --    909.4278                 1.3017                 0.5975

                     64                     65                     66
                      A                      A                      A
 Frequencies --   1198.8495              1231.7934              1295.7779
 Red. masses --      2.1028                 3.0412                 6.1506
 Frc consts  --      1.7807                 2.7187                 6.0846
 IR Inten    --    311.3899               411.1034              2270.1125

                     67                     68                     69
                      A                      A                      A
 Frequencies --   1300.6228              1325.8013              1342.9998
 Red. masses --      5.0051                 3.1784                 2.1853
 Frc consts  --      4.9884                 3.2917                 2.3223
 IR Inten    --     14.4295              1156.2187                 1.8868

                     70                     71                     72
                      A                      A                      A
 Frequencies --   1393.7360              1418.2074              1460.9615
 Red. masses --      3.1798                 5.2411                 3.2957
 Frc consts  --      3.6393                 6.2109                 4.1445
 IR Inten    --    686.5045                 2.3489               531.0726

                     73                     74                     75
                      A                      A                      A
 Frequencies --   1462.2626              1477.8801              1528.6897
 Red. masses --      3.3496                 7.0157                 5.4161
 Frc consts  --      4.2198                 9.0282                 7.4571
 IR Inten    --     25.4663                 4.7765               105.9214

                     76                     77                     78
                      A                      A                      A
 Frequencies --   1572.7371              1592.2676              1597.7792
 Red. masses --      7.3784                 5.1037                 5.2105
 Frc consts  --     10.7529                 7.6237                 7.8373
 IR Inten    --      2.2399               142.4096                 0.2920

                     79                     80                     81
                      A                      A                      A
 Frequencies --   3150.4718              3150.7058              3177.8045
 Red. masses --      1.0870                 1.0872                 1.0923
 Frc consts  --      6.3569                 6.3587                 6.4993
 IR Inten    --     69.9271                 3.4652                86.1567

                     82                     83                     84
                      A                      A                      A
 Frequencies --   3178.3647              3208.9764              3209.5680
 Red. masses --      1.0922                 1.0900                 1.0899
 Frc consts  --      6.5004                 6.6130                 6.6147
 IR Inten    --     17.6122                 2.6228                 1.6438

 - Thermochemistry -
 -------------------
 Temperature   298.150 Kelvin.  Pressure   1.00000 Atm.
 Atom     1 has atomic number  6 and mass  12.00000

 Molecular mass:   365.95041 amu.
 Principal axes and moments of inertia in atomic units:
                           1         2         3
     Eigenvalues --  3609.50826********************
           X           -0.58877  -0.66115   0.46501
           Y           -0.27183   0.70373   0.65640
           Z            0.76122  -0.26006   0.59406
 This molecule is an asymmetric top.
 Rotational symmetry number  1.
 Warning -- assumption of classical behavior for rotation
           may cause significant error
 Rotational temperatures (Kelvin)      0.02400     0.00571     0.00482
 Rotational constants (GHZ):           0.50000     0.11888     0.10036
 Zero-point vibrational energy     471108.9 (Joules/Mol)
                                  112.59772 (Kcal/Mol)
 Warning -- explicit consideration of  34 degrees of freedom as
           vibrations may cause significant error
 Vibrational temperatures:     32.83    64.18    83.84   133.90   154.79
          (Kelvin)            174.13   197.51   213.03   255.82   289.50
                              312.40   341.05   350.68   396.06   432.55
                              435.96   483.09   499.12   526.15   539.90
                              565.01   583.70   669.61   697.50   714.39
                              721.49   723.84   730.09   758.20   804.01
                              830.24   834.92   857.92   878.79   925.85
                              987.42  1003.28  1005.31  1069.37  1095.05
                             1109.39  1141.51  1170.70  1179.61  1328.30
                             1331.02  1334.55  1341.11  1381.77  1383.29
                             1423.74  1434.75  1512.39  1514.24  1550.22
                             1553.34  1569.45  1587.49  1588.75  1598.37
                             1606.92  1657.63  1703.17  1724.88  1772.28
                             1864.34  1871.31  1907.53  1932.28  2005.28
                             2040.48  2102.00  2103.87  2126.34  2199.44
                             2262.82  2290.92  2298.85  4532.83  4533.16
                             4572.15  4572.96  4617.00  4617.85

 Zero-point correction=                           0.179436 (Hartree/Particle)
 Thermal correction to Energy=                    0.198481
 Thermal correction to Enthalpy=                  0.199425
 Thermal correction to Gibbs Free Energy=         0.131573
 Sum of electronic and zero-point Energies=          -1935.898231
 Sum of electronic and thermal Energies=             -1935.879186
 Sum of electronic and thermal Enthalpies=           -1935.878241
 Sum of electronic and thermal Free Energies=        -1935.946094

                     E (Thermal)             CV                S
                      KCal/Mol        Cal/Mol-Kelvin    Cal/Mol-Kelvin
 Total                  124.549             74.721            142.808
 Electronic               0.000              0.000              0.000
 Translational            0.889              2.981             43.585
 Rotational               0.889              2.981             35.243
 Vibrational            122.771             68.759             63.980
 Vibration     1          0.593              1.985              6.372
 Vibration     2          0.595              1.980              5.043
 Vibration     3          0.596              1.974              4.515
 Vibration     4          0.602              1.954              3.595
 Vibration     5          0.606              1.943              3.312
 Vibration     6          0.609              1.932              3.084
 Vibration     7          0.614              1.916              2.842
 Vibration     8          0.617              1.905              2.697
 Vibration     9          0.628              1.870              2.351
 Vibration    10          0.638              1.838              2.122
 Vibration    11          0.646              1.815              1.983
 Vibration    12          0.656              1.784              1.825
 Vibration    13          0.659              1.773              1.775
 Vibration    14          0.677              1.719              1.563
 Vibration    15          0.693              1.672              1.413
 Vibration    16          0.694              1.668              1.400
 Vibration    17          0.717              1.604              1.232
 Vibration    18          0.725              1.582              1.180
 Vibration    19          0.739              1.543              1.098
 Vibration    20          0.746              1.523              1.058
 Vibration    21          0.760              1.486              0.990
 Vibration    22          0.771              1.458              0.942
 Vibration    23          0.823              1.327              0.751
 Vibration    24          0.841              1.284              0.697
 Vibration    25          0.852              1.258              0.667
 Vibration    26          0.857              1.247              0.654
 Vibration    27          0.858              1.243              0.650
 Vibration    28          0.863              1.234              0.640
 Vibration    29          0.882              1.190              0.594
 Vibration    30          0.914              1.120              0.526
 Vibration    31          0.934              1.081              0.491
 Vibration    32          0.937              1.074              0.485
 Vibration    33          0.954              1.040              0.456
 Vibration    34          0.970              1.009              0.431

                           ! Non-Optimized Parameters !
 Normal termination of Gaussian 16 at Sun Feb 11 08:37:29 2024.
