 Q-Chem 5.4, Q-Chem, Inc., Pleasanton, CA (2021)
 Q-Chem 5.4.0 for Intel X86 EM64T Linux

User input:
--------------------------------------------------------------
$molecule
-1 2
C                  5.1121880000     -2.7872560000      0.1556630000
C                  5.9134520000     -2.1633190000     -0.7733400000
C                  5.3085930000     -1.2790240000     -1.6958210000
C                  3.7188190000     -2.5578580000      0.2005830000
C                  3.1291960000     -1.6646110000     -0.7406930000
C                  3.9509410000     -1.0285090000     -1.6889540000
C                  2.9190280000     -3.2477360000      1.2147360000
C                  1.4788490000     -2.9632590000      1.1990350000
C                  0.8892230000     -2.0700260000      0.2577490000
C                  1.6890190000     -1.3801310000     -0.7563920000
C                  0.6571080000     -3.5993520000      2.1473040000
C                 -0.5041510000     -1.8406570000      0.3026420000
C                 -1.3054160000     -2.4645940000      1.2316460000
O                  3.4307140000     -4.0323420000      2.0415520000
O                  1.1773290000     -0.5955310000     -1.5832080000
H                  5.5286170000     -3.4767170000      0.8800540000
H                  6.9791960000     -2.3461290000     -0.8175000000
S                  6.3339580000     -0.4444750000     -2.8739710000
H                 -2.3711660000     -2.2818100000      1.2757730000
H                  3.4914900000     -0.3553170000     -2.4016620000
H                  1.1165620000     -4.2725130000      2.8600390000
H                 -0.9205840000     -1.1512090000     -0.4217580000
C                 -0.7005470000     -3.3488520000      2.1541530000
S                 -1.7259140000     -4.1833780000      3.3323170000
O                 -0.9556750000     -4.6523880000      4.4810160000
O                 -2.9594160000     -3.4325310000      3.5670210000
O                 -2.1257430000     -5.5148840000      2.4216780000
C                 -2.9622460000     -6.4815890000      3.0823100000
H                 -2.4612130000     -6.8837900000      3.9660570000
H                 -3.1170590000     -7.2729930000      2.3503990000
H                 -3.9214830000     -6.0368960000      3.3592930000
O                  5.5637280000      0.0247240000     -4.0226010000
O                  7.5674230000     -1.1953440000     -3.1087880000
O                  6.7339110000      0.8869380000     -1.9632650000
C                  7.5698940000      1.8539650000     -2.6240900000
H                  7.0684730000      2.2560350000     -3.5076740000
H                  8.5292090000      1.4096200000     -2.9013680000
H                  7.7246450000      2.6453880000     -1.8921870000
$end

$rem
BASIS  =  6-311++G(d,p)
GUI  =  2
JOB_TYPE  =  SP
METHOD  =  B3LYP
SCF_CONVERGENCE  = 8
SOLVENT_METHOD = sm12
$end

$smx
solvent dimethylformamide
charges CM5
$end

--------------------------------------------------------------

             Standard Nuclear Orientation (Angstroms)
    I     Atom           X                Y                Z
 ----------------------------------------------------------------
    1      C       5.1121880000    -2.7872560000     0.1556630000
    2      C       5.9134520000    -2.1633190000    -0.7733400000
    3      C       5.3085930000    -1.2790240000    -1.6958210000
    4      C       3.7188190000    -2.5578580000     0.2005830000
    5      C       3.1291960000    -1.6646110000    -0.7406930000
    6      C       3.9509410000    -1.0285090000    -1.6889540000
    7      C       2.9190280000    -3.2477360000     1.2147360000
    8      C       1.4788490000    -2.9632590000     1.1990350000
    9      C       0.8892230000    -2.0700260000     0.2577490000
   10      C       1.6890190000    -1.3801310000    -0.7563920000
   11      C       0.6571080000    -3.5993520000     2.1473040000
   12      C      -0.5041510000    -1.8406570000     0.3026420000
   13      C      -1.3054160000    -2.4645940000     1.2316460000
   14      O       3.4307140000    -4.0323420000     2.0415520000
   15      O       1.1773290000    -0.5955310000    -1.5832080000
   16      H       5.5286170000    -3.4767170000     0.8800540000
   17      H       6.9791960000    -2.3461290000    -0.8175000000
   18      S       6.3339580000    -0.4444750000    -2.8739710000
   19      H      -2.3711660000    -2.2818100000     1.2757730000
   20      H       3.4914900000    -0.3553170000    -2.4016620000
   21      H       1.1165620000    -4.2725130000     2.8600390000
   22      H      -0.9205840000    -1.1512090000    -0.4217580000
   23      C      -0.7005470000    -3.3488520000     2.1541530000
   24      S      -1.7259140000    -4.1833780000     3.3323170000
   25      O      -0.9556750000    -4.6523880000     4.4810160000
   26      O      -2.9594160000    -3.4325310000     3.5670210000
   27      O      -2.1257430000    -5.5148840000     2.4216780000
   28      C      -2.9622460000    -6.4815890000     3.0823100000
   29      H      -2.4612130000    -6.8837900000     3.9660570000
   30      H      -3.1170590000    -7.2729930000     2.3503990000
   31      H      -3.9214830000    -6.0368960000     3.3592930000
   32      O       5.5637280000     0.0247240000    -4.0226010000
   33      O       7.5674230000    -1.1953440000    -3.1087880000
   34      O       6.7339110000     0.8869380000    -1.9632650000
   35      C       7.5698940000     1.8539650000    -2.6240900000
   36      H       7.0684730000     2.2560350000    -3.5076740000
   37      H       8.5292090000     1.4096200000    -2.9013680000
   38      H       7.7246450000     2.6453880000    -1.8921870000
 ----------------------------------------------------------------

   17   -2015.4440965539      7.80e-09  Convergence criterion met
 Total energy in the final basis set =    -2015.5307906529

                    Orbital Energies (a.u.)
 --------------------------------------------------------------

 Alpha MOs
 -- Occupied --
-89.0858 -89.0858 -19.1714 -19.1714 -19.1339 -19.1339 -19.1335 -19.1334
-19.0907 -19.0906 -10.2413 -10.2412 -10.2270 -10.2270 -10.2257 -10.2257
-10.2043 -10.2043 -10.2016 -10.2016 -10.1965 -10.1965 -10.1960 -10.1960
-10.1922 -10.1922  -8.1468  -8.1468  -6.1106  -6.1106  -6.1088  -6.1088
 -6.1073  -6.1073  -1.1520  -1.1519  -1.0426  -1.0426  -1.0256  -1.0256
 -1.0206  -1.0183  -0.8910  -0.8853  -0.8232  -0.7943  -0.7818  -0.7757
 -0.7424  -0.7325  -0.6928  -0.6821  -0.6542  -0.6427  -0.6119  -0.6064
 -0.5813  -0.5693  -0.5558  -0.5468  -0.5242  -0.5180  -0.5021  -0.4998
 -0.4885  -0.4865  -0.4803  -0.4657  -0.4561  -0.4544  -0.4535  -0.4513
 -0.4495  -0.4430  -0.4385  -0.4294  -0.4277  -0.4156  -0.4052  -0.4032
 -0.3959  -0.3944  -0.3871  -0.3806  -0.3665  -0.3603  -0.3515  -0.3514
 -0.3487  -0.3473  -0.3336  -0.3333  -0.3314  -0.3310  -0.2996  -0.2996
 -0.2896  -0.2834  -0.2807  -0.2758  -0.2599  -0.2515  -0.1603

 Beta MOs
 -- Occupied --
-89.0858 -89.0858 -19.1713 -19.1713 -19.1338 -19.1338 -19.1334 -19.1334
-19.0846 -19.0846 -10.2402 -10.2402 -10.2270 -10.2270 -10.2252 -10.2252
-10.2046 -10.2046 -10.2008 -10.2008 -10.1957 -10.1957 -10.1948 -10.1948
-10.1924 -10.1924  -8.1468  -8.1468  -6.1106  -6.1106  -6.1088  -6.1088
 -6.1074  -6.1074  -1.1519  -1.1518  -1.0425  -1.0425  -1.0255  -1.0255
 -1.0105  -1.0079  -0.8887  -0.8841  -0.8194  -0.7927  -0.7804  -0.7735
 -0.7417  -0.7312  -0.6869  -0.6810  -0.6522  -0.6413  -0.6113  -0.6055
 -0.5794  -0.5686  -0.5541  -0.5458  -0.5238  -0.5176  -0.5007  -0.4990
 -0.4863  -0.4861  -0.4797  -0.4652  -0.4557  -0.4542  -0.4533  -0.4510
 -0.4492  -0.4400  -0.4294  -0.4266  -0.4241  -0.4113  -0.4048  -0.4029
 -0.3920  -0.3852  -0.3800  -0.3728  -0.3584  -0.3565  -0.3513  -0.3512
 -0.3486  -0.3470  -0.3335  -0.3332  -0.3309  -0.3289  -0.2995  -0.2995
 -0.2808  -0.2729  -0.2679  -0.2654  -0.2543  -0.2459

          Ground-State Mulliken Net Atomic Charges

     Atom                 Charge (a.u.)    Spin (a.u.)
  --------------------------------------------------------
      1 C                     0.097442       0.008053
      2 C                     0.680991       0.070661
      3 C                    -0.568402       0.021016
      4 C                    -0.318044       0.074491
      5 C                    -0.481208       0.050946
      6 C                     0.220594      -0.001852
      7 C                    -1.439317       0.052387
      8 C                    -0.481334       0.050943
      9 C                    -0.318013       0.074484
     10 C                    -1.439355       0.052384
     11 C                     0.220600      -0.001847
     12 C                     0.097532       0.008052
     13 C                     0.681057       0.070657
     14 O                    -0.311113       0.225101
     15 O                    -0.311104       0.225095
     16 H                     0.205695      -0.000765
     17 H                     0.335340      -0.004571
     18 S                     0.560331       0.003053
     19 H                     0.335347      -0.004570
     20 H                     0.175432      -0.000359
     21 H                     0.175422      -0.000359
     22 H                     0.205695      -0.000765
     23 C                    -0.568458       0.021014
     24 S                     0.560376       0.003052
     25 O                    -0.193565       0.002202
     26 O                    -0.142145      -0.001392
     27 O                    -0.013422       0.000182
     28 C                     0.056726       0.000626
     29 H                     0.182670       0.000046
     30 H                     0.260867       0.000139
     31 H                     0.191165       0.000045
     32 O                    -0.193637       0.002202
     33 O                    -0.142103      -0.001392
     34 O                    -0.013452       0.000182
     35 C                     0.056698       0.000626
     36 H                     0.182652       0.000046
     37 H                     0.191182       0.000045
     38 H                     0.260859       0.000139
  --------------------------------------------------------
  Sum of atomic charges =    -1.000000

                    Cartesian Multipole Moments
 -----------------------------------------------------------------
    Charge (ESU x 10^10)
                -4.8032
    Dipole Moment (Debye)
         X     -11.0678      Y      11.1143      Z      -1.1008
       Tot      15.7237
    Quadrupole Moments (Debye-Ang)
        XX    -221.8971     XY      42.3728     YY    -188.2620
        XZ      25.9197     YZ      18.6625     ZZ    -227.0932

 Total job time:  1654.57s(wall), 12628.14s(cpu)
        *  Thank you very much for using Q-Chem.  Have a nice day.  *
