 Q-Chem 5.4, Q-Chem, Inc., Pleasanton, CA (2021)
 Q-Chem 5.4.0 for Intel X86 EM64T Linux

User input:
--------------------------------------------------------------
$molecule
-1 2
C                 -1.6585850000      0.5088360000      1.4754590000
C                 -2.8221720000      1.0662450000      0.7609450000
C                 -2.7871990000      0.9454800000     -0.6091980000
C                 -1.6594900000      0.4370040000     -1.3955270000
C                 -0.4162640000      0.0815690000     -0.6860790000
C                 -0.5004430000      0.0775920000      0.6872600000
O                 -1.7671730000      0.3172960000     -2.6393240000
O                 -1.6406070000      0.4014210000      2.7248960000
Cl                 0.7941800000     -0.5097140000      1.7591100000
Cl                -4.1533840000      1.3512750000     -1.6762800000
C                  0.7944790000     -0.2706170000     -1.6001980000
C                  1.0398970000      0.9085440000     -2.5824810000
C                  2.1548630000     -0.5007560000     -0.9047510000
C                  0.4787830000     -1.5655900000     -2.3912330000
C                 -3.9319260000      1.6746340000      1.6685600000
C                 -3.2904410000      2.7444900000      2.5956780000
C                 -5.0943190000      2.4056550000      0.9602050000
C                 -4.5718590000      0.5480800000      2.5191770000
H                  0.1606870000      1.1224290000     -3.1842790000
H                  1.8730360000      0.6568080000     -3.2489040000
H                  1.3192920000      1.8092200000     -2.0255420000
H                  2.4534710000      0.3432580000     -0.2809950000
H                  2.9076490000     -0.6191970000     -1.6926350000
H                  2.1713000000     -1.3992690000     -0.2906260000
H                  0.3447660000     -2.4053820000     -1.7016220000
H                  1.3182530000     -1.8069290000     -3.0547720000
H                 -0.4232850000     -1.4499660000     -2.9886420000
H                 -2.4916140000      2.3265460000      3.2024000000
H                 -4.0600630000      3.1570780000      3.2582860000
H                 -2.8899000000      3.5691090000      1.9964780000
H                 -4.7463990000      3.1977290000      0.2952040000
H                 -5.7115540000      2.8679070000      1.7391800000
H                 -5.7304920000      1.7350350000      0.3855190000
H                 -3.8236870000      0.0422370000      3.1261370000
H                 -5.0587280000     -0.1855260000      1.8683730000
H                 -5.3387720000      0.9731730000      3.1782900000
$end
$rem
MAX_SCF_CYCLES=200
BASIS  =  6-311++G(d,p)
GUI  =  2
JOB_TYPE  =  SP
METHOD  =  B3LYP
SOLVENT_METHOD = PCM
$end
$pcm
theory = CPCM
$end
$solvent
dielectric 37.219
opticaldielectric 1.43
$end

--------------------------------------------------------------

             Standard Nuclear Orientation (Angstroms)
    I     Atom           X                Y                Z
 ----------------------------------------------------------------
    1      C      -1.6585850000     0.5088360000     1.4754590000
    2      C      -2.8221720000     1.0662450000     0.7609450000
    3      C      -2.7871990000     0.9454800000    -0.6091980000
    4      C      -1.6594900000     0.4370040000    -1.3955270000
    5      C      -0.4162640000     0.0815690000    -0.6860790000
    6      C      -0.5004430000     0.0775920000     0.6872600000
    7      O      -1.7671730000     0.3172960000    -2.6393240000
    8      O      -1.6406070000     0.4014210000     2.7248960000
    9      Cl      0.7941800000    -0.5097140000     1.7591100000
   10      Cl     -4.1533840000     1.3512750000    -1.6762800000
   11      C       0.7944790000    -0.2706170000    -1.6001980000
   12      C       1.0398970000     0.9085440000    -2.5824810000
   13      C       2.1548630000    -0.5007560000    -0.9047510000
   14      C       0.4787830000    -1.5655900000    -2.3912330000
   15      C      -3.9319260000     1.6746340000     1.6685600000
   16      C      -3.2904410000     2.7444900000     2.5956780000
   17      C      -5.0943190000     2.4056550000     0.9602050000
   18      C      -4.5718590000     0.5480800000     2.5191770000
   19      H       0.1606870000     1.1224290000    -3.1842790000
   20      H       1.8730360000     0.6568080000    -3.2489040000
   21      H       1.3192920000     1.8092200000    -2.0255420000
   22      H       2.4534710000     0.3432580000    -0.2809950000
   23      H       2.9076490000    -0.6191970000    -1.6926350000
   24      H       2.1713000000    -1.3992690000    -0.2906260000
   25      H       0.3447660000    -2.4053820000    -1.7016220000
   26      H       1.3182530000    -1.8069290000    -3.0547720000
   27      H      -0.4232850000    -1.4499660000    -2.9886420000
   28      H      -2.4916140000     2.3265460000     3.2024000000
   29      H      -4.0600630000     3.1570780000     3.2582860000
   30      H      -2.8899000000     3.5691090000     1.9964780000
   31      H      -4.7463990000     3.1977290000     0.2952040000
   32      H      -5.7115540000     2.8679070000     1.7391800000
   33      H      -5.7304920000     1.7350350000     0.3855190000
   34      H      -3.8236870000     0.0422370000     3.1261370000
   35      H      -5.0587280000    -0.1855260000     1.8683730000
   36      H      -5.3387720000     0.9731730000     3.1782900000
 ----------------------------------------------------------------

    8   -1615.5269101272      7.86e-06  Convergence criterion met
 Total energy in the final basis set =    -1615.5269101272

                    Orbital Energies (a.u.)
 --------------------------------------------------------------

 Alpha MOs
 -- Occupied --
********-101.5397 -19.0797 -19.0797 -10.2348 -10.2348 -10.2252 -10.2252
-10.1891 -10.1891 -10.1888 -10.1888 -10.1453 -10.1452 -10.1445 -10.1445
-10.1430 -10.1430  -9.4549  -9.4549  -7.2193  -7.2192  -7.2103  -7.2103
 -7.2090  -7.2090  -1.0154  -1.0124  -0.8702  -0.8596  -0.8149  -0.8087
 -0.7834  -0.7224  -0.6755  -0.6754  -0.6721  -0.6712  -0.6696  -0.6158
 -0.5603  -0.5474  -0.5299  -0.5029  -0.4643  -0.4620  -0.4400  -0.4349
 -0.4299  -0.4286  -0.4258  -0.4227  -0.4188  -0.4053  -0.4039  -0.3868
 -0.3758  -0.3742  -0.3670  -0.3645  -0.3583  -0.3556  -0.3478  -0.3419
 -0.3350  -0.3310  -0.3254  -0.3247  -0.3241  -0.3184  -0.2928  -0.2895
 -0.2722  -0.2471  -0.2407  -0.2386  -0.1636

 Beta MOs
 -- Occupied --
********-101.5397 -19.0735 -19.0735 -10.2331 -10.2331 -10.2240 -10.2239
-10.1890 -10.1890 -10.1880 -10.1880 -10.1453 -10.1452 -10.1445 -10.1444
-10.1429 -10.1429  -9.4549  -9.4549  -7.2193  -7.2193  -7.2102  -7.2101
 -7.2090  -7.2090  -1.0047  -1.0014  -0.8667  -0.8583  -0.8137  -0.8077
 -0.7807  -0.7199  -0.6752  -0.6751  -0.6713  -0.6711  -0.6607  -0.6128
 -0.5559  -0.5465  -0.5279  -0.5008  -0.4623  -0.4609  -0.4331  -0.4328
 -0.4291  -0.4277  -0.4232  -0.4172  -0.4147  -0.4007  -0.3930  -0.3856
 -0.3722  -0.3712  -0.3629  -0.3628  -0.3571  -0.3547  -0.3464  -0.3411
 -0.3292  -0.3286  -0.3244  -0.3194  -0.3188  -0.3144  -0.2924  -0.2888
 -0.2487  -0.2417  -0.2343  -0.2332

          Ground-State Mulliken Net Atomic Charges

     Atom                 Charge (a.u.)    Spin (a.u.)
  --------------------------------------------------------
      1 C                    -0.909929       0.101313
      2 C                     0.425615       0.113359
      3 C                    -0.226453       0.050235
      4 C                    -0.911185       0.101456
      5 C                     0.429812       0.113524
      6 C                    -0.228686       0.050132
      7 O                    -0.346007       0.233422
      8 O                    -0.345788       0.233471
      9 Cl                    0.508421       0.003526
     10 Cl                    0.508001       0.003473
     11 C                     0.620280      -0.021961
     12 C                    -0.686577       0.010850
     13 C                    -0.596112      -0.003460
     14 C                    -0.680551       0.012587
     15 C                     0.617985      -0.021859
     16 C                    -0.684158       0.010850
     17 C                    -0.593884      -0.003465
     18 C                    -0.681594       0.012511
     19 H                     0.172160      -0.000980
     20 H                     0.158690       0.000251
     21 H                     0.138909       0.000158
     22 H                     0.145331       0.000648
     23 H                     0.145094      -0.000261
     24 H                     0.138077       0.000480
     25 H                     0.148002       0.000850
     26 H                     0.157617       0.000313
     27 H                     0.187177      -0.001421
     28 H                     0.171192      -0.000990
     29 H                     0.158639       0.000238
     30 H                     0.139009       0.000162
     31 H                     0.145416       0.000652
     32 H                     0.145216      -0.000261
     33 H                     0.138337       0.000472
     34 H                     0.186879      -0.001420
     35 H                     0.147505       0.000849
     36 H                     0.157559       0.000298
  --------------------------------------------------------
  Sum of atomic charges =    -1.000000

                    Cartesian Multipole Moments
 -----------------------------------------------------------------
    Charge (ESU x 10^10)
                -4.8032
    Dipole Moment (Debye)
         X       8.2532      Y      -1.5421      Z      -0.2114
       Tot       8.3987
    Quadrupole Moments (Debye-Ang)
        XX    -149.5682     XY       4.8389     YY    -130.4854
        XZ      -9.5179     YZ       2.8939     ZZ    -166.3570

 Total job time:  108.12s(wall), 637.99s(cpu)
        *  Thank you very much for using Q-Chem.  Have a nice day.  *
