 Gaussian 16, Revision A.03,
 Gaussian 16:  ES64L-G16RevA.03 25-Dec-2016

 ----------------------------------------------------------------
 #P UB3LYP/6-311++G(d,p) SCRF=(PCM,Solvent=n,n-DiMethylFormamide)
 ----------------------------------------------------------------

 -------
 Reduced
 -------
 Symbolic Z-matrix:
 Charge = -2 Multiplicity = 1

                         Standard orientation:
 ---------------------------------------------------------------------
 Center     Atomic      Atomic             Coordinates (Angstroms)
 Number     Number       Type             X           Y           Z
 ---------------------------------------------------------------------
      1          6           0        3.540013   -1.691398   -0.002132
      2          6           0        4.842702   -1.227348    0.000482
      3          6           0        5.080763    0.170995    0.003468
      4          6           0        2.432358   -0.815274   -0.001551
      5          6           0        2.670755    0.604195    0.002282
      6          6           0        4.017007    1.050549    0.004303
      7          6           0        1.081866   -1.377489   -0.004059
      8          6           0        0.008987   -0.385437   -0.002371
      9          6           0        0.277484    1.047570    0.000567
     10          6           0        1.598608    1.595601    0.004328
     11          6           0       -1.317147   -0.826587   -0.002268
     12          6           0       -0.853435    1.919753   -0.002065
     13          6           0       -2.144747    1.466042   -0.003466
     14          8           0        0.878558   -2.628213   -0.006576
     15          8           0        1.852634    2.855115    0.007451
     16          1           0        3.318442   -2.754126   -0.004605
     17          1           0       -2.974931    2.162386   -0.002847
     18          1           0        4.165384    2.125690    0.006789
     19          1           0       -1.488035   -1.897084   -0.003517
     20          1           0       -0.637530    2.983551   -0.002547
     21          6           0       -2.414277    0.047143   -0.000088
     22          1           0        6.102005    0.548553    0.005107
     23          6           0       -3.750221   -0.500770   -0.004723
     24          8           0       -4.100760   -1.679665    0.018197
     25          8           0       -4.738031    0.496286   -0.054602
     26          6           0       -6.073068    0.029583    0.029094
     27          1           0       -6.710993    0.908865   -0.092338
     28          1           0       -6.280414   -0.440081    0.999703
     29          1           0       -6.295862   -0.702736   -0.752096
     30          1           0        5.676840   -1.925951   -0.000207
 ---------------------------------------------------------------------

 SCF Done:  E(UB3LYP) =  -917.148748276     A.U. after   17 cycles

 The electronic state is 1-A.
 Alpha  occ. eigenvalues --  -19.14697 -19.09316 -19.03999 -19.02063 -10.28141
 Alpha  occ. eigenvalues --  -10.21002 -10.19537 -10.17649 -10.16194 -10.16003
 Alpha  occ. eigenvalues --  -10.15822 -10.15560 -10.15409 -10.15067 -10.15046
 Alpha  occ. eigenvalues --  -10.14780 -10.14686 -10.14670 -10.14481 -10.13534
 Alpha  occ. eigenvalues --   -1.07983  -0.99592  -0.96358  -0.93967  -0.83576
 Alpha  occ. eigenvalues --   -0.82938  -0.76612  -0.73687  -0.72959  -0.72626
 Alpha  occ. eigenvalues --   -0.69755  -0.64618  -0.62315  -0.60023  -0.57078
 Alpha  occ. eigenvalues --   -0.55329  -0.53449  -0.51936  -0.50647  -0.47088
 Alpha  occ. eigenvalues --   -0.46599  -0.46467  -0.44253  -0.43633  -0.42887
 Alpha  occ. eigenvalues --   -0.41932  -0.40643  -0.40397  -0.39430  -0.38319
 Alpha  occ. eigenvalues --   -0.38145  -0.38080  -0.37524  -0.36075  -0.34740
 Alpha  occ. eigenvalues --   -0.34123  -0.33583  -0.32908  -0.32032  -0.30600
 Alpha  occ. eigenvalues --   -0.30477  -0.29292  -0.27066  -0.24135  -0.23537
 Alpha  occ. eigenvalues --   -0.22908  -0.22349  -0.21436  -0.19964  -0.11293
 Alpha virt. eigenvalues --   -0.04802  -0.01874  -0.00170   0.00415   0.01238
 Alpha virt. eigenvalues --    0.01430   0.01759   0.02508   0.03314   0.03607
 Alpha virt. eigenvalues --    0.03846   0.04060   0.05079   0.05168   0.05372

  Beta  occ. eigenvalues --  -19.14697 -19.09316 -19.03999 -19.02063 -10.28141
  Beta  occ. eigenvalues --  -10.21002 -10.19537 -10.17649 -10.16194 -10.16003
  Beta  occ. eigenvalues --  -10.15822 -10.15560 -10.15409 -10.15067 -10.15046
  Beta  occ. eigenvalues --  -10.14780 -10.14686 -10.14670 -10.14481 -10.13534
  Beta  occ. eigenvalues --   -1.07983  -0.99592  -0.96358  -0.93967  -0.83576
  Beta  occ. eigenvalues --   -0.82938  -0.76612  -0.73687  -0.72959  -0.72626
  Beta  occ. eigenvalues --   -0.69755  -0.64618  -0.62315  -0.60023  -0.57078
  Beta  occ. eigenvalues --   -0.55329  -0.53449  -0.51936  -0.50647  -0.47088
  Beta  occ. eigenvalues --   -0.46599  -0.46467  -0.44253  -0.43633  -0.42887
  Beta  occ. eigenvalues --   -0.41932  -0.40643  -0.40397  -0.39430  -0.38319
  Beta  occ. eigenvalues --   -0.38145  -0.38080  -0.37524  -0.36075  -0.34740
  Beta  occ. eigenvalues --   -0.34123  -0.33583  -0.32908  -0.32032  -0.30600
  Beta  occ. eigenvalues --   -0.30477  -0.29292  -0.27066  -0.24135  -0.23537
  Beta  occ. eigenvalues --   -0.22908  -0.22349  -0.21436  -0.19964  -0.11293
  Beta virt. eigenvalues --   -0.04802  -0.01874  -0.00170   0.00415   0.01238
  Beta virt. eigenvalues --    0.01430   0.01759   0.02508   0.03314   0.03607
  Beta virt. eigenvalues --    0.03846   0.04060   0.05079   0.05168   0.05372

 Mulliken charges and spin densities:
               1          2
     1  C    0.000216  -0.000000
     2  C   -0.487763  -0.000000
     3  C   -0.473640  -0.000000
     4  C    0.472486  -0.000000
     5  C    0.406869   0.000000
     6  C   -0.052290  -0.000000
     7  C   -0.611022  -0.000000
     8  C    0.280109   0.000000
     9  C    0.255112   0.000000
    10  C   -0.738301  -0.000000
    11  C   -0.045586  -0.000000
    12  C   -0.203959   0.000000
    13  C   -0.631403   0.000000
    14  O   -0.563349   0.000000
    15  O   -0.647664   0.000000
    16  H    0.148669  -0.000000
    17  H    0.173143   0.000000
    18  H    0.152696   0.000000
    19  H    0.145226  -0.000000
    20  H    0.149524   0.000000
    21  C    0.094873  -0.000000
    22  H    0.166049   0.000000
    23  C    0.169272  -0.000000
    24  O   -0.405461   0.000000
    25  O   -0.172772   0.000000
    26  C   -0.237823   0.000000
    27  H    0.150702   0.000000
    28  H    0.171295  -0.000000
    29  H    0.169190   0.000000
    30  H    0.165600  -0.000000
 Sum of Mulliken charges =  -2.00000   0.00000

 Dipole moment (field-independent basis, Debye):
    X=             -5.7592    Y=             -0.1626    Z=              0.0686  Tot=              5.7619
 Quadrupole moment (field-independent basis, Debye-Ang):
   XX=           -162.6419   YY=           -179.4517   ZZ=           -126.4714
   XY=            -20.2320   XZ=             -0.4630   YZ=              0.1026

 Normal termination of Gaussian 16 at Tue Jan 16 06:38:52 2024.
