 Gaussian 16, Revision A.03,
 Gaussian 16:  ES64L-G16RevA.03 25-Dec-2016

 ----------------------------------------------------------------
 #P UB3LYP/6-311++G(d,p) SCRF=(PCM,Solvent=n,n-DiMethylFormamide)
 ----------------------------------------------------------------

 ------------------
 Radical PCM in DMF
 ------------------
 Symbolic Z-matrix:
 Charge = -1 Multiplicity = 2

                         Standard orientation:
 ---------------------------------------------------------------------
 Center     Atomic      Atomic             Coordinates (Angstroms)
 Number     Number       Type             X           Y           Z
 ---------------------------------------------------------------------
      1          6           0       -2.327809    0.969405    0.065854
      2          6           0       -0.969312    1.459711   -0.156953
      3          6           0        0.079437    0.579085   -0.316004
      4          6           0       -0.128812   -0.851415   -0.248716
      5          6           0       -1.470753   -1.346951   -0.035062
      6          6           0       -2.525947   -0.474806    0.116670
      7          8           0       -3.297221    1.768905    0.207075
      8          8           0        0.854694   -1.669520   -0.376801
      9          6           0       -3.930297   -0.974111    0.345187
     10          6           0       -1.669580   -2.842059    0.019254
     11          6           0       -0.792758    2.959682   -0.209831
     12          6           0        1.498573    1.034108   -0.577146
     13          6           0        2.484758    0.786977    0.610368
     14          6           0        3.679571   -0.097788    0.265302
     15          8           0        4.829450    0.251940    0.453725
     16          8           0        3.384211   -1.285407   -0.249653
     17          1           0       -4.275090   -1.603642   -0.484596
     18          1           0       -4.606550   -0.125326    0.444620
     19          1           0       -3.998520   -1.586725    1.252802
     20          1           0       -0.715594   -3.346482   -0.130206
     21          1           0       -2.371746   -3.182046   -0.751692
     22          1           0       -2.084930   -3.157706    0.984180
     23          1           0       -1.732653    3.436435    0.067932
     24          1           0       -0.525545    3.303984   -1.216749
     25          1           0       -0.006212    3.304865    0.469251
     26          1           0        1.511862    2.095396   -0.823605
     27          1           0        1.870400    0.508728   -1.462352
     28          1           0        1.946338    0.303874    1.431922
     29          1           0        2.883010    1.728016    0.990882
     30          1           0        2.373736   -1.417745   -0.320691
 ---------------------------------------------------------------------

 SCF Done:  E(UB3LYP) =  -767.000159761     A.U. after   18 cycles

 The electronic state is 2-A.
 Alpha  occ. eigenvalues --  -19.14303 -19.10565 -19.08695 -19.07699 -10.29871
 Alpha  occ. eigenvalues --  -10.22194 -10.21671 -10.17997 -10.17437 -10.17059
 Alpha  occ. eigenvalues --  -10.16756 -10.16692 -10.16616 -10.15354 -10.15321
 Alpha  occ. eigenvalues --  -10.15257  -1.09182  -1.01448  -1.00115  -0.99890
 Alpha  occ. eigenvalues --   -0.83542  -0.80229  -0.76593  -0.72411  -0.70960
 Alpha  occ. eigenvalues --   -0.68155  -0.63951  -0.62924  -0.59708  -0.54973
 Alpha  occ. eigenvalues --   -0.54431  -0.51666  -0.50216  -0.46784  -0.45648
 Alpha  occ. eigenvalues --   -0.44999  -0.44039  -0.43154  -0.42072  -0.41311
 Alpha  occ. eigenvalues --   -0.40431  -0.39782  -0.39083  -0.38775  -0.38608
 Alpha  occ. eigenvalues --   -0.38278  -0.37243  -0.36808  -0.36600  -0.36191
 Alpha  occ. eigenvalues --   -0.35221  -0.34133  -0.32856  -0.31519  -0.27892
 Alpha  occ. eigenvalues --   -0.27064  -0.25805  -0.23746  -0.23255  -0.16287
 Alpha virt. eigenvalues --   -0.00909  -0.00338   0.00324   0.00794   0.01232
 Alpha virt. eigenvalues --    0.01957   0.02569   0.02886   0.02940   0.03574
 Alpha virt. eigenvalues --    0.03884   0.04683   0.05070   0.05402   0.06286

  Beta  occ. eigenvalues --  -19.14303 -19.10563 -19.08146 -19.06971 -10.29870
  Beta  occ. eigenvalues --  -10.21927 -10.21537 -10.17992 -10.17442 -10.16892
  Beta  occ. eigenvalues --  -10.16716 -10.16606 -10.16519 -10.15367 -10.15326
  Beta  occ. eigenvalues --  -10.15267  -1.09176  -1.01246  -0.99247  -0.98659
  Beta  occ. eigenvalues --   -0.83041  -0.80084  -0.76427  -0.72064  -0.70745
  Beta  occ. eigenvalues --   -0.67955  -0.63315  -0.62812  -0.59603  -0.54649
  Beta  occ. eigenvalues --   -0.54007  -0.51596  -0.50083  -0.46726  -0.45528
  Beta  occ. eigenvalues --   -0.44682  -0.43563  -0.42787  -0.41627  -0.41055
  Beta  occ. eigenvalues --   -0.40055  -0.39314  -0.38905  -0.38670  -0.38479
  Beta  occ. eigenvalues --   -0.38210  -0.36771  -0.36581  -0.35666  -0.35053
  Beta  occ. eigenvalues --   -0.33957  -0.33812  -0.32699  -0.31474  -0.27677
  Beta  occ. eigenvalues --   -0.25321  -0.24413  -0.23113  -0.22566
  Beta virt. eigenvalues --   -0.09118  -0.00854   0.00322   0.00499   0.00939
  Beta virt. eigenvalues --    0.01496   0.02070   0.02664   0.02910   0.03530
  Beta virt. eigenvalues --    0.03678   0.04739   0.05070   0.05374   0.05555

 Mulliken charges and spin densities:
               1          2
     1  C   -1.540397   0.051818
     2  C    0.772789   0.131097
     3  C    0.986548   0.031779
     4  C   -1.171235   0.160820
     5  C    0.597483   0.018639
     6  C    0.878649   0.128293
     7  O   -0.459130   0.264347
     8  O   -0.538311   0.198665
     9  C   -0.483791  -0.001362
    10  C   -0.511099   0.000839
    11  C   -0.635194  -0.005102
    12  C   -0.443022  -0.001751
    13  C   -0.434539  -0.000246
    14  C   -0.024070   0.001210
    15  O   -0.395401   0.000691
    16  O   -0.376029   0.002249
    17  H    0.154166   0.004621
    18  H    0.178955  -0.001763
    19  H    0.155000   0.004556
    20  H    0.175797  -0.000657
    21  H    0.148577   0.001865
    22  H    0.149203   0.001841
    23  H    0.174156  -0.001925
    24  H    0.176411   0.006450
    25  H    0.163778   0.004848
    26  H    0.187490   0.000137
    27  H    0.192314   0.002647
    28  H    0.211311   0.001154
    29  H    0.201610  -0.000100
    30  H    0.507980  -0.005660
 Sum of Mulliken charges =  -1.00000   1.00000

 Dipole moment (field-independent basis, Debye):
    X=             -3.4291    Y=              0.2466    Z=              0.0239  Tot=              3.4380
 Quadrupole moment (field-independent basis, Debye-Ang):
   XX=           -175.9089   YY=           -111.1741   ZZ=            -98.2935
   XY=             22.6579   XZ=             -0.0989   YZ=             -3.5813

 Normal termination of Gaussian 16 at Sun Jan 21 07:24:12 2024.
