 Q-Chem 5.4, Q-Chem, Inc., Pleasanton, CA (2021)
 Q-Chem 5.4.0 for Intel X86 EM64T Linux

User input:
--------------------------------------------------------------
$molecule
-1 2
C                 -4.0127750000     -1.0154600000      0.2448240000
C                 -2.6318800000     -0.4069570000      0.2506500000
C                 -2.4618100000      0.9859470000      0.4234900000
C                 -3.6584280000      1.8873140000      0.6047720000
C                 -1.1773990000      1.5382140000      0.4275190000
O                 -1.0342710000      2.8775240000      0.5951240000
C                 -0.0284420000      0.7174700000      0.2590200000
C                  1.2894280000      1.3160820000      0.2670590000
O                  1.4524520000      2.5758220000      0.4231420000
C                  2.4314280000      0.4349040000      0.0907060000
C                  3.7387720000      0.9699190000      0.0910310000
C                  4.8407130000      0.1555970000     -0.0745060000
C                  4.6707000000     -1.2364980000     -0.2478710000
C                  3.4027380000     -1.7815220000     -0.2515590000
C                  2.2600870000     -0.9681030000     -0.0839280000
C                  0.9370610000     -1.5691450000     -0.0918320000
O                  0.7921080000     -2.8309470000     -0.2490920000
C                 -0.2004920000     -0.6914870000      0.0838870000
C                 -1.5157060000     -1.2321420000      0.0834250000
O                 -1.6992140000     -2.5669240000     -0.0810000000
H                 -3.9529930000     -2.0930780000      0.1011750000
H                 -4.6339420000     -0.5959590000     -0.5559170000
H                 -4.5412140000     -0.8229380000      1.1864650000
H                 -4.2435550000      1.6062810000      1.4889090000
H                 -3.3410130000      2.9223420000      0.7206540000
H                 -4.3386910000      1.8303430000     -0.2536970000
H                 -0.0388230000      3.0355640000      0.5625180000
H                  3.8418330000      2.0401170000      0.2257980000
H                  5.8388220000      0.5830470000     -0.0717630000
H                  5.5385050000     -1.8759670000     -0.3780110000
H                  3.2451280000     -2.8455300000     -0.3825530000
H                 -0.7691260000     -2.9438320000     -0.1799910000
$end
$rem
MAX_SCF_CYCLES=200
BASIS  =  6-311++G(d,p)
GUI  =  2
JOB_TYPE  =  SP
METHOD  =  B3LYP
SOLVENT_METHOD = COSMO
$end
$solvent
dielectric 37.219
opticaldielectric 1.43
$end

--------------------------------------------------------------

             Standard Nuclear Orientation (Angstroms)
    I     Atom           X                Y                Z
 ----------------------------------------------------------------
    1      C       4.1284508484    -1.4732235363    -0.0000447849
    2      C       2.8284799149    -0.7068969667     0.0000258568
    3      C       2.8285035550     0.7069555580     0.0002739002
    4      C       4.1285570910     1.4731675883     0.0007194899
    5      C       1.6177227134     1.4060523544    -0.0000607370
    6      O       1.6380625941     2.7632239053    -0.0001458601
    7      C       0.3748647093     0.7150973810    -0.0002052190
    8      C      -0.8635924097     1.4643678583    -0.0002767660
    9      O      -0.8727198968     2.7441335724    -0.0003082913
   10      C      -2.1068936255     0.7120772861    -0.0001028047
   11      C      -3.3426027902     1.3964838448    -0.0002155599
   12      C      -4.5379286266     0.7065614769     0.0000227624
   13      C      -4.5379531336    -0.7065514671     0.0003963094
   14      C      -3.3426395762    -1.3964919648     0.0004621578
   15      C      -2.1069168569    -0.7121008387     0.0001843788
   16      C      -0.8636130886    -1.4643690651     0.0000799937
   17      O      -0.8727118199    -2.7441360672     0.0000551568
   18      C       0.3748402336    -0.7150888289    -0.0001569787
   19      C       1.6177064684    -1.4060153274    -0.0002231164
   20      O       1.6381216553    -2.7631950709    -0.0005669212
   21      H       3.9380637588    -2.5452412663    -0.0005129318
   22      H       4.7373395544    -1.2327104749     0.8799686758
   23      H       4.7376817086    -1.2318617052    -0.8795801712
   24      H       4.7367429307     1.2341425388    -0.8802052504
   25      H       3.9383416467     2.5452103232     0.0032374568
   26      H       4.7384441073     1.2301029222     0.8793148822
   27      H       0.6668464201     3.0346933001     0.0000110414
   28      H      -3.3150833330     2.4796966871    -0.0005173131
   29      H      -5.4790393338     1.2480900815    -0.0000751056
   30      H      -5.4790796845    -1.2480524494     0.0005987006
   31      H      -3.3151304746    -2.4797078026     0.0007116465
   32      H       0.6669398772    -3.0347249871    -0.0004975993
 ----------------------------------------------------------------

    8    -918.2006916351      8.28e-06  Convergence criterion met
 Total energy in the final basis set =     -918.2006916351
    4    -918.2761177147      6.23e-06  Convergence criterion met
 Total energy in the final basis set =     -918.2761177147

                    Orbital Energies (a.u.)
 --------------------------------------------------------------

 Alpha MOs
 -- Occupied --
-19.1291 -19.1291 -19.0937 -19.0937 -10.2364 -10.2364 -10.2288 -10.2288
-10.1788 -10.1783 -10.1778 -10.1774 -10.1773 -10.1769 -10.1755 -10.1750
-10.1735 -10.1735 -10.1581 -10.1581  -1.0543  -1.0527  -1.0096  -1.0078
 -0.8668  -0.8510  -0.8041  -0.7581  -0.7580  -0.7491  -0.7104  -0.6885
 -0.6579  -0.6239  -0.6210  -0.5967  -0.5726  -0.5409  -0.5232  -0.5092
 -0.5077  -0.4751  -0.4657  -0.4537  -0.4487  -0.4354  -0.4289  -0.4272
 -0.4235  -0.4200  -0.4103  -0.4088  -0.3974  -0.3910  -0.3872  -0.3733
 -0.3685  -0.3682  -0.3609  -0.3522  -0.3516  -0.3500  -0.3400  -0.3048
 -0.2681  -0.2664  -0.2625  -0.2515  -0.2435  -0.2144  -0.1464

 Beta MOs
 -- Occupied --
-19.1285 -19.1285 -19.0893 -19.0893 -10.2343 -10.2343 -10.2280 -10.2280
-10.1780 -10.1776 -10.1774 -10.1770 -10.1769 -10.1764 -10.1750 -10.1746
-10.1734 -10.1734 -10.1582 -10.1581  -1.0521  -1.0505  -1.0024  -1.0005
 -0.8642  -0.8494  -0.8012  -0.7562  -0.7553  -0.7469  -0.7076  -0.6869
 -0.6527  -0.6225  -0.6190  -0.5958  -0.5709  -0.5389  -0.5218  -0.5079
 -0.5059  -0.4731  -0.4643  -0.4517  -0.4429  -0.4343  -0.4277  -0.4236
 -0.4181  -0.4158  -0.4079  -0.4038  -0.3965  -0.3835  -0.3829  -0.3727
 -0.3674  -0.3600  -0.3557  -0.3512  -0.3486  -0.3427  -0.3389  -0.2968
 -0.2627  -0.2555  -0.2545  -0.2479  -0.2382  -0.2029

          Ground-State Mulliken Net Atomic Charges

     Atom                 Charge (a.u.)    Spin (a.u.)
  --------------------------------------------------------
      1 C                    -0.544366      -0.006012
      2 C                     0.490653       0.069905
      3 C                     0.490759       0.069932
      4 C                    -0.544242      -0.006017
      5 C                    -0.582215       0.059239
      6 O                    -0.459869       0.020521
      7 C                     0.468775      -0.027353
      8 C                    -0.329760       0.125313
      9 O                    -0.520727       0.157525
     10 C                     0.079967       0.028639
     11 C                    -0.006639       0.033328
     12 C                    -0.422487       0.039599
     13 C                    -0.422470       0.039523
     14 C                    -0.007283       0.033392
     15 C                     0.080600       0.028575
     16 C                    -0.329615       0.125438
     17 O                    -0.520974       0.157500
     18 C                     0.469614      -0.027387
     19 C                    -0.581667       0.059259
     20 O                    -0.459837       0.020516
     21 H                     0.190972       0.000255
     22 H                     0.167864       0.003372
     23 H                     0.167741       0.003370
     24 H                     0.167978       0.003383
     25 H                     0.191009       0.000255
     26 H                     0.167487       0.003361
     27 H                     0.407424      -0.003764
     28 H                     0.186602      -0.000655
     29 H                     0.205375      -0.003296
     30 H                     0.205420      -0.003292
     31 H                     0.186625      -0.000657
     32 H                     0.407284      -0.003764
  --------------------------------------------------------
  Sum of atomic charges =    -1.000000

                    Cartesian Multipole Moments
 -----------------------------------------------------------------
    Charge (ESU x 10^10)
                -4.8032
    Dipole Moment (Debye)
         X       0.7022      Y       0.0034      Z       0.0009
       Tot       0.7022
    Quadrupole Moments (Debye-Ang)
        XX    -115.7853     XY      -0.0039     YY    -159.1463
        XZ       0.0037     YZ       0.0012     ZZ    -122.6441

 Total job time:  111.78s(wall), 836.18s(cpu)
        *  Thank you very much for using Q-Chem.  Have a nice day.  *
