 Q-Chem 5.4, Q-Chem, Inc., Pleasanton, CA (2021)
 Q-Chem 5.4.0 for Intel X86 EM64T Linux

User input:
--------------------------------------------------------------
$molecule
-1 2
O                  3.8859540000     -2.4581060000     -0.0750130000
C                  3.0215220000     -1.5497150000     -0.0033630000
C                  3.3894900000     -0.1581880000      0.2297870000
C                  4.7497580000      0.1880290000      0.3874970000
C                  5.1307510000      1.4963710000      0.6046700000
C                  4.1493980000      2.5104570000      0.6696810000
C                  2.8152930000      2.1913450000      0.5162980000
C                  2.4006630000      0.8578610000      0.2956540000
C                  0.9670200000      0.5823320000      0.1407140000
O                  0.1471840000      1.5376110000      0.1810320000
C                  0.5725030000     -0.8176280000     -0.0656400000
C                 -0.7988210000     -1.2417980000     -0.1993340000
C                 -1.0865270000     -2.5792540000     -0.4269380000
C                 -0.0795850000     -3.5561600000     -0.5228450000
C                  1.2356160000     -3.1793940000     -0.3787130000
C                  1.5877730000     -1.8334330000     -0.1488280000
N                 -1.9548490000     -0.3910920000     -0.1118200000
C                 -2.2686630000      0.1834010000      1.1978160000
C                 -3.7819260000      0.4676030000      1.2894950000
C                 -4.3459690000      0.9792430000     -0.0597810000
C                 -3.2257980000      1.5665670000     -0.9252770000
C                 -2.1794060000      0.4953610000     -1.2648570000
H                  5.4770330000     -0.6136230000      0.3302410000
H                  6.1804740000      1.7476980000      0.7247380000
H                  4.4459690000      3.5413340000      0.8401900000
H                  2.0434680000      2.9504340000      0.5603210000
H                 -2.1326040000     -2.8498070000     -0.5215500000
H                 -0.3435140000     -4.5944140000     -0.7008820000
H                  2.0467110000     -3.8954680000     -0.4344800000
H                 -1.6886530000      1.0937620000      1.3927020000
H                 -1.9820290000     -0.5487140000      1.9569900000
H                 -3.9494680000      1.2120500000      2.0776810000
H                 -4.3174130000     -0.4398250000      1.5886630000
H                 -5.1348790000      1.7207540000      0.1102720000
H                 -4.8097510000      0.1485180000     -0.6037930000
H                 -3.6267980000      1.9845620000     -1.8552780000
H                 -2.7385400000      2.3892800000     -0.3921100000
H                 -1.2547230000      0.9866950000     -1.5863190000
H                 -2.5466630000     -0.1246470000     -2.0964190000
$end
$rem
MAX_SCF_CYCLES=200
BASIS  =  6-311++G(d,p)
GUI  =  2
JOB_TYPE  =  SP
METHOD  =  B3LYP
SOLVENT_METHOD = PCM
$end
$pcm
theory = CPCM
$end
$solvent
dielectric 37.219
opticaldielectric 1.43
$end

--------------------------------------------------------------

             Standard Nuclear Orientation (Angstroms)
    I     Atom           X                Y                Z
 ----------------------------------------------------------------
    1      O       3.8859540000    -2.4581060000    -0.0750130000
    2      C       3.0215220000    -1.5497150000    -0.0033630000
    3      C       3.3894900000    -0.1581880000     0.2297870000
    4      C       4.7497580000     0.1880290000     0.3874970000
    5      C       5.1307510000     1.4963710000     0.6046700000
    6      C       4.1493980000     2.5104570000     0.6696810000
    7      C       2.8152930000     2.1913450000     0.5162980000
    8      C       2.4006630000     0.8578610000     0.2956540000
    9      C       0.9670200000     0.5823320000     0.1407140000
   10      O       0.1471840000     1.5376110000     0.1810320000
   11      C       0.5725030000    -0.8176280000    -0.0656400000
   12      C      -0.7988210000    -1.2417980000    -0.1993340000
   13      C      -1.0865270000    -2.5792540000    -0.4269380000
   14      C      -0.0795850000    -3.5561600000    -0.5228450000
   15      C       1.2356160000    -3.1793940000    -0.3787130000
   16      C       1.5877730000    -1.8334330000    -0.1488280000
   17      N      -1.9548490000    -0.3910920000    -0.1118200000
   18      C      -2.2686630000     0.1834010000     1.1978160000
   19      C      -3.7819260000     0.4676030000     1.2894950000
   20      C      -4.3459690000     0.9792430000    -0.0597810000
   21      C      -3.2257980000     1.5665670000    -0.9252770000
   22      C      -2.1794060000     0.4953610000    -1.2648570000
   23      H       5.4770330000    -0.6136230000     0.3302410000
   24      H       6.1804740000     1.7476980000     0.7247380000
   25      H       4.4459690000     3.5413340000     0.8401900000
   26      H       2.0434680000     2.9504340000     0.5603210000
   27      H      -2.1326040000    -2.8498070000    -0.5215500000
   28      H      -0.3435140000    -4.5944140000    -0.7008820000
   29      H       2.0467110000    -3.8954680000    -0.4344800000
   30      H      -1.6886530000     1.0937620000     1.3927020000
   31      H      -1.9820290000    -0.5487140000     1.9569900000
   32      H      -3.9494680000     1.2120500000     2.0776810000
   33      H      -4.3174130000    -0.4398250000     1.5886630000
   34      H      -5.1348790000     1.7207540000     0.1102720000
   35      H      -4.8097510000     0.1485180000    -0.6037930000
   36      H      -3.6267980000     1.9845620000    -1.8552780000
   37      H      -2.7385400000     2.3892800000    -0.3921100000
   38      H      -1.2547230000     0.9866950000    -1.5863190000
   39      H      -2.5466630000    -0.1246470000    -2.0964190000
 ----------------------------------------------------------------

    8    -939.8414007044      7.13e-06  Convergence criterion met
 Total energy in the final basis set =     -939.8414007044

                    Orbital Energies (a.u.)
 --------------------------------------------------------------

 Alpha MOs
 -- Occupied --
-19.0761 -19.0704 -14.2887 -10.2249 -10.2239 -10.2026 -10.1776 -10.1759
-10.1735 -10.1729 -10.1714 -10.1713 -10.1709 -10.1704 -10.1690 -10.1688
-10.1678 -10.1655 -10.1642 -10.1548 -10.1545 -10.1529  -1.0041  -0.9993
 -0.9166  -0.8580  -0.8445  -0.7870  -0.7799  -0.7491  -0.7383  -0.7369
 -0.7312  -0.6660  -0.6418  -0.6261  -0.6158  -0.6138  -0.5786  -0.5541
 -0.5331  -0.5257  -0.5137  -0.4847  -0.4772  -0.4696  -0.4599  -0.4532
 -0.4513  -0.4355  -0.4230  -0.4224  -0.4134  -0.4090  -0.4039  -0.4018
 -0.3960  -0.3880  -0.3799  -0.3722  -0.3698  -0.3576  -0.3526  -0.3493
 -0.3438  -0.3345  -0.3343  -0.3204  -0.3097  -0.3014  -0.2665  -0.2559
 -0.2497  -0.2475  -0.2454  -0.2338  -0.1967  -0.1408

 Beta MOs
 -- Occupied --
-19.0711 -19.0651 -14.2887 -10.2231 -10.2219 -10.2025 -10.1768 -10.1759
-10.1735 -10.1721 -10.1709 -10.1705 -10.1704 -10.1697 -10.1687 -10.1684
-10.1678 -10.1655 -10.1637 -10.1548 -10.1545 -10.1529  -0.9950  -0.9899
 -0.9162  -0.8555  -0.8432  -0.7856  -0.7770  -0.7470  -0.7382  -0.7350
 -0.7295  -0.6589  -0.6405  -0.6248  -0.6156  -0.6115  -0.5778  -0.5523
 -0.5307  -0.5245  -0.5133  -0.4836  -0.4763  -0.4673  -0.4593  -0.4522
 -0.4502  -0.4349  -0.4221  -0.4113  -0.4092  -0.4070  -0.4019  -0.4013
 -0.3932  -0.3857  -0.3711  -0.3708  -0.3615  -0.3544  -0.3521  -0.3441
 -0.3424  -0.3329  -0.3245  -0.3202  -0.3095  -0.3012  -0.2514  -0.2460
 -0.2424  -0.2414  -0.2407  -0.2291  -0.1964

          Ground-State Mulliken Net Atomic Charges

     Atom                 Charge (a.u.)    Spin (a.u.)
  --------------------------------------------------------
      1 O                    -0.482228       0.193138
      2 C                    -0.268196       0.114057
      3 C                     0.392800       0.005920
      4 C                    -0.104998       0.029196
      5 C                    -0.406819       0.027893
      6 C                    -0.425090       0.042807
      7 C                     0.045215       0.028805
      8 C                    -0.000718       0.021472
      9 C                    -0.132006       0.095989
     10 O                    -0.396653       0.213313
     11 C                    -0.046089       0.076257
     12 C                    -0.967393       0.027381
     13 C                     0.053632       0.030468
     14 C                    -0.314513       0.044265
     15 C                    -0.261189       0.031316
     16 C                     0.367418       0.031008
     17 N                     0.515003      -0.004679
     18 C                    -0.101509       0.000789
     19 C                    -0.424471      -0.000639
     20 C                    -0.361627      -0.000521
     21 C                    -0.357788       0.001589
     22 C                    -0.121601       0.004196
     23 H                     0.164114      -0.001665
     24 H                     0.198561      -0.002574
     25 H                     0.199409      -0.003309
     26 H                     0.158144      -0.001469
     27 H                     0.158445      -0.003189
     28 H                     0.212523      -0.003370
     29 H                     0.167817      -0.001581
     30 H                     0.152725       0.001840
     31 H                     0.165516       0.000723
     32 H                     0.148890      -0.000076
     33 H                     0.148765       0.000030
     34 H                     0.170583      -0.000012
     35 H                     0.142912       0.000016
     36 H                     0.179442       0.000079
     37 H                     0.139100      -0.000248
     38 H                     0.138130      -0.000093
     39 H                     0.153744       0.000880
  --------------------------------------------------------
  Sum of atomic charges =    -1.000000

                    Cartesian Multipole Moments
 -----------------------------------------------------------------
    Charge (ESU x 10^10)
                -4.8032
    Dipole Moment (Debye)
         X      -9.3202      Y       3.4820      Z      -0.0572
       Tot       9.9496
    Quadrupole Moments (Debye-Ang)
        XX    -168.5890     XY      22.2871     YY    -149.1230
        XZ       1.4052     YZ      -0.0109     ZZ    -136.7794

 Total job time:  166.73s(wall), 840.47s(cpu)
        *  Thank you very much for using Q-Chem.  Have a nice day.  *
