 Gaussian 16, Revision A.03,
 Gaussian 16:  ES64L-G16RevA.03 25-Dec-2016

 ----------------------------------------------------------------
 #P UB3LYP/6-311++G(d,p) SCRF=(PCM,Solvent=n,n-DiMethylFormamide)
 ----------------------------------------------------------------

 ------------------
 Radical PCM in DMF
 ------------------
 Symbolic Z-matrix:
 Charge = -1 Multiplicity = 2

                         Standard orientation:
 ---------------------------------------------------------------------
 Center     Atomic      Atomic             Coordinates (Angstroms)
 Number     Number       Type             X           Y           Z
 ---------------------------------------------------------------------
      1          6           0       -1.599983   -1.743929   -0.000052
      2          6           0       -2.957858   -1.478283    0.000133
      3          6           0       -3.414217   -0.146577    0.000200
      4          6           0       -0.655386   -0.698678   -0.000150
      5          6           0       -1.116505    0.643620   -0.000093
      6          6           0       -2.501500    0.893489    0.000085
      7          6           0        0.783739   -1.041217   -0.000262
      8          6           0        1.652804    0.110081   -0.000044
      9          6           0        1.223207    1.417534   -0.000042
     10          6           0       -0.168549    1.774573   -0.000184
     11          8           0        1.182484   -2.228612   -0.000150
     12          8           0       -0.558036    2.971145   -0.000059
     13          1           0       -1.220693   -2.759364   -0.000094
     14          1           0       -3.671617   -2.296915    0.000221
     15          1           0       -2.820638    1.929706    0.000129
     16         17           0        3.399039   -0.205355    0.000200
     17          1           0       -4.479876    0.062792    0.000381
     18          1           0        1.939068    2.230882    0.000088
 ---------------------------------------------------------------------

 SCF Done:  E(UB3LYP) =  -995.037626579     A.U. after   23 cycles

 The electronic state is 2-A.
 Alpha  occ. eigenvalues -- -101.54885 -19.08560 -19.08334 -10.23561 -10.23096
 Alpha  occ. eigenvalues --  -10.22659 -10.18158 -10.17903 -10.17737 -10.17685
 Alpha  occ. eigenvalues --  -10.17437 -10.17423 -10.17337  -9.46331  -7.22751
 Alpha  occ. eigenvalues --   -7.21860  -7.21788  -1.01371  -1.00709  -0.87246
 Alpha  occ. eigenvalues --   -0.85869  -0.79519  -0.75525  -0.73776  -0.68172
 Alpha  occ. eigenvalues --   -0.62386  -0.60906  -0.56513  -0.51743  -0.50597
 Alpha  occ. eigenvalues --   -0.47480  -0.45953  -0.43023  -0.42927  -0.42640
 Alpha  occ. eigenvalues --   -0.42299  -0.40714  -0.39834  -0.38828  -0.36508
 Alpha  occ. eigenvalues --   -0.35869  -0.34440  -0.34015  -0.31345  -0.27732
 Alpha  occ. eigenvalues --   -0.26085  -0.25427  -0.25237  -0.24663  -0.16199
 Alpha virt. eigenvalues --   -0.03755  -0.02352  -0.00188   0.00841   0.01397
 Alpha virt. eigenvalues --    0.01884   0.03088   0.04081   0.04231   0.04860
 Alpha virt. eigenvalues --    0.04953   0.06470   0.06498   0.06906   0.06910

  Beta  occ. eigenvalues -- -101.54881 -19.07939 -19.07705 -10.23404 -10.22968
  Beta  occ. eigenvalues --  -10.22474 -10.18130 -10.17860 -10.17714 -10.17656
  Beta  occ. eigenvalues --  -10.17422 -10.17420 -10.17155  -9.46328  -7.22757
  Beta  occ. eigenvalues --   -7.21838  -7.21787  -1.00294  -0.99607  -0.86905
  Beta  occ. eigenvalues --   -0.85772  -0.79121  -0.75351  -0.73546  -0.67233
  Beta  occ. eigenvalues --   -0.62183  -0.60633  -0.56251  -0.51513  -0.50331
  Beta  occ. eigenvalues --   -0.47165  -0.45855  -0.42944  -0.42459  -0.41838
  Beta  occ. eigenvalues --   -0.41434  -0.40364  -0.39533  -0.36826  -0.35736
  Beta  occ. eigenvalues --   -0.35552  -0.34341  -0.32872  -0.31295  -0.25510
  Beta  occ. eigenvalues --   -0.25288  -0.24843  -0.24524  -0.24084
  Beta virt. eigenvalues --   -0.09466  -0.02992  -0.01218  -0.00163   0.00896
  Beta virt. eigenvalues --    0.01440   0.01935   0.03104   0.04132   0.04799
  Beta virt. eigenvalues --    0.04990   0.05998   0.06500   0.06927   0.06946

 Mulliken charges and spin densities:
               1          2
     1  C   -0.018997   0.043555
     2  C   -0.410290   0.013018
     3  C   -0.422108   0.024897
     4  C    0.184472  -0.006587
     5  C    0.300574   0.030332
     6  C    0.107115   0.024814
     7  C   -1.292839   0.113279
     8  C    1.136822   0.097167
     9  C    0.134347   0.142631
    10  C   -1.012028   0.075873
    11  O   -0.427576   0.229677
    12  O   -0.471368   0.226139
    13  H    0.162674  -0.002648
    14  H    0.191445  -0.001413
    15  H    0.165201  -0.002397
    16  Cl   0.285491   0.005177
    17  H    0.188057  -0.001906
    18  H    0.199007  -0.011608
 Sum of Mulliken charges =  -1.00000   1.00000

 Dipole moment (field-independent basis, Debye):
    X=             -4.2389    Y=             -1.4955    Z=              0.0004  Tot=              4.4950
 Quadrupole moment (field-independent basis, Debye-Ang):
   XX=            -92.1505   YY=           -115.7322   ZZ=            -86.8797
   XY=             13.0620   XZ=             -0.0010   YZ=             -0.0002

 Normal termination of Gaussian 16 at Sun Jan 21 08:13:43 2024.
