 Q-Chem 5.4, Q-Chem, Inc., Pleasanton, CA (2021)
 Q-Chem 5.4.0 for Intel X86 EM64T Linux

User input:
--------------------------------------------------------------
$molecule
-2 1
C                 -3.3561780000      3.6818700000      0.0365700000
C                 -4.5671200000      3.0219310000      0.0577440000
C                 -4.5906630000      1.5974020000      0.0820510000
C                 -2.1139180000      2.9947320000      0.0379600000
C                 -2.1376200000      1.5417350000      0.0627900000
C                 -3.4024240000      0.8971700000      0.0841240000
C                 -0.8863330000      3.7624930000      0.0147580000
C                  0.3076150000      2.9521800000      0.0186130000
C                  0.2867030000      1.4978920000      0.0435130000
C                 -0.9361030000      0.7337140000      0.0666070000
C                  1.5726250000      3.5963590000     -0.0028670000
C                  2.7301490000      2.8682170000     -0.0001750000
C                  2.7649080000      1.4391810000      0.0239660000
C                  1.5298370000      0.8173120000      0.0448160000
O                 -0.8631540000      5.0496030000     -0.0074140000
O                 -0.9589790000     -0.5549260000      0.0885960000
Br                 4.4464920000      3.8601740000     -0.0309240000
C                  4.0441670000      0.6435050000      0.0273530000
H                 -3.3030830000      4.7663740000      0.0177660000
H                 -5.4999210000      3.5839820000      0.0559550000
H                 -5.5416810000      1.0669340000      0.0988410000
H                 -3.3853270000     -0.1885320000      0.1023640000
H                  1.5653600000      4.6799840000     -0.0212290000
H                  1.4743040000     -0.2682970000      0.0637430000
H                  4.6753010000      0.8689240000      0.8981010000
H                  4.6628450000      0.8413780000     -0.8588610000
H                  3.8112380000     -0.4250390000      0.0457980000
$end
$rem
MAX_SCF_CYCLES=200
BASIS  =  6-311++G(d,p)
GUI  =  2
JOB_TYPE  =  SP
METHOD  =  B3LYP
SOLVENT_METHOD = PCM
$end
$pcm
theory = CPCM
$end
$solvent
dielectric 37.219
opticaldielectric 1.43
$end

--------------------------------------------------------------

             Standard Nuclear Orientation (Angstroms)
    I     Atom           X                Y                Z
 ----------------------------------------------------------------
    1      C      -3.3561780000     3.6818700000     0.0365700000
    2      C      -4.5671200000     3.0219310000     0.0577440000
    3      C      -4.5906630000     1.5974020000     0.0820510000
    4      C      -2.1139180000     2.9947320000     0.0379600000
    5      C      -2.1376200000     1.5417350000     0.0627900000
    6      C      -3.4024240000     0.8971700000     0.0841240000
    7      C      -0.8863330000     3.7624930000     0.0147580000
    8      C       0.3076150000     2.9521800000     0.0186130000
    9      C       0.2867030000     1.4978920000     0.0435130000
   10      C      -0.9361030000     0.7337140000     0.0666070000
   11      C       1.5726250000     3.5963590000    -0.0028670000
   12      C       2.7301490000     2.8682170000    -0.0001750000
   13      C       2.7649080000     1.4391810000     0.0239660000
   14      C       1.5298370000     0.8173120000     0.0448160000
   15      O      -0.8631540000     5.0496030000    -0.0074140000
   16      O      -0.9589790000    -0.5549260000     0.0885960000
   17      Br      4.4464920000     3.8601740000    -0.0309240000
   18      C       4.0441670000     0.6435050000     0.0273530000
   19      H      -3.3030830000     4.7663740000     0.0177660000
   20      H      -5.4999210000     3.5839820000     0.0559550000
   21      H      -5.5416810000     1.0669340000     0.0988410000
   22      H      -3.3853270000    -0.1885320000     0.1023640000
   23      H       1.5653600000     4.6799840000    -0.0212290000
   24      H       1.4743040000    -0.2682970000     0.0637430000
   25      H       4.6753010000     0.8689240000     0.8981010000
   26      H       4.6628450000     0.8413780000    -0.8588610000
   27      H       3.8112380000    -0.4250390000     0.0457980000
 ----------------------------------------------------------------

    9   -3302.0681381876      7.85e-06  Convergence criterion met
 Total energy in the final basis set =    -3302.0681381876

                    Orbital Energies (a.u.)
 --------------------------------------------------------------

 Alpha MOs
 -- Occupied --
******** -62.4703 -56.2905 -56.2870 -56.2869 -19.0271 -19.0256 -10.2094
-10.1799 -10.1783 -10.1722 -10.1597 -10.1569 -10.1516 -10.1513 -10.1508
-10.1482 -10.1480 -10.1446 -10.1414 -10.1412 -10.1408  -8.6788  -6.5093
 -6.4978  -6.4975  -2.6203  -2.6172  -2.6169  -2.6078  -2.6077  -0.9451
 -0.9411  -0.8493  -0.8263  -0.7844  -0.7638  -0.7363  -0.7257  -0.7093
 -0.6768  -0.6352  -0.6063  -0.5820  -0.5665  -0.5294  -0.5012  -0.4925
 -0.4547  -0.4387  -0.4289  -0.4190  -0.4117  -0.4072  -0.4003  -0.3886
 -0.3831  -0.3740  -0.3703  -0.3659  -0.3527  -0.3465  -0.3315  -0.3250
 -0.3191  -0.3175  -0.3044  -0.2860  -0.2836  -0.2383  -0.2294  -0.2280
 -0.2158  -0.2099  -0.2020  -0.1118

          Ground-State Mulliken Net Atomic Charges

     Atom                 Charge (a.u.)
  ----------------------------------------
      1 C                     0.039438
      2 C                    -0.580030
      3 C                    -0.557309
      4 C                     0.129269
      5 C                     0.292524
      6 C                    -0.056553
      7 C                    -0.626955
      8 C                     0.395657
      9 C                     0.199000
     10 C                    -0.382081
     11 C                    -0.101529
     12 C                    -0.271425
     13 C                     0.277924
     14 C                    -0.275074
     15 O                    -0.673813
     16 O                    -0.679537
     17 Br                   -0.339907
     18 C                    -0.235823
     19 H                     0.148290
     20 H                     0.174681
     21 H                     0.176366
     22 H                     0.144537
     23 H                     0.180730
     24 H                     0.117554
     25 H                     0.164706
     26 H                     0.164406
     27 H                     0.174955
  ----------------------------------------
  Sum of atomic charges =    -2.000000

                    Cartesian Multipole Moments
 -----------------------------------------------------------------
    Charge (ESU x 10^10)
                -9.6064
    Dipole Moment (Debye)
         X       5.7684      Y     -23.3430      Z      -0.3359
       Tot      24.0476
    Quadrupole Moments (Debye-Ang)
        XX    -160.7685     XY       3.8828     YY    -237.3734
        XZ       0.6035     YZ       0.1290     ZZ    -129.6088

 Total job time:  91.04s(wall), 386.87s(cpu)
        *  Thank you very much for using Q-Chem.  Have a nice day.  *
