 Gaussian 16, Revision A.03,
 Gaussian 16:  ES64L-G16RevA.03 25-Dec-2016

 --------------------------------------
 #P UB3LYP/6-311++G(d,p) nosym opt freq
 --------------------------------------

 -------
 Reduced
 -------
 Symbolic Z-matrix:
 Charge = -2 Multiplicity = 1

 SCF Done:  E(UB3LYP) =  -3301.81044309     A.U. after   26 cycles
 Optimization completed.
    -- Stationary point found.
 Normal termination of Gaussian 16 at Wed Dec 27 19:55:51 2023.

 ----------------------------------------------------------------------
 #P Geom=AllCheck Guess=TCheck SCRF=Check GenChk UB3LYP/6-311++G(d,p) F
 req
 ----------------------------------------------------------------------

 Structure from the checkpoint file:  "120-an.chk"
 -------
 Reduced
 -------
 Charge = -2 Multiplicity = 1

                          Input orientation:
 ---------------------------------------------------------------------
 Center     Atomic      Atomic             Coordinates (Angstroms)
 Number     Number       Type             X           Y           Z
 ---------------------------------------------------------------------
      1          6           0       -3.356178    3.681870    0.036570
      2          6           0       -4.567120    3.021931    0.057744
      3          6           0       -4.590663    1.597402    0.082051
      4          6           0       -2.113918    2.994732    0.037960
      5          6           0       -2.137620    1.541735    0.062790
      6          6           0       -3.402424    0.897170    0.084124
      7          6           0       -0.886333    3.762493    0.014758
      8          6           0        0.307615    2.952180    0.018613
      9          6           0        0.286703    1.497892    0.043513
     10          6           0       -0.936103    0.733714    0.066607
     11          6           0        1.572625    3.596359   -0.002867
     12          6           0        2.730149    2.868217   -0.000175
     13          6           0        2.764908    1.439181    0.023966
     14          6           0        1.529837    0.817312    0.044816
     15          8           0       -0.863154    5.049603   -0.007414
     16          8           0       -0.958979   -0.554926    0.088596
     17         35           0        4.446492    3.860174   -0.030924
     18          6           0        4.044167    0.643505    0.027353
     19          1           0       -3.303083    4.766374    0.017766
     20          1           0       -5.499921    3.583982    0.055955
     21          1           0       -5.541681    1.066934    0.098841
     22          1           0       -3.385327   -0.188532    0.102364
     23          1           0        1.565360    4.679984   -0.021229
     24          1           0        1.474304   -0.268297    0.063743
     25          1           0        4.675301    0.868924    0.898101
     26          1           0        4.662845    0.841378   -0.858861
     27          1           0        3.811238   -0.425039    0.045798
 ---------------------------------------------------------------------

 SCF Done:  E(UB3LYP) =  -3301.81044309     A.U. after    1 cycles

 Alpha  occ. eigenvalues -- -482.61289 -62.26577 -56.08563 -56.08248 -56.08241
 Alpha  occ. eigenvalues --  -18.77770 -18.77659  -9.98697  -9.96737  -9.95031
 Alpha  occ. eigenvalues --   -9.93901  -9.93765  -9.93278  -9.92964  -9.92919
 Alpha  occ. eigenvalues --   -9.92677  -9.92068  -9.92048  -9.90842  -9.90527
 Alpha  occ. eigenvalues --   -9.90506  -9.90475  -8.47530  -6.30511  -6.29459
 Alpha  occ. eigenvalues --   -6.29446  -2.41631  -2.41328  -2.41322  -2.40485
 Alpha  occ. eigenvalues --   -2.40484  -0.69583  -0.69122  -0.62682  -0.59589
 Alpha  occ. eigenvalues --   -0.56722  -0.54654  -0.51042  -0.49535  -0.48530
 Alpha  occ. eigenvalues --   -0.45955  -0.40280  -0.38157  -0.35508  -0.33978
 Alpha  occ. eigenvalues --   -0.29800  -0.27652  -0.26628  -0.23508  -0.21547
 Alpha  occ. eigenvalues --   -0.21108  -0.20533  -0.19689  -0.18397  -0.17636
 Alpha  occ. eigenvalues --   -0.17146  -0.14752  -0.14621  -0.14204  -0.13485
 Alpha  occ. eigenvalues --   -0.12422  -0.11561  -0.09802  -0.09507  -0.09124
 Alpha  occ. eigenvalues --   -0.08288  -0.07912  -0.06708  -0.06323  -0.00939
 Alpha  occ. eigenvalues --    0.00458   0.01349   0.01596   0.04126   0.04754
 Alpha  occ. eigenvalues --    0.13101
 Alpha virt. eigenvalues --    0.15187   0.16058   0.16885   0.17813   0.18906
 Alpha virt. eigenvalues --    0.19530   0.19995   0.20020   0.20684   0.21281
 Alpha virt. eigenvalues --    0.21766   0.22508   0.22872   0.23254   0.24135

  Beta  occ. eigenvalues -- -482.61289 -62.26577 -56.08563 -56.08248 -56.08241
  Beta  occ. eigenvalues --  -18.77770 -18.77659  -9.98697  -9.96737  -9.95031
  Beta  occ. eigenvalues --   -9.93901  -9.93765  -9.93278  -9.92964  -9.92919
  Beta  occ. eigenvalues --   -9.92677  -9.92068  -9.92048  -9.90842  -9.90527
  Beta  occ. eigenvalues --   -9.90506  -9.90475  -8.47530  -6.30511  -6.29459
  Beta  occ. eigenvalues --   -6.29446  -2.41631  -2.41328  -2.41322  -2.40485
  Beta  occ. eigenvalues --   -2.40484  -0.69583  -0.69122  -0.62682  -0.59589
  Beta  occ. eigenvalues --   -0.56722  -0.54654  -0.51042  -0.49535  -0.48530
  Beta  occ. eigenvalues --   -0.45955  -0.40280  -0.38157  -0.35508  -0.33978
  Beta  occ. eigenvalues --   -0.29800  -0.27652  -0.26628  -0.23508  -0.21547
  Beta  occ. eigenvalues --   -0.21108  -0.20533  -0.19689  -0.18397  -0.17636
  Beta  occ. eigenvalues --   -0.17146  -0.14752  -0.14621  -0.14204  -0.13485
  Beta  occ. eigenvalues --   -0.12422  -0.11561  -0.09802  -0.09507  -0.09124
  Beta  occ. eigenvalues --   -0.08288  -0.07912  -0.06708  -0.06323  -0.00939
  Beta  occ. eigenvalues --    0.00458   0.01349   0.01596   0.04126   0.04754
  Beta  occ. eigenvalues --    0.13101
  Beta virt. eigenvalues --    0.15187   0.16058   0.16885   0.17813   0.18906
  Beta virt. eigenvalues --    0.19530   0.19995   0.20020   0.20684   0.21281
  Beta virt. eigenvalues --    0.21766   0.22508   0.22872   0.23254   0.24135

 Mulliken charges and spin densities:
               1          2
     1  C    0.032804   0.000000
     2  C   -0.488404  -0.000000
     3  C   -0.464488  -0.000000
     4  C    0.320295   0.000000
     5  C    0.491834  -0.000000
     6  C   -0.081300  -0.000000
     7  C   -1.096784  -0.000000
     8  C    0.397406   0.000000
     9  C    0.236645  -0.000000
    10  C   -0.741954   0.000000
    11  C   -0.079263   0.000000
    12  C   -0.387596   0.000000
    13  C    0.656573  -0.000000
    14  C   -0.187195  -0.000000
    15  O   -0.506177   0.000000
    16  O   -0.514487  -0.000000
    17  Br  -0.420269   0.000000
    18  C   -0.243096   0.000000
    19  H    0.130651   0.000000
    20  H    0.073602  -0.000000
    21  H    0.075556   0.000000
    22  H    0.124382  -0.000000
    23  H    0.197071  -0.000000
    24  H    0.093879   0.000000
    25  H    0.122399   0.000000
    26  H    0.122397   0.000000
    27  H    0.135522   0.000000
 Sum of Mulliken charges =  -2.00000   0.00000

 Dipole moment (field-independent basis, Debye):
    X=              4.0982    Y=            -23.1337    Z=             -0.3256  Tot=             23.4962
 Quadrupole moment (field-independent basis, Debye-Ang):
   XX=           -200.0527   YY=           -234.8956   ZZ=           -130.7411
   XY=              0.6035   XZ=              0.8532   YZ=              0.1164

  Exact polarizability: 509.328   6.663 267.449  -3.060  -2.234 140.267
 Approx polarizability: 820.173   1.110 495.091  -4.983  -4.823 211.831

                      1                      2                      3
                      A                      A                      A
 Frequencies --     23.6769                47.4671               121.1421
 Red. masses --      6.7290                 5.1857                 3.2411
 Frc consts  --      0.0022                 0.0069                 0.0280
 IR Inten    --      0.4895                 4.9588                 0.0634

                      4                      5                      6
                      A                      A                      A
 Frequencies --    122.7637               131.7811               149.6198
 Red. masses --     11.0603                 5.4717                 1.8975
 Frc consts  --      0.0982                 0.0560                 0.0250
 IR Inten    --      2.2572                 3.5514                 0.2377

                      7                      8                      9
                      A                      A                      A
 Frequencies --    187.1855               204.8568               213.2886
 Red. masses --      5.3429                16.5639                 2.1726
 Frc consts  --      0.1103                 0.4096                 0.0582
 IR Inten    --      2.9724                 2.4115                 0.5086

                     10                     11                     12
                      A                      A                      A
 Frequencies --    223.6204               277.4713               286.2531
 Red. masses --      3.7098                 6.0869                 5.3233
 Frc consts  --      0.1093                 0.2761                 0.2570
 IR Inten    --      5.8158                 1.8020                 5.7946

                     13                     14                     15
                      A                      A                      A
 Frequencies --    337.4343               364.6188               377.3392
 Red. masses --      6.6456                 9.6276                 6.0912
 Frc consts  --      0.4458                 0.7541                 0.5110
 IR Inten    --      1.5462                 2.6114                 0.4777

                     16                     17                     18
                      A                      A                      A
 Frequencies --    415.4361               431.6643               460.4313
 Red. masses --      4.3411                 4.9248                 5.9392
 Frc consts  --      0.4414                 0.5407                 0.7418
 IR Inten    --      2.3850                 9.8322                 2.5494

                     19                     20                     21
                      A                      A                      A
 Frequencies --    462.2320               493.4145               495.0288
 Red. masses --      3.5262                 4.2641                11.4889
 Frc consts  --      0.4439                 0.6116                 1.6588
 IR Inten    --      2.3809                 0.2688                 1.9876

                     22                     23                     24
                      A                      A                      A
 Frequencies --    588.4372               588.8137               639.6291
 Red. masses --      4.5296                 6.3004                 6.8781
 Frc consts  --      0.9241                 1.2870                 1.6580
 IR Inten    --      0.1473                38.1992                63.2830

                     25                     26                     27
                      A                      A                      A
 Frequencies --    666.4458               684.5383               691.6793
 Red. masses --      6.3249                 1.7557                 6.4969
 Frc consts  --      1.6551                 0.4847                 1.8313
 IR Inten    --     13.9290                75.0470                10.8676

                     28                     29                     30
                      A                      A                      A
 Frequencies --    696.8497               742.6969               750.6582
 Red. masses --      4.7457                 6.1341                 2.5559
 Frc consts  --      1.3578                 1.9935                 0.8485
 IR Inten    --      0.2029                 8.4198                 9.7758

                     31                     32                     33
                      A                      A                      A
 Frequencies --    768.0871               827.1031               854.5462
 Red. masses --      1.5505                 3.6554                 6.1408
 Frc consts  --      0.5389                 1.4733                 2.6421
 IR Inten    --      0.0189                 0.0004                17.7084

                     34                     35                     36
                      A                      A                      A
 Frequencies --    904.7676               923.1223               930.2703
 Red. masses --      1.4262                 1.3721                 7.3494
 Frc consts  --      0.6879                 0.6889                 3.7473
 IR Inten    --      0.0039                12.2318                27.1033

                     37                     38                     39
                      A                      A                      A
 Frequencies --    951.1756               955.0245               960.4157
 Red. masses --      2.7884                 1.2386                 1.3692
 Frc consts  --      1.4864                 0.6656                 0.7441
 IR Inten    --     40.9507                 0.0312                 4.5564

                     40                     41                     42
                      A                      A                      A
 Frequencies --   1010.0562              1020.3216              1043.5406
 Red. masses --      2.0974                 1.6042                 1.3825
 Frc consts  --      1.2607                 0.9839                 0.8870
 IR Inten    --     93.4881                13.4395                 3.1376

                     43                     44                     45
                      A                      A                      A
 Frequencies --   1089.5280              1118.6788              1133.6125
 Red. masses --      2.5800                 1.5246                 2.2375
 Frc consts  --      1.8045                 1.1241                 1.6941
 IR Inten    --    123.3225               209.9814                14.7987

                     46                     47                     48
                      A                      A                      A
 Frequencies --   1152.8506              1201.0735              1205.4800
 Red. masses --      2.6171                 2.4442                 1.7271
 Frc consts  --      2.0494                 2.0774                 1.4787
 IR Inten    --     78.6317               204.9252                10.1465

                     49                     50                     51
                      A                      A                      A
 Frequencies --   1213.7614              1228.0602              1300.1824
 Red. masses --      2.3054                 2.7524                 3.1897
 Frc consts  --      2.0010                 2.4457                 3.1769
 IR Inten    --    211.6618               107.5523               195.6455

                     52                     53                     54
                      A                      A                      A
 Frequencies --   1328.7655              1350.5923              1364.0706
 Red. masses --      6.3380                 5.8945                 2.2883
 Frc consts  --      6.5932                 6.3349                 2.5086
 IR Inten    --      2.7431               508.0565               650.8297

                     55                     56                     57
                      A                      A                      A
 Frequencies --   1400.1574              1419.5660              1454.7224
 Red. masses --      1.4169                 3.5627                 3.2717
 Frc consts  --      1.6366                 4.2300                 4.0792
 IR Inten    --    118.2425                39.5056               138.6837

                     58                     59                     60
                      A                      A                      A
 Frequencies --   1462.2310              1463.7050              1468.3971
 Red. masses --      3.9588                 7.7969                 1.0484
 Frc consts  --      4.9871                 9.8419                 1.3319
 IR Inten    --    247.6136                82.0877                 2.1424

                     61                     62                     63
                      A                      A                      A
 Frequencies --   1480.5104              1493.0668              1512.0939
 Red. masses --      4.2123                 1.3975                 3.3322
 Frc consts  --      5.4399                 1.8355                 4.4889
 IR Inten    --     82.8711                43.5491                95.5765

                     64                     65                     66
                      A                      A                      A
 Frequencies --   1563.1469              1579.6853              1585.7693
 Red. masses --      5.8089                 8.9023                 5.3138
 Frc consts  --      8.3626                13.0886                 7.8729
 IR Inten    --     51.2075                 0.6140                 1.5851

                     67                     68                     69
                      A                      A                      A
 Frequencies --   2952.6302              2966.7700              3066.3569
 Red. masses --      1.1013                 1.0394                 1.0944
 Frc consts  --      5.6567                 5.3900                 6.0628
 IR Inten    --    107.5270               370.0961                42.8640

                     70                     71                     72
                      A                      A                      A
 Frequencies --   3087.3673              3111.4929              3140.1649
 Red. masses --      1.0824                 1.0903                 1.0878
 Frc consts  --      6.0787                 6.2192                 6.3200
 IR Inten    --     44.6390               134.2621                23.9856

                     73                     74                     75
                      A                      A                      A
 Frequencies --   3154.3186              3156.9232              3180.5876
 Red. masses --      1.0902                 1.0914                 1.0895
 Frc consts  --      6.3909                 6.4085                 6.4936
 IR Inten    --     27.4976                64.1909                11.6245

 - Thermochemistry -
 -------------------
 Temperature   298.150 Kelvin.  Pressure   1.00000 Atm.
 Atom     1 has atomic number  6 and mass  12.00000

 Molecular mass:   299.97859 amu.
 Principal axes and moments of inertia in atomic units:
                           1         2         3
     Eigenvalues --  2246.49244********************
           X            0.98660  -0.16293   0.00825
           Y            0.16278   0.98652   0.01700
           Z           -0.01090  -0.01543   0.99982
 This molecule is an asymmetric top.
 Rotational symmetry number  1.
 Warning -- assumption of classical behavior for rotation
           may cause significant error
 Rotational temperatures (Kelvin)      0.03856     0.00812     0.00671
 Rotational constants (GHZ):           0.80336     0.16918     0.13987
 Zero-point vibrational energy     498909.9 (Joules/Mol)
                                  119.24233 (Kcal/Mol)
 Warning -- explicit consideration of  23 degrees of freedom as
           vibrations may cause significant error
 Vibrational temperatures:     34.07    68.29   174.30   176.63   189.60
          (Kelvin)            215.27   269.32   294.74   306.87   321.74
                              399.22   411.85   485.49   524.61   542.91
                              597.72   621.07   662.46   665.05   709.91
                              712.24   846.63   847.17   920.28   958.87
                              984.90   995.17  1002.61  1068.58  1080.03
                             1105.11  1190.02  1229.50  1301.76  1328.17
                             1338.45  1368.53  1374.07  1381.82  1453.25
                             1468.02  1501.42  1567.59  1609.53  1631.02
                             1658.69  1728.08  1734.42  1746.33  1766.90
                             1870.67  1911.80  1943.20  1962.59  2014.51
                             2042.44  2093.02  2103.82  2105.95  2112.70
                             2130.12  2148.19  2175.57  2249.02  2272.81
                             2281.57  4248.18  4268.52  4411.80  4442.03
                             4476.74  4518.00  4538.36  4542.11  4576.16

 Zero-point correction=                           0.190025 (Hartree/Particle)
 Thermal correction to Energy=                    0.204975
 Thermal correction to Enthalpy=                  0.205919
 Thermal correction to Gibbs Free Energy=         0.146664
 Sum of electronic and zero-point Energies=          -3301.620418
 Sum of electronic and thermal Energies=             -3301.605468
 Sum of electronic and thermal Enthalpies=           -3301.604524
 Sum of electronic and thermal Free Energies=        -3301.663779

                     E (Thermal)             CV                S
                      KCal/Mol        Cal/Mol-Kelvin    Cal/Mol-Kelvin
 Total                  128.624             57.969            124.713
 Electronic               0.000              0.000              0.000
 Translational            0.889              2.981             42.993
 Rotational               0.889              2.981             34.091
 Vibrational            126.846             52.008             47.630
 Vibration     1          0.593              1.985              6.299
 Vibration     2          0.595              1.979              4.920
 Vibration     3          0.609              1.932              3.082
 Vibration     4          0.610              1.930              3.056
 Vibration     5          0.612              1.922              2.920
 Vibration     6          0.618              1.903              2.677
 Vibration     7          0.632              1.857              2.256
 Vibration     8          0.640              1.833              2.089
 Vibration     9          0.644              1.821              2.015
 Vibration    10          0.649              1.805              1.930
 Vibration    11          0.678              1.715              1.549
 Vibration    12          0.684              1.699              1.496
 Vibration    13          0.718              1.601              1.224
 Vibration    14          0.738              1.545              1.102
 Vibration    15          0.748              1.518              1.050
 Vibration    16          0.779              1.437              0.908
 Vibration    17          0.793              1.401              0.853
 Vibration    18          0.818              1.338              0.765
 Vibration    19          0.820              1.334              0.760
 Vibration    20          0.849              1.265              0.675
 Vibration    21          0.851              1.261              0.671
 Vibration    22          0.946              1.056              0.470
 Vibration    23          0.946              1.056              0.469

                           ! Non-Optimized Parameters !
 Normal termination of Gaussian 16 at Wed Dec 27 21:05:17 2023.
