 Gaussian 16, Revision A.03,
 Gaussian 16:  ES64L-G16RevA.03 25-Dec-2016

 ----------------------------------------------------------------
 #P UB3LYP/6-311++G(d,p) SCRF=(PCM,Solvent=n,n-DiMethylFormamide)
 ----------------------------------------------------------------

 ------------------
 Radical PCM in DMF
 ------------------
 Symbolic Z-matrix:
 Charge = -1 Multiplicity = 2

                         Standard orientation:
 ---------------------------------------------------------------------
 Center     Atomic      Atomic             Coordinates (Angstroms)
 Number     Number       Type             X           Y           Z
 ---------------------------------------------------------------------
      1          6           0       -0.426362    1.128956   -0.613257
      2          6           0        0.480944   -0.008312   -0.637606
      3          6           0        0.080237   -1.271441   -0.254811
      4          6           0       -1.281643   -1.529967    0.198007
      5          6           0       -2.188179   -0.390140    0.222433
      6          6           0       -1.785797    0.866692   -0.164767
      7          8           0       -0.061864    2.286101   -0.976768
      8          8           0       -1.665956   -2.678007    0.567255
      9          8           0       -2.714971    1.884758   -0.197630
     10          8           0       -3.464178   -0.556989    0.717089
     11          6           0       -2.459140    2.974272    0.684423
     12          6           0       -4.307642   -1.416522   -0.044398
     13          6           0        1.019764   -2.453683   -0.269639
     14          6           0        1.892561    0.285055   -1.117811
     15          6           0        2.803920    0.711419    0.006018
     16          6           0        4.011765    0.238944    0.343219
     17          6           0        4.739509   -0.867508   -0.380248
     18          6           0        4.765475    0.808752    1.522538
     19          1           0       -1.494632    3.435998    0.462538
     20          1           0       -2.487409    2.637400    1.729483
     21          1           0       -3.264182    3.695015    0.521791
     22          1           0       -5.261115   -1.459242    0.487660
     23          1           0       -3.877025   -2.417343   -0.119126
     24          1           0       -4.476606   -0.999859   -1.046570
     25          1           0        1.933729   -2.252255    0.298607
     26          1           0        1.324866   -2.718737   -1.290554
     27          1           0        0.513664   -3.315872    0.165749
     28          1           0        1.820867    1.121966   -1.821789
     29          1           0        2.299897   -0.573723   -1.654932
     30          1           0        2.394312    1.520254    0.608123
     31          1           0        4.160034   -1.289846   -1.200651
     32          1           0        4.991560   -1.683898    0.309050
     33          1           0        5.690427   -0.503213   -0.792000
     34          1           0        4.203303    1.609410    2.008266
     35          1           0        5.739869    1.213555    1.216499
     36          1           0        4.971728    0.034379    2.273684
 ---------------------------------------------------------------------

 SCF Done:  E(UB3LYP) =  -845.546576708     A.U. after   18 cycles

 The electronic state is 2-A.
 Alpha  occ. eigenvalues --  -19.13347 -19.13326 -19.07321 -19.07287 -10.21674
 Alpha  occ. eigenvalues --  -10.21635 -10.21132 -10.21070 -10.20438 -10.20430
 Alpha  occ. eigenvalues --  -10.17215 -10.16556 -10.16335 -10.16081 -10.15927
 Alpha  occ. eigenvalues --  -10.15865 -10.15743 -10.15092  -1.05838  -1.03953
 Alpha  occ. eigenvalues --   -0.99323  -0.99074  -0.82887  -0.80715  -0.77039
 Alpha  occ. eigenvalues --   -0.73567  -0.70434  -0.69699  -0.68887  -0.66607
 Alpha  occ. eigenvalues --   -0.64169  -0.62491  -0.56161  -0.55784  -0.51851
 Alpha  occ. eigenvalues --   -0.50845  -0.49379  -0.48459  -0.46583  -0.45559
 Alpha  occ. eigenvalues --   -0.44371  -0.43946  -0.43724  -0.43405  -0.42801
 Alpha  occ. eigenvalues --   -0.41537  -0.41030  -0.40595  -0.38795  -0.38495
 Alpha  occ. eigenvalues --   -0.38245  -0.37944  -0.37008  -0.36736  -0.36145
 Alpha  occ. eigenvalues --   -0.35673  -0.35391  -0.34434  -0.33676  -0.32829
 Alpha  occ. eigenvalues --   -0.28827  -0.28456  -0.26397  -0.24096  -0.23610
 Alpha  occ. eigenvalues --   -0.22838  -0.22119  -0.15578
 Alpha virt. eigenvalues --   -0.00778  -0.00254   0.00673   0.00770   0.01408
 Alpha virt. eigenvalues --    0.01552   0.02292   0.02338   0.03102   0.03186
 Alpha virt. eigenvalues --    0.03517   0.03863   0.04135   0.04368   0.04989

  Beta  occ. eigenvalues --  -19.13331 -19.13311 -19.06650 -19.06634 -10.21499
  Beta  occ. eigenvalues --  -10.21460 -10.21039 -10.20976 -10.20433 -10.20425
  Beta  occ. eigenvalues --  -10.17213 -10.16446 -10.16237 -10.16088 -10.15928
  Beta  occ. eigenvalues --  -10.15865 -10.15734 -10.15102  -1.05737  -1.03839
  Beta  occ. eigenvalues --   -0.98189  -0.97940  -0.82499  -0.80565  -0.76880
  Beta  occ. eigenvalues --   -0.73370  -0.70198  -0.69552  -0.68884  -0.66366
  Beta  occ. eigenvalues --   -0.63594  -0.62336  -0.55877  -0.55447  -0.51754
  Beta  occ. eigenvalues --   -0.50778  -0.49176  -0.48293  -0.46248  -0.45503
  Beta  occ. eigenvalues --   -0.44227  -0.43751  -0.43663  -0.43183  -0.42767
  Beta  occ. eigenvalues --   -0.41328  -0.40616  -0.39914  -0.38653  -0.38303
  Beta  occ. eigenvalues --   -0.38012  -0.37289  -0.36686  -0.36342  -0.35490
  Beta  occ. eigenvalues --   -0.35307  -0.34425  -0.33658  -0.33221  -0.32717
  Beta  occ. eigenvalues --   -0.28528  -0.28122  -0.24176  -0.23375  -0.23073
  Beta  occ. eigenvalues --   -0.22395  -0.21554
  Beta virt. eigenvalues --   -0.08484  -0.00748   0.00020   0.00736   0.01073
  Beta virt. eigenvalues --    0.01502   0.01917   0.02367   0.02599   0.03130
  Beta virt. eigenvalues --    0.03253   0.03870   0.04083   0.04373   0.04957

 Mulliken charges and spin densities:
               1          2
     1  C   -0.491213   0.090606
     2  C    0.852993   0.074104
     3  C    0.656124   0.086038
     4  C   -0.692248   0.084749
     5  C   -0.313572   0.077217
     6  C   -0.153072   0.075211
     7  O   -0.470254   0.239274
     8  O   -0.490377   0.244194
     9  O   -0.198799   0.000364
    10  O   -0.195563   0.000336
    11  C   -0.251026   0.001337
    12  C   -0.265086   0.001803
    13  C   -0.629407   0.002475
    14  C    0.331862   0.012537
    15  C   -0.693747  -0.007828
    16  C    0.434479   0.009054
    17  C   -0.676817  -0.001504
    18  C   -0.617240   0.001574
    19  H    0.164230  -0.000380
    20  H    0.136466   0.000842
    21  H    0.153812   0.000667
    22  H    0.154491   0.000772
    23  H    0.169518  -0.000415
    24  H    0.136312   0.000570
    25  H    0.171582   0.003610
    26  H    0.167311   0.004578
    27  H    0.182183  -0.001921
    28  H    0.196909   0.002086
    29  H    0.171296  -0.000033
    30  H    0.194308  -0.002611
    31  H    0.122981   0.000287
    32  H    0.149635   0.000150
    33  H    0.149122  -0.000122
    34  H    0.150736   0.000126
    35  H    0.142354  -0.000010
    36  H    0.149720   0.000262
 Sum of Mulliken charges =  -1.00000   1.00000

 Dipole moment (field-independent basis, Debye):
    X=              6.0505    Y=             -0.0040    Z=              0.5066  Tot=              6.0717
 Quadrupole moment (field-independent basis, Debye-Ang):
   XX=           -121.2024   YY=           -138.7438   ZZ=           -116.7463
   XY=             -8.5768   XZ=              4.3226   YZ=             14.5018

 Normal termination of Gaussian 16 at Wed Jan 24 22:57:25 2024.
