 Gaussian 16, Revision A.03,
 Gaussian 16:  ES64L-G16RevA.03 25-Dec-2016

 --------------------------------------
 #P UB3LYP/6-311++G(d,p) nosym opt freq
 --------------------------------------

 -------
 Radical
 -------
 Symbolic Z-matrix:
 Charge = -1 Multiplicity = 2

 SCF Done:  E(UB3LYP) =  -728.340527329     A.U. after   20 cycles
 SCF Done:  E(UB3LYP) =  -728.340527490     A.U. after   10 cycles
 Optimization completed.
    -- Stationary point found.
 Normal termination of Gaussian 16 at Wed Dec 27 19:55:54 2023.

 ----------------------------------------------------------------------
 #P Geom=AllCheck Guess=TCheck SCRF=Check GenChk UB3LYP/6-311++G(d,p) F
 req
 ----------------------------------------------------------------------

 Structure from the checkpoint file:  "123-rad.chk"
 -------
 Radical
 -------
 Charge = -1 Multiplicity = 2

                          Input orientation:
 ---------------------------------------------------------------------
 Center     Atomic      Atomic             Coordinates (Angstroms)
 Number     Number       Type             X           Y           Z
 ---------------------------------------------------------------------
      1          6           0       -2.890122   -1.924654   -0.139079
      2          6           0       -2.399927   -0.496167   -0.050386
      3          6           0       -3.355324    0.505454    0.050104
      4          6           0       -3.003971    1.865947    0.137469
      5          6           0       -1.675953    2.225680    0.123671
      6          6           0       -0.662299    1.249081    0.023359
      7          6           0        0.725349    1.723980    0.016109
      8          8           0        1.007595    2.946981    0.095745
      9          6           0        1.761090    0.701832   -0.087597
     10          6           0        3.121088    1.084990   -0.100288
     11          6           0        4.126310    0.144545   -0.197104
     12          6           0        3.799002   -1.227152   -0.285481
     13          6           0        2.476009   -1.621721   -0.274716
     14          6           0        1.429711   -0.677387   -0.176422
     15          6           0        0.042030   -1.156612   -0.169843
     16          8           0       -0.199894   -2.388805   -0.250504
     17          6           0       -1.011526   -0.139780   -0.065887
     18          1           0       -3.985125   -1.938767   -0.108323
     19          1           0       -2.499329   -2.536811    0.675845
     20          1           0       -2.549529   -2.412086   -1.054459
     21          1           0       -4.405106    0.224939    0.061075
     22          1           0       -3.780254    2.621772    0.214917
     23          1           0       -1.360820    3.260204    0.188578
     24          1           0        3.339330    2.144505   -0.030963
     25          1           0        5.166841    0.456073   -0.205473
     26          1           0        4.588374   -1.969360   -0.361756
     27          1           0        2.196447   -2.666680   -0.341211
 ---------------------------------------------------------------------

 SCF Done:  E(UB3LYP) =  -728.340527490     A.U. after    2 cycles

 Alpha  occ. eigenvalues --  -18.94332 -18.94280 -10.09636 -10.09253 -10.06559
 Alpha  occ. eigenvalues --  -10.05693 -10.05641 -10.05417 -10.05244 -10.05128
 Alpha  occ. eigenvalues --  -10.04968 -10.04926 -10.04786 -10.04747 -10.04666
 Alpha  occ. eigenvalues --  -10.04505 -10.04356  -0.87154  -0.86794  -0.73863
 Alpha  occ. eigenvalues --   -0.73095  -0.66366  -0.65052  -0.62841  -0.61716
 Alpha  occ. eigenvalues --   -0.56956  -0.53785  -0.51206  -0.49588  -0.45787
 Alpha  occ. eigenvalues --   -0.42563  -0.41362  -0.39894  -0.34886  -0.34680
 Alpha  occ. eigenvalues --   -0.34080  -0.33621  -0.30495  -0.30298  -0.29487
 Alpha  occ. eigenvalues --   -0.28611  -0.28181  -0.28167  -0.27827  -0.25936
 Alpha  occ. eigenvalues --   -0.25223  -0.24754  -0.23667  -0.22661  -0.22360
 Alpha  occ. eigenvalues --   -0.21428  -0.20988  -0.14126  -0.13412  -0.12707
 Alpha  occ. eigenvalues --   -0.12622  -0.11215  -0.10378  -0.01265
 Alpha virt. eigenvalues --    0.07069   0.08229   0.08368   0.09633   0.09731
 Alpha virt. eigenvalues --    0.10317   0.11128   0.11496   0.12501   0.12828
 Alpha virt. eigenvalues --    0.13531   0.14079   0.14687   0.15763   0.16217

  Beta  occ. eigenvalues --  -18.93732 -18.93683 -10.09504 -10.09115 -10.06568
  Beta  occ. eigenvalues --  -10.05646 -10.05588 -10.05361 -10.05163 -10.05066
  Beta  occ. eigenvalues --  -10.04975 -10.04942 -10.04686 -10.04652 -10.04579
  Beta  occ. eigenvalues --  -10.04513 -10.04355  -0.86132  -0.85750  -0.73608
  Beta  occ. eigenvalues --   -0.72980  -0.65977  -0.64910  -0.62662  -0.61514
  Beta  occ. eigenvalues --   -0.56759  -0.53150  -0.51045  -0.49326  -0.45706
  Beta  occ. eigenvalues --   -0.42358  -0.41131  -0.39764  -0.34621  -0.34588
  Beta  occ. eigenvalues --   -0.33915  -0.33526  -0.30268  -0.30041  -0.29331
  Beta  occ. eigenvalues --   -0.28496  -0.28007  -0.27364  -0.27300  -0.25664
  Beta  occ. eigenvalues --   -0.25117  -0.23627  -0.22607  -0.22227  -0.22134
  Beta  occ. eigenvalues --   -0.20792  -0.20277  -0.12972  -0.12131  -0.11998
  Beta  occ. eigenvalues --   -0.11548  -0.10664  -0.09828
  Beta virt. eigenvalues --    0.04671   0.07907   0.08224   0.08360   0.09627
  Beta virt. eigenvalues --    0.10309   0.10797   0.11128   0.11657   0.12495
  Beta virt. eigenvalues --    0.12820   0.13595   0.14079   0.14667   0.15826

 Mulliken charges and spin densities:
               1          2
     1  C   -0.553804   0.006152
     2  C    0.840297   0.010414
     3  C   -0.441030   0.051022
     4  C   -0.301630   0.046558
     5  C   -0.024293   0.018593
     6  C    0.476415   0.057849
     7  C   -0.796585   0.068157
     8  O   -0.363230   0.223472
     9  C    0.164783   0.029879
    10  C    0.016859   0.019176
    11  C   -0.389087   0.034555
    12  C   -0.436147   0.042437
    13  C    0.116228   0.013485
    14  C    0.129698   0.048199
    15  C   -0.891170   0.063405
    16  O   -0.340497   0.221567
    17  C    0.452881   0.064725
    18  H    0.105678  -0.000565
    19  H    0.162076  -0.000473
    20  H    0.162073  -0.000473
    21  H    0.063437  -0.004340
    22  H    0.137713  -0.003595
    23  H    0.150251  -0.001355
    24  H    0.154228  -0.001384
    25  H    0.120957  -0.002993
    26  H    0.122090  -0.003673
    27  H    0.161811  -0.000794
 Sum of Mulliken charges =  -1.00000   1.00000

 Dipole moment (field-independent basis, Debye):
    X=             -1.7190    Y=             -1.6463    Z=              0.3431  Tot=              2.4048
 Quadrupole moment (field-independent basis, Debye-Ang):
   XX=           -116.2019   YY=           -132.0033   ZZ=           -106.6132
   XY=             -4.9317   XZ=              0.0820   YZ=             -1.5408

  Exact polarizability: 328.993 -15.573 233.773  -7.858   9.977 101.902
 Approx polarizability: 490.783 -14.624 437.021 -10.793  20.165 163.296

                      1                      2                      3
                      A                      A                      A
 Frequencies --     47.5973                69.4338               130.0115
 Red. masses --      6.2946                 4.1113                 4.5563
 Frc consts  --      0.0084                 0.0117                 0.0454
 IR Inten    --      6.4137                 0.1111                 0.0108

                      4                      5                      6
                      A                      A                      A
 Frequencies --    165.1760               198.6419               217.5636
 Red. masses --      7.6187                 1.7636                 4.4173
 Frc consts  --      0.1225                 0.0410                 0.1232
 IR Inten    --      2.1171                 1.1621                 4.0114

                      7                      8                      9
                      A                      A                      A
 Frequencies --    228.9153               252.6774               312.3757
 Red. masses --      1.5218                 4.1998                 5.8883
 Frc consts  --      0.0470                 0.1580                 0.3385
 IR Inten    --      0.0676                 0.7109                 0.2970

                     10                     11                     12
                      A                      A                      A
 Frequencies --    346.1067               383.9071               392.2274
 Red. masses --      5.2969                 6.4466                11.6766
 Frc consts  --      0.3738                 0.5598                 1.0584
 IR Inten    --      0.8892                 0.2081                 6.9691

                     13                     14                     15
                      A                      A                      A
 Frequencies --    416.4592               435.5811               446.7512
 Red. masses --      6.1897                 3.3587                 4.4292
 Frc consts  --      0.6325                 0.3755                 0.5208
 IR Inten    --      0.0003                 0.2743                 0.8820

                     16                     17                     18
                      A                      A                      A
 Frequencies --    492.5886               502.6079               525.9884
 Red. masses --     10.2889                 4.0065                 3.6409
 Frc consts  --      1.4709                 0.5963                 0.5935
 IR Inten    --      0.1839                 0.1293                 5.2378

                     19                     20                     21
                      A                      A                      A
 Frequencies --    551.0025               613.2579               643.5419
 Red. masses --      5.2955                 6.4081                 4.4372
 Frc consts  --      0.9473                 1.4199                 1.0827
 IR Inten    --      2.0267                14.1788                 0.8811

                     22                     23                     24
                      A                      A                      A
 Frequencies --    663.1753               696.3041               704.5242
 Red. masses --      6.4219                 7.0464                 2.0775
 Frc consts  --      1.6641                 2.0129                 0.6075
 IR Inten    --      3.1880                 0.4036                81.7855

                     25                     26                     27
                      A                      A                      A
 Frequencies --    737.8114               767.6042               791.9331
 Red. masses --      3.5808                 1.4232                 2.1060
 Frc consts  --      1.1485                 0.4941                 0.7782
 IR Inten    --      0.1412                 0.0612                40.2672

                     28                     29                     30
                      A                      A                      A
 Frequencies --    793.7877               817.0784               862.7861
 Red. masses --      6.0073                 3.4943                 6.2816
 Frc consts  --      2.2302                 1.3745                 2.7550
 IR Inten    --      3.3976                 3.1319                14.3323

                     31                     32                     33
                      A                      A                      A
 Frequencies --    868.5282               889.0034               931.7333
 Red. masses --      1.5636                 1.3682                 5.8336
 Frc consts  --      0.6950                 0.6371                 2.9838
 IR Inten    --      0.0228                 0.0666                 2.8148

                     34                     35                     36
                      A                      A                      A
 Frequencies --    980.4670               980.9182               983.7936
 Red. masses --      1.3104                 2.7840                 1.2833
 Frc consts  --      0.7422                 1.5783                 0.7318
 IR Inten    --      0.3900                 6.6339                 0.0210

                     37                     38                     39
                      A                      A                      A
 Frequencies --    984.5538              1032.0840              1042.4219
 Red. masses --      1.3339                 2.0634                 2.1266
 Frc consts  --      0.7618                 1.2950                 1.3615
 IR Inten    --      3.7045                29.5462                 4.5895

                     40                     41                     42
                      A                      A                      A
 Frequencies --   1054.3066              1100.0041              1110.1551
 Red. masses --      1.5311                 1.9481                 2.0808
 Frc consts  --      1.0027                 1.3888                 1.5109
 IR Inten    --      1.5943                28.2280                12.5246

                     43                     44                     45
                      A                      A                      A
 Frequencies --   1140.6866              1169.8839              1183.9324
 Red. masses --      1.4573                 1.2975                 2.3843
 Frc consts  --      1.1172                 1.0463                 1.9691
 IR Inten    --     28.9622                 4.2163                 0.2558

                     46                     47                     48
                      A                      A                      A
 Frequencies --   1203.2661              1226.2691              1242.8972
 Red. masses --      2.2494                 2.7760                 2.6122
 Frc consts  --      1.9189                 2.4594                 2.3775
 IR Inten    --      6.0617                24.8547                17.6823

                     49                     50                     51
                      A                      A                      A
 Frequencies --   1254.7988              1333.4264              1353.4509
 Red. masses --      1.9070                 4.7144                 3.3181
 Frc consts  --      1.7691                 4.9387                 3.5812
 IR Inten    --     59.2381                 9.2457                10.6624

                     52                     53                     54
                      A                      A                      A
 Frequencies --   1365.2794              1406.3511              1415.5983
 Red. masses --     10.7417                 2.9124                 1.2733
 Frc consts  --     11.7968                 3.3939                 1.5033
 IR Inten    --     11.6902               214.0614                 0.9322

                     55                     56                     57
                      A                      A                      A
 Frequencies --   1429.8263              1464.2400              1476.0320
 Red. masses --      2.2883                 1.0460                 1.7498
 Frc consts  --      2.7564                 1.3214                 2.2462
 IR Inten    --    205.2276                 4.8977                41.8338

                     58                     59                     60
                      A                      A                      A
 Frequencies --   1483.5608              1488.3084              1528.0257
 Red. masses --      2.6079                 1.6973                 4.6820
 Frc consts  --      3.3818                 2.2151                 6.4409
 IR Inten    --      2.2493                 2.7532               483.7126

                     61                     62                     63
                      A                      A                      A
 Frequencies --   1535.5709              1564.7966              1610.7076
 Red. masses --      7.3113                 5.9235                 5.8767
 Frc consts  --     10.1574                 8.5456                 8.9829
 IR Inten    --     23.7927               106.1816                 0.8498

                     64                     65                     66
                      A                      A                      A
 Frequencies --   1619.0299              1626.3860              3012.8813
 Red. masses --      7.2100                 6.1580                 1.0440
 Frc consts  --     11.1352                 9.5971                 5.5836
 IR Inten    --      0.7678                12.7280                96.5286

                     67                     68                     69
                      A                      A                      A
 Frequencies --   3086.3205              3094.0060              3128.2550
 Red. masses --      1.0922                 1.0989                 1.0850
 Frc consts  --      6.1295                 6.1981                 6.2561
 IR Inten    --     17.6278                15.2241                30.9080

                     70                     71                     72
                      A                      A                      A
 Frequencies --   3132.4372              3149.2761              3151.7932
 Red. masses --      1.0846                 1.0920                 1.0912
 Frc consts  --      6.2705                 6.3811                 6.3868
 IR Inten    --     17.8817                70.1352                48.5154

                     73                     74                     75
                      A                      A                      A
 Frequencies --   3182.5636              3185.6393              3187.9681
 Red. masses --      1.0915                 1.0924                 1.0921
 Frc consts  --      6.5135                 6.5315                 6.5393
 IR Inten    --     13.0160                32.6329                13.1997

 - Thermochemistry -
 -------------------
 Temperature   298.150 Kelvin.  Pressure   1.00000 Atm.
 Atom     1 has atomic number  6 and mass  12.00000

 Molecular mass:   222.06808 amu.
 Principal axes and moments of inertia in atomic units:
                           1         2         3
     Eigenvalues --  2047.455484447.794366484.40931
           X            0.99652   0.07799   0.02945
           Y           -0.07573   0.99456  -0.07147
           Z           -0.03486   0.06899   0.99701
 This molecule is an asymmetric top.
 Rotational symmetry number  1.
 Warning -- assumption of classical behavior for rotation
           may cause significant error
 Rotational temperatures (Kelvin)      0.04230     0.01947     0.01336
 Rotational constants (GHZ):           0.88146     0.40576     0.27832
 Zero-point vibrational energy     535920.1 (Joules/Mol)
                                  128.08799 (Kcal/Mol)
 Warning -- explicit consideration of  20 degrees of freedom as
           vibrations may cause significant error
 Vibrational temperatures:     68.48    99.90   187.06   237.65   285.80
          (Kelvin)            313.03   329.36   363.55   449.44   497.97
                              552.36   564.33   599.19   626.70   642.78
                              708.73   723.14   756.78   792.77   882.34
                              925.91   954.16  1001.83  1013.65  1061.55
                             1104.41  1139.42  1142.08  1175.59  1241.36
                             1249.62  1279.08  1340.56  1410.67  1411.32
                             1415.46  1416.55  1484.94  1499.81  1516.91
                             1582.66  1597.27  1641.19  1683.20  1703.41
                             1731.23  1764.33  1788.25  1805.38  1918.50
                             1947.31  1964.33  2023.43  2036.73  2057.20
                             2106.71  2123.68  2134.51  2141.34  2198.49
                             2209.34  2251.39  2317.45  2329.42  2340.01
                             4334.86  4440.53  4451.58  4500.86  4506.88
                             4531.11  4534.73  4579.00  4583.42  4586.78

 Zero-point correction=                           0.204121 (Hartree/Particle)
 Thermal correction to Energy=                    0.216877
 Thermal correction to Enthalpy=                  0.217821
 Thermal correction to Gibbs Free Energy=         0.164379
 Sum of electronic and zero-point Energies=           -728.136406
 Sum of electronic and thermal Energies=              -728.123651
 Sum of electronic and thermal Enthalpies=            -728.122706
 Sum of electronic and thermal Free Energies=         -728.176149

                     E (Thermal)             CV                S
                      KCal/Mol        Cal/Mol-Kelvin    Cal/Mol-Kelvin
 Total                  136.092             52.082            112.479
 Electronic               0.000              0.000              1.377
 Translational            0.889              2.981             42.096
 Rotational               0.889              2.981             32.446
 Vibrational            134.315             46.120             36.559
 Vibration     1          0.595              1.978              4.915
 Vibration     2          0.598              1.969              4.169
 Vibration     3          0.612              1.923              2.946
 Vibration     4          0.624              1.885              2.490
 Vibration     5          0.637              1.842              2.146
 Vibration     6          0.646              1.814              1.979
 Vibration     7          0.652              1.797              1.887
 Vibration     8          0.664              1.758              1.712
 Vibration     9          0.701              1.650              1.350
 Vibration    10          0.724              1.583              1.184
 Vibration    11          0.753              1.505              1.024
 Vibration    12          0.760              1.487              0.992
 Vibration    13          0.780              1.434              0.904
 Vibration    14          0.796              1.393              0.841
 Vibration    15          0.806              1.368              0.806
 Vibration    16          0.848              1.266              0.677
 Vibration    17          0.858              1.244              0.652
 Vibration    18          0.881              1.192              0.596
 Vibration    19          0.906              1.137              0.542
 Vibration    20          0.973              1.004              0.427

 Optimization completed.
    -- Stationary point found.
 Normal termination of Gaussian 16 at Wed Dec 27 21:05:43 2023.
