 Q-Chem 5.4, Q-Chem, Inc., Pleasanton, CA (2021)
 Q-Chem 5.4.0 for Intel X86 EM64T Linux

User input:
--------------------------------------------------------------
$molecule
-1 2
C                 -2.8901220000     -1.9246540000     -0.1390790000
C                 -2.3999270000     -0.4961670000     -0.0503860000
C                 -3.3553240000      0.5054540000      0.0501040000
C                 -3.0039710000      1.8659470000      0.1374690000
C                 -1.6759530000      2.2256800000      0.1236710000
C                 -0.6622990000      1.2490810000      0.0233590000
C                  0.7253490000      1.7239800000      0.0161090000
O                  1.0075950000      2.9469810000      0.0957450000
C                  1.7610900000      0.7018320000     -0.0875970000
C                  3.1210880000      1.0849900000     -0.1002880000
C                  4.1263100000      0.1445450000     -0.1971040000
C                  3.7990020000     -1.2271520000     -0.2854810000
C                  2.4760090000     -1.6217210000     -0.2747160000
C                  1.4297110000     -0.6773870000     -0.1764220000
C                  0.0420300000     -1.1566120000     -0.1698430000
O                 -0.1998940000     -2.3888050000     -0.2505040000
C                 -1.0115260000     -0.1397800000     -0.0658870000
H                 -3.9851250000     -1.9387670000     -0.1083230000
H                 -2.4993290000     -2.5368110000      0.6758450000
H                 -2.5495290000     -2.4120860000     -1.0544590000
H                 -4.4051060000      0.2249390000      0.0610750000
H                 -3.7802540000      2.6217720000      0.2149170000
H                 -1.3608200000      3.2602040000      0.1885780000
H                  3.3393300000      2.1445050000     -0.0309630000
H                  5.1668410000      0.4560730000     -0.2054730000
H                  4.5883740000     -1.9693600000     -0.3617560000
H                  2.1964470000     -2.6666800000     -0.3412110000
$end
$rem
MAX_SCF_CYCLES=200
BASIS  =  6-311++G(d,p)
GUI  =  2
JOB_TYPE  =  SP
METHOD  =  B3LYP
SOLVENT_METHOD = PCM
$end
$pcm
theory = CPCM
$end
$solvent
dielectric 37.219
opticaldielectric 1.43
$end

--------------------------------------------------------------

             Standard Nuclear Orientation (Angstroms)
    I     Atom           X                Y                Z
 ----------------------------------------------------------------
    1      C      -2.8901220000    -1.9246540000    -0.1390790000
    2      C      -2.3999270000    -0.4961670000    -0.0503860000
    3      C      -3.3553240000     0.5054540000     0.0501040000
    4      C      -3.0039710000     1.8659470000     0.1374690000
    5      C      -1.6759530000     2.2256800000     0.1236710000
    6      C      -0.6622990000     1.2490810000     0.0233590000
    7      C       0.7253490000     1.7239800000     0.0161090000
    8      O       1.0075950000     2.9469810000     0.0957450000
    9      C       1.7610900000     0.7018320000    -0.0875970000
   10      C       3.1210880000     1.0849900000    -0.1002880000
   11      C       4.1263100000     0.1445450000    -0.1971040000
   12      C       3.7990020000    -1.2271520000    -0.2854810000
   13      C       2.4760090000    -1.6217210000    -0.2747160000
   14      C       1.4297110000    -0.6773870000    -0.1764220000
   15      C       0.0420300000    -1.1566120000    -0.1698430000
   16      O      -0.1998940000    -2.3888050000    -0.2505040000
   17      C      -1.0115260000    -0.1397800000    -0.0658870000
   18      H      -3.9851250000    -1.9387670000    -0.1083230000
   19      H      -2.4993290000    -2.5368110000     0.6758450000
   20      H      -2.5495290000    -2.4120860000    -1.0544590000
   21      H      -4.4051060000     0.2249390000     0.0610750000
   22      H      -3.7802540000     2.6217720000     0.2149170000
   23      H      -1.3608200000     3.2602040000     0.1885780000
   24      H       3.3393300000     2.1445050000    -0.0309630000
   25      H       5.1668410000     0.4560730000    -0.2054730000
   26      H       4.5883740000    -1.9693600000    -0.3617560000
   27      H       2.1964470000    -2.6666800000    -0.3412110000
 ----------------------------------------------------------------

    8    -728.4184866706      6.09e-06  Convergence criterion met
 Total energy in the final basis set =     -728.4184866706

                    Orbital Energies (a.u.)
 --------------------------------------------------------------

 Alpha MOs
 -- Occupied --
-19.0753 -19.0726 -10.2252 -10.2227 -10.1825 -10.1747 -10.1714 -10.1712
-10.1709 -10.1707 -10.1704 -10.1688 -10.1686 -10.1681 -10.1646 -10.1641
-10.1518  -1.0029  -1.0003  -0.8599  -0.8501  -0.7837  -0.7677  -0.7490
 -0.7359  -0.6861  -0.6585  -0.6301  -0.6146  -0.5759  -0.5459  -0.5313
 -0.5181  -0.4709  -0.4621  -0.4564  -0.4537  -0.4268  -0.4225  -0.4165
 -0.4109  -0.4040  -0.4014  -0.3990  -0.3777  -0.3748  -0.3646  -0.3567
 -0.3434  -0.3415  -0.3371  -0.3308  -0.2666  -0.2560  -0.2474  -0.2467
 -0.2448  -0.2337  -0.1400

 Beta MOs
 -- Occupied --
-19.0701 -19.0673 -10.2234 -10.2207 -10.1825 -10.1740 -10.1708 -10.1707
-10.1702 -10.1701 -10.1697 -10.1684 -10.1683 -10.1681 -10.1640 -10.1639
-10.1518  -0.9937  -0.9909  -0.8572  -0.8489  -0.7799  -0.7661  -0.7470
 -0.7340  -0.6834  -0.6527  -0.6283  -0.6120  -0.5749  -0.5436  -0.5288
 -0.5165  -0.4679  -0.4613  -0.4546  -0.4530  -0.4221  -0.4181  -0.4134
 -0.4073  -0.4022  -0.3978  -0.3946  -0.3735  -0.3639  -0.3594  -0.3494
 -0.3425  -0.3406  -0.3294  -0.3257  -0.2506  -0.2467  -0.2417  -0.2401
 -0.2390  -0.2289

          Ground-State Mulliken Net Atomic Charges

     Atom                 Charge (a.u.)    Spin (a.u.)
  --------------------------------------------------------
      1 C                    -0.538075       0.005426
      2 C                     0.751912       0.017662
      3 C                    -0.452228       0.053889
      4 C                    -0.366581       0.035673
      5 C                    -0.053656       0.037518
      6 C                     0.407590       0.035199
      7 C                    -0.532947       0.116338
      8 O                    -0.483941       0.196706
      9 C                     0.072121       0.011754
     10 C                     0.026582       0.034136
     11 C                    -0.481801       0.027944
     12 C                    -0.492395       0.042969
     13 C                     0.117818       0.020930
     14 C                     0.036932       0.039495
     15 C                    -0.729518       0.092469
     16 O                    -0.440176       0.198602
     17 C                     0.432278       0.051920
     18 H                     0.154962      -0.000310
     19 H                     0.163064      -0.000051
     20 H                     0.163342      -0.000044
     21 H                     0.141252      -0.004291
     22 H                     0.209729      -0.002847
     23 H                     0.159768      -0.002167
     24 H                     0.168324      -0.001853
     25 H                     0.195593      -0.002498
     26 H                     0.196578      -0.003528
     27 H                     0.173473      -0.001042
  --------------------------------------------------------
  Sum of atomic charges =    -1.000000

                    Cartesian Multipole Moments
 -----------------------------------------------------------------
    Charge (ESU x 10^10)
                -4.8032
    Dipole Moment (Debye)
         X      -2.2206      Y      -2.2064      Z       0.3160
       Tot       3.1463
    Quadrupole Moments (Debye-Ang)
        XX     -97.7946     XY      -8.4322     YY    -133.9329
        XZ      -0.6594     YZ      -1.5374     ZZ    -106.4622

 Total job time:  78.85s(wall), 361.11s(cpu)
        *  Thank you very much for using Q-Chem.  Have a nice day.  *
