 Gaussian 16, Revision A.03,
 Gaussian 16:  ES64L-G16RevA.03 25-Dec-2016

 ---------------------------------------------------------
 #P UB3LYP/genecp SCRF=(PCM,Solvent=n,n-DiMethylFormamide)
 ---------------------------------------------------------

 ------------------
 Quinone PCM in DMF
 ------------------
 Symbolic Z-matrix:
 Charge =  0 Multiplicity = 1

                         Standard orientation:
 ---------------------------------------------------------------------
 Center     Atomic      Atomic             Coordinates (Angstroms)
 Number     Number       Type             X           Y           Z
 ---------------------------------------------------------------------
      1          6           0       -0.652728   -0.685024   -0.159968
      2          6           0       -2.040060   -0.103050   -0.138449
      3          6           0       -2.178199    1.229283   -0.057889
      4          6           0       -1.035037    2.155026    0.046634
      5          6           0        0.361726    1.593046    0.063834
      6          6           0        0.503412    0.255234   -0.030203
      7          8           0       -1.222284    3.358836    0.122445
      8          1           0       -3.147765    1.713055   -0.059384
      9          8           0       -0.488846   -1.882459   -0.290771
     10         53           0        2.395340   -0.669669   -0.027144
     11          6           0        1.486976    2.575399    0.183385
     12          6           0       -3.186117   -1.089575   -0.201400
     13          6           0       -3.385102   -1.759630    1.176846
     14          6           0       -4.496728   -0.476070   -0.707461
     15          1           0        1.095557    3.589060    0.245557
     16          1           0        2.156746    2.499995   -0.677990
     17          1           0        2.087944    2.365144    1.072650
     18          1           0       -2.876404   -1.875833   -0.896846
     19          1           0       -4.170426   -2.517297    1.111645
     20          1           0       -3.687005   -1.021173    1.925597
     21          1           0       -2.472665   -2.250402    1.518475
     22          1           0       -5.249499   -1.259964   -0.821207
     23          1           0       -4.368507    0.009945   -1.678141
     24          1           0       -4.900842    0.261080   -0.007114
 ---------------------------------------------------------------------

 SCF Done:  E(UB3LYP) =  -836.074104687     A.U. after   16 cycles

 The electronic state is 1-A.
 Alpha  occ. eigenvalues --  -19.14835 -19.14542 -10.29731 -10.29105 -10.24702
 Alpha  occ. eigenvalues --  -10.22935 -10.22229 -10.20606 -10.19471 -10.18000
 Alpha  occ. eigenvalues --  -10.16678 -10.16566  -6.85722  -4.88174  -4.87047
 Alpha  occ. eigenvalues --   -4.86919  -1.92990  -1.92632  -1.92536  -1.91560
 Alpha  occ. eigenvalues --   -1.91558  -1.08314  -1.07663  -0.87723  -0.83837
 Alpha  occ. eigenvalues --   -0.78240  -0.74863  -0.70289  -0.69858  -0.68966
 Alpha  occ. eigenvalues --   -0.62840  -0.60230  -0.57088  -0.54045  -0.50379
 Alpha  occ. eigenvalues --   -0.47947  -0.46943  -0.45819  -0.45689  -0.44067
 Alpha  occ. eigenvalues --   -0.43605  -0.42314  -0.41721  -0.40993  -0.40388
 Alpha  occ. eigenvalues --   -0.39067  -0.38233  -0.36603  -0.35617  -0.34624
 Alpha  occ. eigenvalues --   -0.32450  -0.30123  -0.29839  -0.28607  -0.27116
 Alpha  occ. eigenvalues --   -0.26340
 Alpha virt. eigenvalues --   -0.13770  -0.04483  -0.03339  -0.00944  -0.00637
 Alpha virt. eigenvalues --    0.00247   0.01271   0.01740   0.02611   0.03103
 Alpha virt. eigenvalues --    0.03744   0.04372   0.04531   0.05069   0.05417

  Beta  occ. eigenvalues --  -19.14835 -19.14542 -10.29731 -10.29105 -10.24702
  Beta  occ. eigenvalues --  -10.22935 -10.22229 -10.20606 -10.19471 -10.18000
  Beta  occ. eigenvalues --  -10.16678 -10.16566  -6.85722  -4.88174  -4.87047
  Beta  occ. eigenvalues --   -4.86919  -1.92990  -1.92632  -1.92536  -1.91560
  Beta  occ. eigenvalues --   -1.91558  -1.08314  -1.07663  -0.87723  -0.83837
  Beta  occ. eigenvalues --   -0.78240  -0.74863  -0.70289  -0.69858  -0.68966
  Beta  occ. eigenvalues --   -0.62840  -0.60230  -0.57088  -0.54045  -0.50379
  Beta  occ. eigenvalues --   -0.47947  -0.46943  -0.45819  -0.45689  -0.44067
  Beta  occ. eigenvalues --   -0.43605  -0.42314  -0.41721  -0.40993  -0.40388
  Beta  occ. eigenvalues --   -0.39067  -0.38233  -0.36603  -0.35617  -0.34624
  Beta  occ. eigenvalues --   -0.32450  -0.30123  -0.29839  -0.28607  -0.27116
  Beta  occ. eigenvalues --   -0.26340
  Beta virt. eigenvalues --   -0.13770  -0.04483  -0.03339  -0.00944  -0.00637
  Beta virt. eigenvalues --    0.00247   0.01271   0.01740   0.02611   0.03103
  Beta virt. eigenvalues --    0.03744   0.04372   0.04531   0.05069   0.05417

 Mulliken charges and spin densities:
               1          2
     1  C   -1.366432   0.000000
     2  C    1.121315  -0.000000
     3  C   -0.218619   0.000000
     4  C   -0.946710  -0.000000
     5  C    1.190514  -0.000000
     6  C    0.294931  -0.000000
     7  O   -0.269538  -0.000000
     8  H    0.215953  -0.000000
     9  O   -0.198943  -0.000000
    10  I   -0.059727   0.000000
    11  C   -0.344238   0.000000
    12  C    0.118483   0.000000
    13  C   -0.712157   0.000000
    14  C   -0.543082  -0.000000
    15  H    0.196378   0.000000
    16  H    0.175746  -0.000000
    17  H    0.174505  -0.000000
    18  H    0.218026  -0.000000
    19  H    0.155921  -0.000000
    20  H    0.155808  -0.000000
    21  H    0.168405  -0.000000
    22  H    0.183634  -0.000000
    23  H    0.142216   0.000000
    24  H    0.147613  -0.000000
 Sum of Mulliken charges =  -0.00000  -0.00000

 Dipole moment (field-independent basis, Debye):
    X=             -1.2701    Y=              0.0047    Z=              0.1645  Tot=              1.2807
 Quadrupole moment (field-independent basis, Debye-Ang):
   XX=            -85.8424   YY=           -114.3835   ZZ=            -98.0406
   XY=              7.4826   XZ=              0.7626   YZ=             -1.2006

 Normal termination of Gaussian 16 at Mon Jan 22 18:31:43 2024.
