 Gaussian 16, Revision A.03,
 Gaussian 16:  ES64L-G16RevA.03 25-Dec-2016

 --------------------------------------
 #P UB3LYP/6-311++G(d,p) nosym opt freq
 --------------------------------------

 -------
 Reduced
 -------
 Symbolic Z-matrix:
 Charge = -2 Multiplicity = 1

 SCF Done:  E(UB3LYP) =  -5643.24405849     A.U. after   20 cycles
 SCF Done:  E(UB3LYP) =  -5643.24405814     A.U. after   11 cycles
 SCF Done:  E(UB3LYP) =  -5643.24405881     A.U. after   12 cycles
 SCF Done:  E(UB3LYP) =  -5643.24405911     A.U. after   12 cycles
 SCF Done:  E(UB3LYP) =  -5643.24406289     A.U. after   14 cycles
 SCF Done:  E(UB3LYP) =  -5643.20135094     A.U. after   18 cycles
 SCF Done:  E(UB3LYP) =  -5643.24413840     A.U. after   15 cycles
 SCF Done:  E(UB3LYP) =  -5643.23561206     A.U. after   16 cycles
 SCF Done:  E(UB3LYP) =  -5643.24423609     A.U. after   16 cycles
 SCF Done:  E(UB3LYP) =  -5643.24432067     A.U. after   17 cycles
 SCF Done:  E(UB3LYP) =  -5643.24441827     A.U. after   14 cycles
 SCF Done:  E(UB3LYP) =  -5643.24442115     A.U. after   15 cycles
 SCF Done:  E(UB3LYP) =  -5643.24442195     A.U. after   14 cycles
 SCF Done:  E(UB3LYP) =  -5643.24442256     A.U. after   15 cycles
 SCF Done:  E(UB3LYP) =  -5643.24442293     A.U. after   14 cycles
 SCF Done:  E(UB3LYP) =  -5643.24442357     A.U. after   14 cycles
 SCF Done:  E(UB3LYP) =  -5643.24442433     A.U. after   15 cycles
 SCF Done:  E(UB3LYP) =  -5643.24442452     A.U. after   14 cycles
 SCF Done:  E(UB3LYP) =  -5643.24442461     A.U. after   14 cycles
 Optimization completed.
    -- Stationary point found.
 Normal termination of Gaussian 16 at Wed Jan 24 03:24:12 2024.

 ----------------------------------------------------------------------
 #P Geom=AllCheck Guess=TCheck SCRF=Check GenChk UB3LYP/6-311++G(d,p) F
 req
 ----------------------------------------------------------------------

 Structure from the checkpoint file:  "109-an.chk"
 -------
 Reduced
 -------
 Charge = -2 Multiplicity = 1

                          Input orientation:
 ---------------------------------------------------------------------
 Center     Atomic      Atomic             Coordinates (Angstroms)
 Number     Number       Type             X           Y           Z
 ---------------------------------------------------------------------
      1          6           0       -1.879621   -3.683453    1.302753
      2          6           0       -0.513636   -3.879983    1.063023
      3          6           0        0.346356   -2.842291    0.608917
      4          6           0       -0.102827   -1.519398    0.317722
      5          6           0       -1.521203   -1.313462    0.573723
      6          6           0       -2.323867   -2.342530    1.016194
      7          8           0       -2.778810   -4.517690    1.763776
      8          8           0        0.628168   -0.567692   -0.141522
      9          8           0       -3.674852   -2.192040    1.279390
     10          6           0       -2.076257    0.060169    0.304153
     11         35           0        0.165162   -5.658453    1.513563
     12         35           0        2.218297   -3.197253    0.184841
     13          1           0       -1.522707    0.822177    0.868830
     14          1           0       -3.136494    0.111381    0.567614
     15          1           0       -1.954859    0.335041   -0.753304
     16          1           0       -3.861104   -3.119694    1.596078
 ---------------------------------------------------------------------

 SCF Done:  E(UB3LYP) =  -5643.24442461     A.U. after    2 cycles

 Alpha  occ. eigenvalues -- -482.56233-482.55648 -62.21505 -62.20914 -56.03507
 Alpha  occ. eigenvalues --  -56.03183 -56.03151 -56.02914 -56.02593 -56.02562
 Alpha  occ. eigenvalues --  -18.86508 -18.77809 -18.76155  -9.93818  -9.93752
 Alpha  occ. eigenvalues --   -9.93090  -9.92809  -9.92671  -9.91095  -9.88756
 Alpha  occ. eigenvalues --   -8.42455  -8.41863  -6.25485  -6.24888  -6.24399
 Alpha  occ. eigenvalues --   -6.24302  -6.23810  -6.23714  -2.36599  -2.36304
 Alpha  occ. eigenvalues --   -2.36231  -2.36002  -2.35710  -2.35636  -2.35365
 Alpha  occ. eigenvalues --   -2.35364  -2.34777  -2.34777  -0.77739  -0.68106
 Alpha  occ. eigenvalues --   -0.67819  -0.56536  -0.52220  -0.51483  -0.46886
 Alpha  occ. eigenvalues --   -0.40321  -0.38795  -0.29766  -0.28798  -0.23936
 Alpha  occ. eigenvalues --   -0.20391  -0.16516  -0.16471  -0.14083  -0.13667
 Alpha  occ. eigenvalues --   -0.12955  -0.12204  -0.10619  -0.09297  -0.08205
 Alpha  occ. eigenvalues --   -0.06822  -0.06321  -0.03650  -0.03553  -0.02799
 Alpha  occ. eigenvalues --   -0.00852   0.02942   0.03421   0.05783   0.06015
 Alpha  occ. eigenvalues --    0.12911
 Alpha virt. eigenvalues --    0.18249   0.19543   0.21061   0.21191   0.22239
 Alpha virt. eigenvalues --    0.22692   0.24585   0.24757   0.25343   0.25572
 Alpha virt. eigenvalues --    0.25735   0.26409   0.27589   0.28498   0.28866

  Beta  occ. eigenvalues -- -482.56233-482.55648 -62.21505 -62.20914 -56.03507
  Beta  occ. eigenvalues --  -56.03183 -56.03151 -56.02914 -56.02593 -56.02562
  Beta  occ. eigenvalues --  -18.86508 -18.77809 -18.76155  -9.93818  -9.93752
  Beta  occ. eigenvalues --   -9.93090  -9.92809  -9.92671  -9.91095  -9.88756
  Beta  occ. eigenvalues --   -8.42455  -8.41863  -6.25485  -6.24888  -6.24399
  Beta  occ. eigenvalues --   -6.24302  -6.23810  -6.23714  -2.36599  -2.36304
  Beta  occ. eigenvalues --   -2.36231  -2.36002  -2.35710  -2.35636  -2.35365
  Beta  occ. eigenvalues --   -2.35364  -2.34777  -2.34777  -0.77739  -0.68106
  Beta  occ. eigenvalues --   -0.67819  -0.56536  -0.52220  -0.51483  -0.46886
  Beta  occ. eigenvalues --   -0.40321  -0.38795  -0.29766  -0.28798  -0.23936
  Beta  occ. eigenvalues --   -0.20391  -0.16516  -0.16471  -0.14083  -0.13667
  Beta  occ. eigenvalues --   -0.12955  -0.12204  -0.10619  -0.09297  -0.08205
  Beta  occ. eigenvalues --   -0.06822  -0.06321  -0.03650  -0.03553  -0.02799
  Beta  occ. eigenvalues --   -0.00852   0.02942   0.03421   0.05783   0.06015
  Beta  occ. eigenvalues --    0.12911
  Beta virt. eigenvalues --    0.18249   0.19543   0.21061   0.21191   0.22239
  Beta virt. eigenvalues --    0.22692   0.24585   0.24757   0.25343   0.25572
  Beta virt. eigenvalues --    0.25735   0.26409   0.27589   0.28498   0.28866

 Mulliken charges and spin densities:
               1          2
     1  C   -1.009885  -0.000000
     2  C    0.853003   0.000000
     3  C    0.058648  -0.000000
     4  C   -1.051161  -0.000000
     5  C    2.318702   0.000000
     6  C   -1.442918  -0.000000
     7  O   -0.554443   0.000000
     8  O   -0.485307   0.000000
     9  O   -0.323471   0.000000
    10  C   -0.247619   0.000000
    11  Br  -0.351290   0.000000
    12  Br  -0.375548  -0.000000
    13  H    0.121337   0.000000
    14  H    0.142952  -0.000000
    15  H    0.105489   0.000000
    16  H    0.241510   0.000000
 Sum of Mulliken charges =  -2.00000   0.00000

 Dipole moment (field-independent basis, Debye):
    X=              5.9290    Y=             27.3609    Z=             -7.6435  Tot=             29.0206
 Quadrupole moment (field-independent basis, Debye-Ang):
   XX=           -149.8042   YY=           -224.6487   ZZ=           -117.7490
   XY=            -24.5718   XZ=             16.4647   YZ=             36.0777

  Exact polarizability: 204.923 -19.939 209.542 -18.025 -29.717 122.380
 Approx polarizability: 312.884 -11.591 302.453 -32.846 -43.655 178.267

                      1                      2                      3
                      A                      A                      A
 Frequencies --     23.4818                43.1992                99.9133
 Red. masses --     12.6077                 1.0581                 5.9697
 Frc consts  --      0.0041                 0.0012                 0.0351
 IR Inten    --      1.7360                 1.2920                 7.3495

                      4                      5                      6
                      A                      A                      A
 Frequencies --    124.1839               158.9994               170.2042
 Red. masses --     55.3506                 5.4536                10.7538
 Frc consts  --      0.5029                 0.0812                 0.1835
 IR Inten    --      2.6935                 0.6425                 2.2466

                      7                      8                      9
                      A                      A                      A
 Frequencies --    174.8360               240.1441               246.8182
 Red. masses --     12.4540                10.9516                13.3583
 Frc consts  --      0.2243                 0.3721                 0.4795
 IR Inten    --      2.4945                 5.4955                 7.7509

                     10                     11                     12
                      A                      A                      A
 Frequencies --    256.4963               289.1308               316.0082
 Red. masses --     10.7472                 3.6916                 6.2955
 Frc consts  --      0.4166                 0.1818                 0.3704
 IR Inten    --      3.0499                 4.7046                 0.4290

                     13                     14                     15
                      A                      A                      A
 Frequencies --    348.1705               399.3932               493.3950
 Red. masses --      6.1649                 9.0284                12.8248
 Frc consts  --      0.4403                 0.8485                 1.8395
 IR Inten    --     13.1196                15.3716                 1.7129

                     16                     17                     18
                      A                      A                      A
 Frequencies --    504.7185               533.4437               704.2098
 Red. masses --      7.3887                 7.8282                10.8548
 Frc consts  --      1.1090                 1.3125                 3.1716
 IR Inten    --      8.9700                 7.4508                 1.8865

                     19                     20                     21
                      A                      A                      A
 Frequencies --    712.8844               719.9156               755.7873
 Red. masses --      5.9968                 7.8979                 8.5278
 Frc consts  --      1.7956                 2.4117                 2.8700
 IR Inten    --     13.4323                 0.9284                51.2978

                     22                     23                     24
                      A                      A                      A
 Frequencies --    777.2613               821.6942               946.3788
 Red. masses --     10.4007                 1.1037                 2.4216
 Frc consts  --      3.7021                 0.4390                 1.2779
 IR Inten    --    139.1552                69.2979                31.9061

                     25                     26                     27
                      A                      A                      A
 Frequencies --   1041.4847              1044.1355              1114.5481
 Red. masses --      2.3056                 2.0816                 4.2394
 Frc consts  --      1.4735                 1.3371                 3.1028
 IR Inten    --     27.0670                23.5158                43.0687

                     28                     29                     30
                      A                      A                      A
 Frequencies --   1158.1615              1218.1140              1304.4851
 Red. masses --      7.5968                 7.4140                10.4309
 Frc consts  --      6.0037                 6.4816                10.4580
 IR Inten    --    275.5349                40.9406                34.7626

                     31                     32                     33
                      A                      A                      A
 Frequencies --   1368.5074              1375.2100              1424.1679
 Red. masses --      1.7641                 1.8497                 4.2602
 Frc consts  --      1.9466                 2.0610                 5.0910
 IR Inten    --     16.5950                22.3015               656.9231

                     34                     35                     36
                      A                      A                      A
 Frequencies --   1460.7333              1464.1122              1482.6218
 Red. masses --      6.5023                 1.0714                 1.1294
 Frc consts  --      8.1744                 1.3532                 1.4627
 IR Inten    --    335.3833                 8.4239                66.6858

                     37                     38                     39
                      A                      A                      A
 Frequencies --   1541.6013              1646.8822              2970.0972
 Red. masses --      2.8363                 5.0848                 1.0437
 Frc consts  --      3.9714                 8.1255                 5.4247
 IR Inten    --     72.7511               126.2653               214.5264

                     40                     41                     42
                      A                      A                      A
 Frequencies --   2993.4267              3069.8644              3215.7374
 Red. masses --      1.0921                 1.0963                 1.0639
 Frc consts  --      5.7655                 6.0871                 6.4820
 IR Inten    --    104.9945                35.8568               228.5233

 - Thermochemistry -
 -------------------
 Temperature   298.150 Kelvin.  Pressure   1.00000 Atm.
 Atom     1 has atomic number  6 and mass  12.00000

 Molecular mass:   293.85272 amu.
 Principal axes and moments of inertia in atomic units:
                           1         2         3
     Eigenvalues --  3122.447883870.717256978.52547
           X            0.78566   0.57704   0.22309
           Y           -0.61866   0.73158   0.28645
           Z            0.00208  -0.36307   0.93176
 This molecule is an asymmetric top.
 Rotational symmetry number  1.
 Warning -- assumption of classical behavior for rotation
           may cause significant error
 Rotational temperatures (Kelvin)      0.02774     0.02238     0.01241
 Rotational constants (GHZ):           0.57799     0.46625     0.25861
 Zero-point vibrational energy     243766.4 (Joules/Mol)
                                   58.26157 (Kcal/Mol)
 Warning -- explicit consideration of  17 degrees of freedom as
           vibrations may cause significant error
 Vibrational temperatures:     33.79    62.15   143.75   178.67   228.76
          (Kelvin)            244.89   251.55   345.51   355.12   369.04
                              415.99   454.67   500.94   574.64   709.89
                              726.18   767.51  1013.20  1025.68  1035.80
                             1087.41  1118.31  1182.23  1361.63  1498.46
                             1502.28  1603.59  1666.34  1752.59  1876.86
                             1968.98  1978.62  2049.06  2101.67  2106.53
                             2133.16  2218.02  2369.50  4273.31  4306.87
                             4416.85  4626.73

 Zero-point correction=                           0.092846 (Hartree/Particle)
 Thermal correction to Energy=                    0.105106
 Thermal correction to Enthalpy=                  0.106050
 Thermal correction to Gibbs Free Energy=         0.051310
 Sum of electronic and zero-point Energies=          -5643.151579
 Sum of electronic and thermal Energies=             -5643.139319
 Sum of electronic and thermal Enthalpies=           -5643.138375
 Sum of electronic and thermal Free Energies=        -5643.193115

                     E (Thermal)             CV                S
                      KCal/Mol        Cal/Mol-Kelvin    Cal/Mol-Kelvin
 Total                   65.955             41.901            115.210
 Electronic               0.000              0.000              0.000
 Translational            0.889              2.981             42.931
 Rotational               0.889              2.981             32.800
 Vibrational             64.177             35.939             39.479
 Vibration     1          0.593              1.985              6.316
 Vibration     2          0.595              1.980              5.107
 Vibration     3          0.604              1.949              3.456
 Vibration     4          0.610              1.929              3.034
 Vibration     5          0.621              1.893              2.562
 Vibration     6          0.625              1.879              2.433
 Vibration     7          0.627              1.873              2.383
 Vibration     8          0.657              1.779              1.802
 Vibration     9          0.661              1.768              1.753
 Vibration    10          0.666              1.752              1.685
 Vibration    11          0.686              1.694              1.479
 Vibration    12          0.703              1.643              1.331
 Vibration    13          0.726              1.579              1.174
 Vibration    14          0.765              1.471              0.965
 Vibration    15          0.849              1.265              0.675
 Vibration    16          0.860              1.240              0.646
 Vibration    17          0.888              1.176              0.580

 Optimization completed.
    -- Stationary point found.
 Normal termination of Gaussian 16 at Wed Jan 24 03:32:03 2024.
