 Q-Chem 5.4, Q-Chem, Inc., Pleasanton, CA (2021)
 Q-Chem 5.4.0 for Intel X86 EM64T Linux

User input:
--------------------------------------------------------------
$molecule
-2 1
C                 -1.8796210000     -3.6834530000      1.3027530000
C                 -0.5136360000     -3.8799830000      1.0630230000
C                  0.3463560000     -2.8422910000      0.6089170000
C                 -0.1028270000     -1.5193980000      0.3177220000
C                 -1.5212030000     -1.3134620000      0.5737230000
C                 -2.3238670000     -2.3425300000      1.0161940000
O                 -2.7788100000     -4.5176900000      1.7637760000
O                  0.6281680000     -0.5676920000     -0.1415220000
O                 -3.6748520000     -2.1920400000      1.2793900000
C                 -2.0762570000      0.0601690000      0.3041530000
Br                 0.1651620000     -5.6584530000      1.5135630000
Br                 2.2182970000     -3.1972530000      0.1848410000
H                 -1.5227070000      0.8221770000      0.8688300000
H                 -3.1364940000      0.1113810000      0.5676140000
H                 -1.9548590000      0.3350410000     -0.7533040000
H                 -3.8611040000     -3.1196940000      1.5960780000
$end
$rem
MAX_SCF_CYCLES=200
BASIS  =  6-311++G(d,p)
GUI  =  2
JOB_TYPE  =  SP
METHOD  =  B3LYP
SOLVENT_METHOD = PCM
$end
$pcm
theory = CPCM
$end
$solvent
dielectric 37.219
opticaldielectric 1.43
$end

--------------------------------------------------------------

             Standard Nuclear Orientation (Angstroms)
    I     Atom           X                Y                Z
 ----------------------------------------------------------------
    1      C      -1.8796210000    -3.6834530000     1.3027530000
    2      C      -0.5136360000    -3.8799830000     1.0630230000
    3      C       0.3463560000    -2.8422910000     0.6089170000
    4      C      -0.1028270000    -1.5193980000     0.3177220000
    5      C      -1.5212030000    -1.3134620000     0.5737230000
    6      C      -2.3238670000    -2.3425300000     1.0161940000
    7      O      -2.7788100000    -4.5176900000     1.7637760000
    8      O       0.6281680000    -0.5676920000    -0.1415220000
    9      O      -3.6748520000    -2.1920400000     1.2793900000
   10      C      -2.0762570000     0.0601690000     0.3041530000
   11      Br      0.1651620000    -5.6584530000     1.5135630000
   12      Br      2.2182970000    -3.1972530000     0.1848410000
   13      H      -1.5227070000     0.8221770000     0.8688300000
   14      H      -3.1364940000     0.1113810000     0.5676140000
   15      H      -1.9548590000     0.3350410000    -0.7533040000
   16      H      -3.8611040000    -3.1196940000     1.5960780000
 ----------------------------------------------------------------

    9   -5643.5146433822      5.61e-06  Convergence criterion met
 Total energy in the final basis set =    -5643.5146433822

                    Orbital Energies (a.u.)
 --------------------------------------------------------------

 Alpha MOs
 -- Occupied --
********-482.8073 -62.4640 -62.4601 -56.2842 -56.2808 -56.2805 -56.2803
-56.2769 -56.2767 -19.1176 -19.0436 -19.0300 -10.1944 -10.1931 -10.1920
-10.1883 -10.1847 -10.1444 -10.1420  -8.6726  -8.6687  -6.5032  -6.4993
 -6.4917  -6.4910  -6.4879  -6.4872  -2.6143  -2.6110  -2.6106  -2.6104
 -2.6072  -2.6066  -2.6014  -2.6014  -2.5977  -2.5976  -1.0317  -0.9494
 -0.9437  -0.8223  -0.7741  -0.7671  -0.7169  -0.6581  -0.6401  -0.5531
 -0.5416  -0.4974  -0.4580  -0.4182  -0.4125  -0.3943  -0.3809  -0.3784
 -0.3747  -0.3709  -0.3514  -0.3377  -0.3236  -0.3224  -0.2937  -0.2880
 -0.2819  -0.2616  -0.2342  -0.2318  -0.2102  -0.1961  -0.1359

          Ground-State Mulliken Net Atomic Charges

     Atom                 Charge (a.u.)
  ----------------------------------------
      1 C                    -0.751431
      2 C                     0.826153
      3 C                    -0.018160
      4 C                    -0.819767
      5 C                     1.874561
      6 C                    -1.485713
      7 O                    -0.676475
      8 O                    -0.640709
      9 O                    -0.359048
     10 C                    -0.174235
     11 Br                   -0.255871
     12 Br                   -0.288211
     13 H                     0.156109
     14 H                     0.166327
     15 H                     0.154714
     16 H                     0.291756
  ----------------------------------------
  Sum of atomic charges =    -2.000000

                    Cartesian Multipole Moments
 -----------------------------------------------------------------
    Charge (ESU x 10^10)
                -9.6064
    Dipole Moment (Debye)
         X       6.3795      Y      26.9358      Z      -7.6430
       Tot      28.7168
    Quadrupole Moments (Debye-Ang)
        XX    -143.8310     XY     -32.2340     YY    -215.2450
        XZ      17.4164     YZ      35.3909     ZZ    -116.1013

 Total job time:  61.09s(wall), 150.58s(cpu)
        *  Thank you very much for using Q-Chem.  Have a nice day.  *
