 Gaussian 16, Revision A.03,
 Gaussian 16:  ES64L-G16RevA.03 25-Dec-2016

 ----------------------------------------------------------------------
 #P UB3LYP/6-311++G(d,p) nosym opt freq SCRF=(PCM,Solvent=n,n-DiMethylF
 ormamide)
 ----------------------------------------------------------------------

 --------
 Oxidized
 --------
 Symbolic Z-matrix:
 Charge =  0 Multiplicity = 1

 SCF Done:  E(UB3LYP) =  -571.752161034     A.U. after   13 cycles
 SCF Done:  E(UB3LYP) =  -571.752194108     A.U. after    9 cycles
 SCF Done:  E(UB3LYP) =  -571.752197511     A.U. after    8 cycles
 Optimization completed.
    -- Stationary point found.
 Normal termination of Gaussian 16 at Sun Feb 11 15:10:35 2024.

 ----------------------------------------------------------------------
 #P Geom=AllCheck Guess=TCheck SCRF=Check GenChk UB3LYP/6-311++G(d,p) F
 req
 ----------------------------------------------------------------------

 Structure from the checkpoint file:  "349.chk"
 --------
 Oxidized
 --------
 Charge =  0 Multiplicity = 1

                          Input orientation:
 ---------------------------------------------------------------------
 Center     Atomic      Atomic             Coordinates (Angstroms)
 Number     Number       Type             X           Y           Z
 ---------------------------------------------------------------------
      1          6           0       -3.553581    0.204075    0.857188
      2          6           0       -3.582991   -0.179060   -0.517576
      3          6           0       -2.423416   -0.371132   -1.216349
      4          6           0       -1.160294   -0.189785   -0.575686
      5          7           0       -0.029223   -0.380278   -1.268766
      6          6           0        1.130477   -0.197807   -0.622573
      7          6           0        2.365152   -0.387875   -1.314277
      8          6           0        3.553564   -0.204083   -0.663445
      9          6           0        3.582978    0.179067    0.711368
     10          6           0        2.423444    0.371137    1.410133
     11          6           0        1.160257    0.189792    0.769480
     12          7           0        0.029264    0.380279    1.462534
     13          6           0       -1.130513    0.197802    0.816321
     14          6           0       -2.365128    0.387870    1.508029
     15          1           0       -4.489170    0.349097    1.384549
     16          1           0       -4.540328   -0.317423   -1.006284
     17          1           0       -2.427834   -0.662100   -2.260207
     18          1           0        2.324903   -0.678601   -2.357442
     19          1           0        4.489183   -0.349091   -1.190757
     20          1           0        4.540342    0.317415    1.200027
     21          1           0        2.427831    0.662105    2.453992
     22          1           0       -2.324920    0.678596    2.551193
 ---------------------------------------------------------------------

 SCF Done:  E(UB3LYP) =  -571.752197511     A.U. after    1 cycles

 Alpha  occ. eigenvalues --  -14.33894 -14.33891 -10.23390 -10.23389 -10.23351
 Alpha  occ. eigenvalues --  -10.23351 -10.19583 -10.19583 -10.19540 -10.19540
 Alpha  occ. eigenvalues --  -10.19181 -10.19181 -10.19180 -10.19180  -0.99806
 Alpha  occ. eigenvalues --   -0.92957  -0.87887  -0.84885  -0.78113  -0.77039
 Alpha  occ. eigenvalues --   -0.75195  -0.69446  -0.66058  -0.62682  -0.61181
 Alpha  occ. eigenvalues --   -0.57449  -0.56902  -0.51385  -0.50357  -0.48852
 Alpha  occ. eigenvalues --   -0.47952  -0.45610  -0.45230  -0.44715  -0.44499
 Alpha  occ. eigenvalues --   -0.40309  -0.38767  -0.38753  -0.37244  -0.36986
 Alpha  occ. eigenvalues --   -0.36729  -0.33868  -0.32720  -0.28195  -0.26769
 Alpha  occ. eigenvalues --   -0.26657  -0.24048
 Alpha virt. eigenvalues --   -0.10865  -0.04419  -0.02340  -0.00954  -0.00469
 Alpha virt. eigenvalues --    0.00135   0.00886   0.01954   0.02155   0.02900
 Alpha virt. eigenvalues --    0.03628   0.04193   0.04292   0.04877   0.06128

  Beta  occ. eigenvalues --  -14.33894 -14.33891 -10.23390 -10.23389 -10.23351
  Beta  occ. eigenvalues --  -10.23351 -10.19583 -10.19583 -10.19540 -10.19540
  Beta  occ. eigenvalues --  -10.19181 -10.19181 -10.19180 -10.19180  -0.99806
  Beta  occ. eigenvalues --   -0.92957  -0.87887  -0.84885  -0.78113  -0.77039
  Beta  occ. eigenvalues --   -0.75195  -0.69446  -0.66058  -0.62682  -0.61181
  Beta  occ. eigenvalues --   -0.57449  -0.56902  -0.51385  -0.50357  -0.48852
  Beta  occ. eigenvalues --   -0.47952  -0.45610  -0.45230  -0.44715  -0.44499
  Beta  occ. eigenvalues --   -0.40309  -0.38767  -0.38753  -0.37244  -0.36986
  Beta  occ. eigenvalues --   -0.36729  -0.33868  -0.32720  -0.28195  -0.26769
  Beta  occ. eigenvalues --   -0.26657  -0.24048
  Beta virt. eigenvalues --   -0.10865  -0.04419  -0.02340  -0.00954  -0.00469
  Beta virt. eigenvalues --    0.00135   0.00886   0.01954   0.02155   0.02900
  Beta virt. eigenvalues --    0.03628   0.04193   0.04292   0.04877   0.06128

 Mulliken charges and spin densities:
               1          2
     1  C   -0.295435   0.000000
     2  C   -0.295479  -0.000000
     3  C   -0.166929   0.000000
     4  C    0.045754  -0.000000
     5  N    0.009111  -0.000000
     6  C    0.045530   0.000000
     7  C   -0.166923  -0.000000
     8  C   -0.295417   0.000000
     9  C   -0.295460  -0.000000
    10  C   -0.166958   0.000000
    11  C    0.045714  -0.000000
    12  N    0.009112   0.000000
    13  C    0.045559   0.000000
    14  C   -0.166895  -0.000000
    15  H    0.206135   0.000000
    16  H    0.206131   0.000000
    17  H    0.206039  -0.000000
    18  H    0.206048  -0.000000
    19  H    0.206140   0.000000
    20  H    0.206136  -0.000000
    21  H    0.206037   0.000000
    22  H    0.206050  -0.000000
 Sum of Mulliken charges =  -0.00000  -0.00000

 Dipole moment (field-independent basis, Debye):
    X=              0.0003    Y=             -0.0000    Z=             -0.0000  Tot=              0.0003
 Quadrupole moment (field-independent basis, Debye-Ang):
   XX=            -55.0684   YY=            -84.9928   ZZ=            -80.8565
   XY=             -0.0793   XZ=             -0.5236   YZ=              1.2516

  Exact polarizability: 407.185  -0.409 112.698  -3.866  30.272 213.042
 Approx polarizability: 470.262  -0.339 133.267  -3.950  41.316 270.141

                      1                      2                      3
                      A                      A                      A
 Frequencies --     95.4858               108.4159               240.7643
 Red. masses --      5.2493                 3.7708                 4.6942
 Frc consts  --      0.0282                 0.0261                 0.1603
 IR Inten    --      5.7843                 0.0003                 0.0000

                      4                      5                      6
                      A                      A                      A
 Frequencies --    246.0703               276.5320               398.8712
 Red. masses --      4.6614                 5.0972                 4.1989
 Frc consts  --      0.1663                 0.2297                 0.3936
 IR Inten    --     10.5304                 0.0000                10.5655

                      7                      8                      9
                      A                      A                      A
 Frequencies --    416.4796               451.7940               491.9540
 Red. masses --      6.6140                 5.0449                 4.5846
 Frc consts  --      0.6759                 0.6067                 0.6537
 IR Inten    --      0.0000                 0.0000                 0.0005

                     10                     11                     12
                      A                      A                      A
 Frequencies --    493.7986               497.2693               536.9134
 Red. masses --      3.4233                 2.6997                 8.4501
 Frc consts  --      0.4918                 0.3933                 1.4352
 IR Inten    --      0.0000                 0.0000                 0.0000

                     13                     14                     15
                      A                      A                      A
 Frequencies --    591.8709               607.6336               626.0079
 Red. masses --      3.7264                 7.1515                 8.6491
 Frc consts  --      0.7691                 1.5557                 1.9970
 IR Inten    --      0.0000                42.5390                 0.0000

                     16                     17                     18
                      A                      A                      A
 Frequencies --    663.9546               740.9653               742.2090
 Red. masses --      6.2938                 4.3030                 6.7478
 Frc consts  --      1.6347                 1.3919                 2.1901
 IR Inten    --      6.8061                 0.0008                 0.0000

                     19                     20                     21
                      A                      A                      A
 Frequencies --    764.5919               781.9298               807.1136
 Red. masses --      1.2875                 1.3768                 2.6977
 Frc consts  --      0.4435                 0.4960                 1.0354
 IR Inten    --    274.2301                 0.0000                 0.0000

                     22                     23                     24
                      A                      A                      A
 Frequencies --    833.5549               867.9680               878.1519
 Red. masses --      5.7214                 1.4729                 2.0062
 Frc consts  --      2.3422                 0.6538                 0.9115
 IR Inten    --     30.3254                 0.0001                 0.0000

                     25                     26                     27
                      A                      A                      A
 Frequencies --    913.6003               936.7932               986.4380
 Red. masses --      5.9870                 6.7594                 1.3154
 Frc consts  --      2.9442                 3.4950                 0.7541
 IR Inten    --      2.7999                 0.0000                 2.1687

                     28                     29                     30
                      A                      A                      A
 Frequencies --    988.0099              1006.9317              1008.3825
 Red. masses --      1.3317                 1.2995                 1.3058
 Frc consts  --      0.7659                 0.7763                 0.7823
 IR Inten    --      0.0001                 0.0000                 0.0032

                     31                     32                     33
                      A                      A                      A
 Frequencies --   1018.2490              1019.8332              1140.1711
 Red. masses --      2.1367                 2.2779                 1.6828
 Frc consts  --      1.3053                 1.3959                 1.2889
 IR Inten    --     21.8998                 0.0090                 0.0000

                     34                     35                     36
                      A                      A                      A
 Frequencies --   1147.5384              1159.3409              1175.8477
 Red. masses --      1.4821                 1.2938                 1.0667
 Frc consts  --      1.1499                 1.0246                 0.8689
 IR Inten    --     31.9674                24.8991                 0.0000

                     37                     38                     39
                      A                      A                      A
 Frequencies --   1226.0928              1242.7354              1289.4866
 Red. masses --      1.6706                 2.9956                 2.3747
 Frc consts  --      1.4796                 2.7258                 2.3264
 IR Inten    --      0.0000                 1.8108                 2.4978

                     40                     41                     42
                      A                      A                      A
 Frequencies --   1306.0829              1336.6210              1369.9604
 Red. masses --      2.9383                 2.6938                 4.3699
 Frc consts  --      2.9532                 2.8356                 4.8321
 IR Inten    --      0.0001                 0.3502                86.5582

                     43                     44                     45
                      A                      A                      A
 Frequencies --   1413.2437              1422.2793              1462.7685
 Red. masses --      1.7428                11.5396                 2.4787
 Frc consts  --      2.0508                13.7534                 3.1249
 IR Inten    --      0.0000                 0.0000                15.5921

                     46                     47                     48
                      A                      A                      A
 Frequencies --   1504.3309              1507.2725              1551.7737
 Red. masses --      3.1814                 2.8038                 6.0490
 Frc consts  --      4.2419                 3.7530                 8.5821
 IR Inten    --     19.5427                 0.0000                97.7509

                     49                     50                     51
                      A                      A                      A
 Frequencies --   1563.6112              1585.5506              1639.8351
 Red. masses --      9.6067                 7.3584                 5.1926
 Frc consts  --     13.8383                10.8992                 8.2268
 IR Inten    --      0.0000                 0.0000                 0.0000

                     52                     53                     54
                      A                      A                      A
 Frequencies --   1668.3251              3174.6963              3174.8002
 Red. masses --      6.0688                 1.0866                 1.0866
 Frc consts  --      9.9521                 6.4522                 6.4526
 IR Inten    --      0.3408                 1.2902                 0.0020

                     55                     56                     57
                      A                      A                      A
 Frequencies --   3182.2991              3182.5352              3191.6564
 Red. masses --      1.0883                 1.0884                 1.0951
 Frc consts  --      6.4934                 6.4953                 6.5727
 IR Inten    --      1.9485                 0.0017                 0.1029

                     58                     59                     60
                      A                      A                      A
 Frequencies --   3191.7749              3198.2700              3198.8578
 Red. masses --      1.0952                 1.0982                 1.0982
 Frc consts  --      6.5738                 6.6187                 6.6211
 IR Inten    --     45.9047                64.2816                 0.0029

 - Thermochemistry -
 -------------------
 Temperature   298.150 Kelvin.  Pressure   1.00000 Atm.
 Atom     1 has atomic number  6 and mass  12.00000

 Molecular mass:   180.06875 amu.
 Principal axes and moments of inertia in atomic units:
                           1         2         3
     Eigenvalues --   832.808483766.367894599.17636
           X            0.99978   0.02063  -0.00211
           Y           -0.00350   0.26829   0.96333
           Z           -0.02044   0.96312  -0.26831
 This molecule is an asymmetric top.
 Rotational symmetry number  1.
 Warning -- assumption of classical behavior for rotation
           may cause significant error
 Rotational temperatures (Kelvin)      0.10400     0.02300     0.01883
 Rotational constants (GHZ):           2.16705     0.47917     0.39241
 Zero-point vibrational energy     444091.5 (Joules/Mol)
                                  106.14041 (Kcal/Mol)
 Warning -- explicit consideration of  14 degrees of freedom as
           vibrations may cause significant error
 Vibrational temperatures:    137.38   155.99   346.41   354.04   397.87
          (Kelvin)            573.89   599.22   650.03   707.81   710.47
                              715.46   772.50   851.57   874.25   900.69
                              955.28  1066.08  1067.87  1100.08  1125.02
                             1161.26  1199.30  1248.81  1263.46  1314.47
                             1347.84  1419.26  1421.53  1448.75  1450.84
                             1465.03  1467.31  1640.45  1651.05  1668.03
                             1691.78  1764.07  1788.02  1855.28  1879.16
                             1923.10  1971.07  2033.34  2046.34  2104.60
                             2164.40  2168.63  2232.66  2249.69  2281.25
                             2359.36  2400.35  4567.68  4567.83  4578.62
                             4578.96  4592.08  4592.25  4601.60  4602.44

 Zero-point correction=                           0.169146 (Hartree/Particle)
 Thermal correction to Energy=                    0.178369
 Thermal correction to Enthalpy=                  0.179314
 Thermal correction to Gibbs Free Energy=         0.134491
 Sum of electronic and zero-point Energies=           -571.583052
 Sum of electronic and thermal Energies=              -571.573828
 Sum of electronic and thermal Enthalpies=            -571.572884
 Sum of electronic and thermal Free Energies=         -571.617707

                     E (Thermal)             CV                S
                      KCal/Mol        Cal/Mol-Kelvin    Cal/Mol-Kelvin
 Total                  111.928             39.211             94.338
 Electronic               0.000              0.000              0.000
 Translational            0.889              2.981             41.471
 Rotational               0.889              2.981             31.046
 Vibrational            110.151             33.249             21.821
 Vibration     1          0.603              1.952              3.544
 Vibration     2          0.606              1.942              3.297
 Vibration     3          0.658              1.778              1.797
 Vibration     4          0.661              1.769              1.759
 Vibration     5          0.678              1.717              1.555
 Vibration     6          0.765              1.473              0.967
 Vibration     7          0.780              1.434              0.904
 Vibration     8          0.810              1.357              0.790
 Vibration     9          0.848              1.268              0.679
 Vibration    10          0.849              1.264              0.674
 Vibration    11          0.853              1.256              0.665
 Vibration    12          0.892              1.168              0.572
 Vibration    13          0.949              1.049              0.464
 Vibration    14          0.966              1.016              0.437

 Optimization completed.
    -- Stationary point found.
 Normal termination of Gaussian 16 at Sun Feb 11 15:40:56 2024.
