 Gaussian 16, Revision A.03,
 Gaussian 16:  ES64L-G16RevA.03 25-Dec-2016

 --------------------------------------
 #P UB3LYP/6-311++G(d,p) nosym opt freq
 --------------------------------------

 -------
 Radical
 -------
 Symbolic Z-matrix:
 Charge = -1 Multiplicity = 2

 SCF Done:  E(UB3LYP) =  -853.481487699     A.U. after   20 cycles
 SCF Done:  E(UB3LYP) =  -853.501998512     A.U. after   16 cycles
 SCF Done:  E(UB3LYP) =  -853.502258834     A.U. after   15 cycles
 SCF Done:  E(UB3LYP) =  -853.510376770     A.U. after   15 cycles
 SCF Done:  E(UB3LYP) =  -853.513917063     A.U. after   16 cycles
 SCF Done:  E(UB3LYP) =  -853.518282773     A.U. after   17 cycles
 SCF Done:  E(UB3LYP) =  -853.520055221     A.U. after   17 cycles
 SCF Done:  E(UB3LYP) =  -853.520665823     A.U. after   16 cycles
 SCF Done:  E(UB3LYP) =  -853.521832183     A.U. after   15 cycles
 SCF Done:  E(UB3LYP) =  -853.521793338     A.U. after   14 cycles
 SCF Done:  E(UB3LYP) =  -853.522144512     A.U. after   15 cycles
 SCF Done:  E(UB3LYP) =  -853.522340108     A.U. after   14 cycles
 SCF Done:  E(UB3LYP) =  -853.522356074     A.U. after   14 cycles
 SCF Done:  E(UB3LYP) =  -853.522365955     A.U. after   13 cycles
 SCF Done:  E(UB3LYP) =  -853.522368651     A.U. after   12 cycles
 SCF Done:  E(UB3LYP) =  -853.522369185     A.U. after   10 cycles
 SCF Done:  E(UB3LYP) =  -853.522369251     A.U. after   10 cycles
 SCF Done:  E(UB3LYP) =  -853.522369344     A.U. after    9 cycles
 SCF Done:  E(UB3LYP) =  -853.522369451     A.U. after   10 cycles
 Optimization completed.
    -- Stationary point found.
 Normal termination of Gaussian 16 at Mon Dec 18 02:36:31 2023.

 ----------------------------------------------------------------------
 #P Geom=AllCheck Guess=TCheck SCRF=Check GenChk UB3LYP/6-311++G(d,p) F
 req
 ----------------------------------------------------------------------

 Structure from the checkpoint file:  "054-rad.chk"
 -------
 Radical
 -------
 Charge = -1 Multiplicity = 2

                          Input orientation:
 ---------------------------------------------------------------------
 Center     Atomic      Atomic             Coordinates (Angstroms)
 Number     Number       Type             X           Y           Z
 ---------------------------------------------------------------------
      1          6           0       -0.568028    2.089049   -0.087611
      2          6           0       -1.804193    1.301313   -0.065137
      3          6           0       -1.749866   -0.078414    0.000219
      4          6           0       -0.465166   -0.770888    0.047179
      5          6           0        0.766492    0.013147    0.023421
      6          6           0        0.721516    1.393296   -0.040802
      7          8           0       -0.613700    3.356839   -0.147086
      8          8           0       -0.419620   -2.039656    0.107570
      9          6           0        1.931958    2.331890   -0.071375
     10          6           0        2.776266    2.327889    1.219094
     11          6           0        2.798708    2.213360   -1.341353
     12          6           0        2.081464   -0.766302    0.072341
     13          6           0        2.256336   -1.559707    1.384088
     14          6           0        2.280189   -1.678552   -1.156174
     15          6           0       -3.078957    2.149277   -0.120465
     16          6           0       -3.942714    2.086633    1.155538
     17          6           0       -3.912807    1.965023   -1.404517
     18          6           0       -3.005439   -0.951262    0.026099
     19          6           0       -3.115199   -1.874394   -1.205418
     20          6           0       -3.145732   -1.756761    1.334689
     21          1           0        1.475611    3.322547   -0.119721
     22          1           0        3.512470    3.141192    1.190020
     23          1           0        3.323175    1.395040    1.380075
     24          1           0        2.135601    2.490122    2.090597
     25          1           0        3.343845    1.268250   -1.410838
     26          1           0        3.538021    3.023861   -1.370193
     27          1           0        2.173927    2.301098   -2.234792
     28          1           0        2.891724   -0.040100    0.045753
     29          1           0        2.176448   -0.896953    2.251697
     30          1           0        3.245860   -2.034006    1.412269
     31          1           0        1.491077   -2.331383    1.467571
     32          1           0        1.516092   -2.455454   -1.181793
     33          1           0        3.269701   -2.152425   -1.121300
     34          1           0        2.217260   -1.099748   -2.083226
     35          1           0       -2.695036    3.170388   -0.164449
     36          1           0       -4.737485    2.842006    1.110124
     37          1           0       -3.330994    2.299908    2.036785
     38          1           0       -4.420294    1.115683    1.311876
     39          1           0       -4.706373    2.721653   -1.450253
     40          1           0       -4.389388    0.983886   -1.478376
     41          1           0       -3.280281    2.092646   -2.287636
     42          1           0       -3.865683   -0.285745   -0.014880
     43          1           0       -4.068481   -2.418338   -1.188871
     44          1           0       -2.296693   -2.594131   -1.216108
     45          1           0       -3.076578   -1.291781   -2.131403
     46          1           0       -4.098745   -2.301351    1.345156
     47          1           0       -3.129570   -1.091076    2.203588
     48          1           0       -2.328379   -2.471280    1.432030
 ---------------------------------------------------------------------

 SCF Done:  E(UB3LYP) =  -853.522369451     A.U. after    1 cycles

 Alpha  occ. eigenvalues --  -18.93842 -18.93383 -10.08333 -10.08174 -10.05362
 Alpha  occ. eigenvalues --  -10.05361 -10.04930 -10.04930 -10.04850 -10.04849
 Alpha  occ. eigenvalues --  -10.04847 -10.04846 -10.03835 -10.03832 -10.03768
 Alpha  occ. eigenvalues --  -10.03767 -10.03661 -10.03661 -10.03661 -10.03660
 Alpha  occ. eigenvalues --   -0.86262  -0.85863  -0.70985  -0.69796  -0.66877
 Alpha  occ. eigenvalues --   -0.66625  -0.64282  -0.59100  -0.57469  -0.57461
 Alpha  occ. eigenvalues --   -0.56310  -0.56276  -0.54368  -0.51229  -0.48371
 Alpha  occ. eigenvalues --   -0.45846  -0.44324  -0.41681  -0.40139  -0.36769
 Alpha  occ. eigenvalues --   -0.34937  -0.33667  -0.32839  -0.32423  -0.31621
 Alpha  occ. eigenvalues --   -0.31418  -0.30967  -0.30704  -0.29888  -0.29530
 Alpha  occ. eigenvalues --   -0.29374  -0.29232  -0.28020  -0.27568  -0.27436
 Alpha  occ. eigenvalues --   -0.27025  -0.26851  -0.26338  -0.25223  -0.23342
 Alpha  occ. eigenvalues --   -0.23252  -0.23200  -0.22527  -0.22447  -0.22295
 Alpha  occ. eigenvalues --   -0.22078  -0.21915  -0.21347  -0.21061  -0.20055
 Alpha  occ. eigenvalues --   -0.18856  -0.18819  -0.13628  -0.10954  -0.10528
 Alpha  occ. eigenvalues --   -0.09106  -0.02259
 Alpha virt. eigenvalues --    0.07696   0.07958   0.08972   0.09296   0.09373
 Alpha virt. eigenvalues --    0.09904   0.10712   0.11065   0.11077   0.11640
 Alpha virt. eigenvalues --    0.12164   0.12394   0.12497   0.12733   0.13196

  Beta  occ. eigenvalues --  -18.93142 -18.92702 -10.08194 -10.08026 -10.05370
  Beta  occ. eigenvalues --  -10.05369 -10.04940 -10.04940 -10.04843 -10.04842
  Beta  occ. eigenvalues --  -10.04840 -10.04840 -10.03724 -10.03722 -10.03659
  Beta  occ. eigenvalues --  -10.03658 -10.03655 -10.03655 -10.03655 -10.03654
  Beta  occ. eigenvalues --   -0.85067  -0.84658  -0.70609  -0.69701  -0.66835
  Beta  occ. eigenvalues --   -0.66539  -0.63999  -0.58919  -0.57453  -0.57446
  Beta  occ. eigenvalues --   -0.56290  -0.56259  -0.53544  -0.51050  -0.48217
  Beta  occ. eigenvalues --   -0.45581  -0.44281  -0.41510  -0.39812  -0.36634
  Beta  occ. eigenvalues --   -0.34846  -0.33473  -0.32821  -0.32346  -0.31606
  Beta  occ. eigenvalues --   -0.31405  -0.30634  -0.30544  -0.29833  -0.29402
  Beta  occ. eigenvalues --   -0.29263  -0.29192  -0.27745  -0.27420  -0.27235
  Beta  occ. eigenvalues --   -0.26861  -0.26330  -0.26190  -0.24317  -0.23207
  Beta  occ. eigenvalues --   -0.23178  -0.22627  -0.22472  -0.22265  -0.21973
  Beta  occ. eigenvalues --   -0.21862  -0.21446  -0.20972  -0.19940  -0.19499
  Beta  occ. eigenvalues --   -0.18715  -0.18701  -0.10474  -0.10219  -0.09906
  Beta  occ. eigenvalues --   -0.08530
  Beta virt. eigenvalues --    0.04860   0.07697   0.07957   0.08974   0.09315
  Beta virt. eigenvalues --    0.09373   0.09919   0.10717   0.11090   0.11335
  Beta virt. eigenvalues --    0.11641   0.12162   0.12404   0.12496   0.12747

 Mulliken charges and spin densities:
               1          2
     1  C   -1.465796   0.089678
     2  C    0.693819   0.072465
     3  C    0.390274   0.083442
     4  C   -0.619471   0.105130
     5  C    0.390599   0.083443
     6  C    0.693576   0.072522
     7  O   -0.321360   0.258019
     8  O   -0.326986   0.252113
     9  C    0.152526  -0.005799
    10  C   -0.755155   0.003412
    11  C   -0.753959   0.003481
    12  C    0.719344  -0.028446
    13  C   -0.776928   0.011746
    14  C   -0.776236   0.011682
    15  C    0.152260  -0.005793
    16  C   -0.754432   0.003449
    17  C   -0.754689   0.003439
    18  C    0.719881  -0.028432
    19  C   -0.776553   0.011682
    20  C   -0.776480   0.011738
    21  H    0.228228  -0.003560
    22  H    0.118867   0.000293
    23  H    0.143177   0.000251
    24  H    0.149490   0.000107
    25  H    0.143320   0.000250
    26  H    0.118645   0.000308
    27  H    0.149703   0.000095
    28  H    0.084666  -0.001372
    29  H    0.113373  -0.000048
    30  H    0.119687   0.000335
    31  H    0.185545  -0.000719
    32  H    0.185390  -0.000709
    33  H    0.119743   0.000328
    34  H    0.113102  -0.000046
    35  H    0.228244  -0.003561
    36  H    0.118735   0.000304
    37  H    0.149651   0.000097
    38  H    0.143217   0.000252
    39  H    0.118786   0.000297
    40  H    0.143303   0.000248
    41  H    0.149495   0.000107
    42  H    0.084628  -0.001371
    43  H    0.119730   0.000328
    44  H    0.185367  -0.000702
    45  H    0.113272  -0.000049
    46  H    0.119755   0.000331
    47  H    0.113222  -0.000045
    48  H    0.185426  -0.000718
 Sum of Mulliken charges =  -1.00000   1.00000

 Dipole moment (field-independent basis, Debye):
    X=              2.4580    Y=             -2.5100    Z=              0.0668  Tot=              3.5137
 Quadrupole moment (field-independent basis, Debye-Ang):
   XX=           -151.9423   YY=           -169.7638   ZZ=           -137.1367
   XY=              1.9179   XZ=             -0.2132   YZ=              1.5098

  Exact polarizability: 279.586   0.269 273.253   1.007  -3.955 188.709
 Approx polarizability: 354.108  -3.736 458.813   1.026  -8.522 277.699

                      1                      2                      3
                      A                      A                      A
 Frequencies --     36.2988                40.2554                66.8082
 Red. masses --      3.1626                 3.4820                 4.0616
 Frc consts  --      0.0025                 0.0033                 0.0107
 IR Inten    --      0.0030                 2.8361                 1.8197

                      4                      5                      6
                      A                      A                      A
 Frequencies --     73.0330                85.2367                98.3680
 Red. masses --      2.4628                 3.4863                 3.0803
 Frc consts  --      0.0077                 0.0149                 0.0176
 IR Inten    --      0.0043                 0.1826                 2.4578

                      7                      8                      9
                      A                      A                      A
 Frequencies --    110.3116               158.2109               172.0688
 Red. masses --      2.6666                 2.8687                 1.9910
 Frc consts  --      0.0191                 0.0423                 0.0347
 IR Inten    --      0.0048                 1.4303                 0.0603

                     10                     11                     12
                      A                      A                      A
 Frequencies --    175.6786               183.0236               183.4357
 Red. masses --      2.0634                 2.5078                 2.2694
 Frc consts  --      0.0375                 0.0495                 0.0450
 IR Inten    --      1.6990                 0.3980                 1.0994

                     13                     14                     15
                      A                      A                      A
 Frequencies --    206.2716               206.9817               207.8250
 Red. masses --      1.1846                 1.1771                 1.1778
 Frc consts  --      0.0297                 0.0297                 0.0300
 IR Inten    --      0.0889                 0.0276                 0.4157

                     16                     17                     18
                      A                      A                      A
 Frequencies --    209.3777               225.2976               225.4817
 Red. masses --      1.2220                 1.4369                 1.2490
 Frc consts  --      0.0316                 0.0430                 0.0374
 IR Inten    --      0.6425                 0.1329                 0.0335

                     19                     20                     21
                      A                      A                      A
 Frequencies --    229.3471               234.4230               236.7357
 Red. masses --      1.4165                 1.1400                 1.5581
 Frc consts  --      0.0439                 0.0369                 0.0514
 IR Inten    --      0.9075                 1.0207                 0.2603

                     22                     23                     24
                      A                      A                      A
 Frequencies --    247.6479               266.7356               268.3591
 Red. masses --      2.1299                 3.1730                 3.4752
 Frc consts  --      0.0770                 0.1330                 0.1475
 IR Inten    --      0.0201                 0.0526                 0.9719

                     25                     26                     27
                      A                      A                      A
 Frequencies --    295.2514               302.3926               321.8041
 Red. masses --      2.7078                 3.8580                 2.8997
 Frc consts  --      0.1391                 0.2079                 0.1769
 IR Inten    --      2.8128                 1.1167                 2.9008

                     28                     29                     30
                      A                      A                      A
 Frequencies --    393.1525               422.0994               434.9597
 Red. masses --      4.5324                 2.5307                 5.4644
 Frc consts  --      0.4128                 0.2657                 0.6091
 IR Inten    --      0.5584                 0.3235                19.1091

                     31                     32                     33
                      A                      A                      A
 Frequencies --    443.1002               448.3143               461.4445
 Red. masses --      3.0028                 2.5618                 3.4156
 Frc consts  --      0.3474                 0.3034                 0.4285
 IR Inten    --      1.2538                 2.0553                12.1444

                     34                     35                     36
                      A                      A                      A
 Frequencies --    496.5925               506.2279               519.5573
 Red. masses --      5.6056                 6.6482                 5.2369
 Frc consts  --      0.8145                 1.0038                 0.8329
 IR Inten    --      1.2196                 0.0018                 0.0002

                     37                     38                     39
                      A                      A                      A
 Frequencies --    527.3728               557.7826               595.1853
 Red. masses --      2.9086                 3.0997                 2.9622
 Frc consts  --      0.4766                 0.5682                 0.6182
 IR Inten    --      0.2780                 0.0023                 8.7175

                     40                     41                     42
                      A                      A                      A
 Frequencies --    683.8411               725.1708               754.8942
 Red. masses --      6.8376                 6.0698                 9.1181
 Frc consts  --      1.8839                 1.8806                 3.0614
 IR Inten    --      0.0000                 3.2276                 9.4081

                     43                     44                     45
                      A                      A                      A
 Frequencies --    798.0178               824.0016               830.9708
 Red. masses --      2.8284                 9.0771                 3.1859
 Frc consts  --      1.0613                 3.6312                 1.2961
 IR Inten    --     18.6311                 0.0478                 0.4709

                     46                     47                     48
                      A                      A                      A
 Frequencies --    856.5035               869.8135               918.3872
 Red. masses --      3.1062                 2.8904                 2.3852
 Frc consts  --      1.3426                 1.2884                 1.1853
 IR Inten    --      2.3378                11.1777                 3.9890

                     49                     50                     51
                      A                      A                      A
 Frequencies --    922.9859               923.4871               931.9673
 Red. masses --      1.1748                 1.1768                 1.2443
 Frc consts  --      0.5897                 0.5913                 0.6367
 IR Inten    --      0.2710                 2.2816                 0.0054

                     52                     53                     54
                      A                      A                      A
 Frequencies --    932.1793               945.4154               957.7640
 Red. masses --      1.2450                 2.5565                 1.5061
 Frc consts  --      0.6374                 1.3463                 0.8140
 IR Inten    --      0.3875                18.6676                 0.0080

                     55                     56                     57
                      A                      A                      A
 Frequencies --    957.8788               962.4199               962.7656
 Red. masses --      1.5065                 1.4168                 1.4196
 Frc consts  --      0.8144                 0.7732                 0.7753
 IR Inten    --      0.5275                 0.0095                 0.0536

                     58                     59                     60
                      A                      A                      A
 Frequencies --    969.2086              1023.8820              1091.5322
 Red. masses --      2.3977                 2.2237                 2.0757
 Frc consts  --      1.3270                 1.3735                 1.4571
 IR Inten    --      0.4469                22.3767                49.9849

                     61                     62                     63
                      A                      A                      A
 Frequencies --   1100.4530              1118.1112              1119.1219
 Red. masses --      1.9611                 2.6084                 2.6127
 Frc consts  --      1.3993                 1.9213                 1.9279
 IR Inten    --      6.1399                 0.1223                14.3251

                     64                     65                     66
                      A                      A                      A
 Frequencies --   1121.7521              1122.6566              1130.3619
 Red. masses --      2.5991                 2.5824                 1.8605
 Frc consts  --      1.9270                 1.9177                 1.4006
 IR Inten    --      1.9892                 0.0034                 6.2530

                     67                     68                     69
                      A                      A                      A
 Frequencies --   1130.9089              1172.0915              1191.7988
 Red. masses --      1.7697                 2.7386                 2.0606
 Frc consts  --      1.3336                 2.2167                 1.7244
 IR Inten    --     40.5516                 7.1624                 0.2076

                     70                     71                     72
                      A                      A                      A
 Frequencies --   1194.3079              1199.9951              1201.7985
 Red. masses --      2.2796                 2.1879                 2.4310
 Frc consts  --      1.9158                 1.8562                 2.0687
 IR Inten    --     11.7923                 0.0579                 9.5008

                     73                     74                     75
                      A                      A                      A
 Frequencies --   1270.7089              1349.2487              1353.0876
 Red. masses --      3.7244                 1.8675                 1.4885
 Frc consts  --      3.5432                 2.0030                 1.6056
 IR Inten    --     10.7670                 0.1437                28.0806

                     76                     77                     78
                      A                      A                      A
 Frequencies --   1355.4275              1356.2666              1357.0597
 Red. masses --      1.2709                 1.2507                 1.4105
 Frc consts  --      1.3757                 1.3555                 1.5305
 IR Inten    --      1.3115                 0.5331                 6.6292

                     79                     80                     81
                      A                      A                      A
 Frequencies --   1369.8459              1370.3288              1384.5381
 Red. masses --      1.2229                 1.2227                 1.4393
 Frc consts  --      1.3520                 1.3528                 1.6256
 IR Inten    --      2.4046                15.4442                 0.4028

                     82                     83                     84
                      A                      A                      A
 Frequencies --   1388.4097              1389.8256              1392.1253
 Red. masses --      1.2772                 1.2178                 1.2062
 Frc consts  --      1.4506                 1.3859                 1.3773
 IR Inten    --     79.5276                 5.7376                 3.6770

                     85                     86                     87
                      A                      A                      A
 Frequencies --   1392.6302              1397.0023              1397.1529
 Red. masses --      1.2048                 1.2270                 1.2268
 Frc consts  --      1.3767                 1.4108                 1.4109
 IR Inten    --     18.1920                 3.2729                 0.0206

                     88                     89                     90
                      A                      A                      A
 Frequencies --   1403.8066              1410.0135              1443.2453
 Red. masses --      1.3007                 1.2395                 2.7870
 Frc consts  --      1.5102                 1.4520                 3.4204
 IR Inten    --      5.5971                11.3118                 0.0233

                     91                     92                     93
                      A                      A                      A
 Frequencies --   1473.8846              1475.6952              1476.0783
 Red. masses --      1.9544                 1.0422                 1.0416
 Frc consts  --      2.5015                 1.3372                 1.3372
 IR Inten    --    153.6213                 0.3763                 0.3508

                     94                     95                     96
                      A                      A                      A
 Frequencies --   1488.6691              1488.7218              1489.1116
 Red. masses --      1.2124                 3.0267                 1.0426
 Frc consts  --      1.5831                 3.9523                 1.3621
 IR Inten    --     30.5849               144.3105                 0.5561

                     97                     98                     99
                      A                      A                      A
 Frequencies --   1489.9436              1493.5306              1493.7928
 Red. masses --      1.0528                 1.0530                 1.0526
 Frc consts  --      1.3771                 1.3839                 1.3839
 IR Inten    --      2.1569                 0.3269                 1.2074

                    100                    101                    102
                      A                      A                      A
 Frequencies --   1498.6603              1499.4595              1505.0596
 Red. masses --      1.0637                 1.0746                 1.6285
 Frc consts  --      1.4077                 1.4235                 2.1734
 IR Inten    --      0.0500                 0.0200                32.0965

                    103                    104                    105
                      A                      A                      A
 Frequencies --   1506.6474              1507.1785              1508.3173
 Red. masses --      1.0532                 1.1031                 1.0777
 Frc consts  --      1.4086                 1.4763                 1.4446
 IR Inten    --      0.2260                13.9000                 0.1297

                    106                    107                    108
                      A                      A                      A
 Frequencies --   1508.4163              1516.9709              1524.9919
 Red. masses --      1.0507                 2.1201                 1.4271
 Frc consts  --      1.4086                 2.8745                 1.9555
 IR Inten    --      1.6847                55.3672                 8.3003

                    109                    110                    111
                      A                      A                      A
 Frequencies --   1525.7813              1613.5409              2992.1414
 Red. masses --      1.1212                 7.5949                 1.0451
 Frc consts  --      1.5378                11.6502                 5.5127
 IR Inten    --      6.6443                 0.0012                 0.8542

                    112                    113                    114
                      A                      A                      A
 Frequencies --   2992.2793              2996.5672              2996.6534
 Red. masses --      1.0452                 1.0435                 1.0436
 Frc consts  --      5.5138                 5.5207                 5.5213
 IR Inten    --     80.4308                16.6762                58.5893

                    115                    116                    117
                      A                      A                      A
 Frequencies --   2997.8678              2998.7826              3002.1340
 Red. masses --      1.0451                 1.0450                 1.0434
 Frc consts  --      5.5339                 5.5368                 5.5406
 IR Inten    --    219.3812               158.0283               244.6974

                    118                    119                    120
                      A                      A                      A
 Frequencies --   3003.3891              3044.3657              3045.1821
 Red. masses --      1.0432                 1.0862                 1.0861
 Frc consts  --      5.5442                 5.9314                 5.9342
 IR Inten    --     36.7960                10.5123                42.3610

                    121                    122                    123
                      A                      A                      A
 Frequencies --   3053.2914              3053.6812              3056.3005
 Red. masses --      1.0936                 1.0934                 1.0936
 Frc consts  --      6.0066                 6.0073                 6.0188
 IR Inten    --      0.1357                45.7801                42.6650

                    124                    125                    126
                      A                      A                      A
 Frequencies --   3056.6583              3058.2147              3058.4611
 Red. masses --      1.0937                 1.0901                 1.0900
 Frc consts  --      6.0205                 6.0069                 6.0076
 IR Inten    --     65.7701                 2.9212                70.5518

                    127                    128                    129
                      A                      A                      A
 Frequencies --   3066.8652              3067.4609              3082.4117
 Red. masses --      1.0909                 1.0912                 1.1016
 Frc consts  --      6.0453                 6.0496                 6.1668
 IR Inten    --    123.9778                38.0501                 1.7975

                    130                    131                    132
                      A                      A                      A
 Frequencies --   3082.5945              3086.2661              3086.7349
 Red. masses --      1.1016                 1.0933                 1.0931
 Frc consts  --      6.1676                 6.1354                 6.1362
 IR Inten    --     18.4344                 1.5820                50.3502

                    133                    134                    135
                      A                      A                      A
 Frequencies --   3100.0483              3100.4173              3116.2915
 Red. masses --      1.0872                 1.0869                 1.0971
 Frc consts  --      6.1558                 6.1557                 6.2773
 IR Inten    --     29.8585                33.1860                 0.0014

                    136                    137                    138
                      A                      A                      A
 Frequencies --   3116.5559              3126.0839              3126.5593
 Red. masses --      1.0970                 1.0936                 1.0936
 Frc consts  --      6.2779                 6.2967                 6.2984
 IR Inten    --      0.0078                38.9362                23.7873

 - Thermochemistry -
 -------------------
 Temperature   298.150 Kelvin.  Pressure   1.00000 Atm.
 Atom     1 has atomic number  6 and mass  12.00000

 Molecular mass:   276.20893 amu.
 Principal axes and moments of inertia in atomic units:
                           1         2         3
     Eigenvalues --  4095.132666376.787918883.68451
           X            0.99929  -0.03593  -0.01112
           Y            0.03642   0.99825   0.04666
           Z            0.00943  -0.04703   0.99885
 This molecule is an asymmetric top.
 Rotational symmetry number  1.
 Warning -- assumption of classical behavior for rotation
           may cause significant error
 Rotational temperatures (Kelvin)      0.02115     0.01358     0.00975
 Rotational constants (GHZ):           0.44070     0.28302     0.20315
 Zero-point vibrational energy    1100255.3 (Joules/Mol)
                                  262.96734 (Kcal/Mol)
 Warning -- explicit consideration of  39 degrees of freedom as
           vibrations may cause significant error
 Vibrational temperatures:     52.23    57.92    96.12   105.08   122.64
          (Kelvin)            141.53   158.71   227.63   247.57   252.76
                              263.33   263.92   296.78   297.80   299.01
                              301.25   324.15   324.42   329.98   337.28
                              340.61   356.31   383.77   386.11   424.80
                              435.08   463.00   565.66   607.31   625.81
                              637.52   645.02   663.92   714.49   728.35
                              747.53   758.77   802.52   856.34   983.89
                             1043.36  1086.12  1148.17  1185.55  1195.58
                             1232.32  1251.47  1321.35  1327.97  1328.69
                             1340.89  1341.20  1360.24  1378.01  1378.17
                             1384.71  1385.20  1394.47  1473.14  1570.47
                             1583.31  1608.71  1610.17  1613.95  1615.25
                             1626.34  1627.13  1686.38  1714.73  1718.34
                             1726.53  1729.12  1828.27  1941.27  1946.79
                             1950.16  1951.37  1952.51  1970.90  1971.60
                             1992.04  1997.61  1999.65  2002.96  2003.68
                             2009.97  2010.19  2019.76  2028.69  2076.51
                             2120.59  2123.20  2123.75  2141.86  2141.94
                             2142.50  2143.70  2148.86  2149.23  2156.24
                             2157.39  2165.45  2167.73  2168.49  2170.13
                             2170.27  2182.58  2194.12  2195.26  2321.53
                             4305.02  4305.22  4311.39  4311.52  4313.26
                             4314.58  4319.40  4321.21  4380.16  4381.34
                             4393.01  4393.57  4397.33  4397.85  4400.09
                             4400.44  4412.54  4413.39  4434.90  4435.17
                             4440.45  4441.12  4460.28  4460.81  4483.65
                             4484.03  4497.74  4498.42

 Zero-point correction=                           0.419065 (Hartree/Particle)
 Thermal correction to Energy=                    0.442447
 Thermal correction to Enthalpy=                  0.443391
 Thermal correction to Gibbs Free Energy=         0.367763
 Sum of electronic and zero-point Energies=           -853.103304
 Sum of electronic and thermal Energies=              -853.079923
 Sum of electronic and thermal Enthalpies=            -853.078978
 Sum of electronic and thermal Free Energies=         -853.154606

                     E (Thermal)             CV                S
                      KCal/Mol        Cal/Mol-Kelvin    Cal/Mol-Kelvin
 Total                  277.640             88.327            159.172
 Electronic               0.000              0.000              1.377
 Translational            0.889              2.981             42.746
 Rotational               0.889              2.981             33.805
 Vibrational            275.862             82.365             81.243
 Vibration     1          0.594              1.982              5.451
 Vibration     2          0.594              1.981              5.246
 Vibration     3          0.598              1.970              4.245
 Vibration     4          0.599              1.967              4.070
 Vibration     5          0.601              1.959              3.767
 Vibration     6          0.604              1.950              3.486
 Vibration     7          0.606              1.941              3.263
 Vibration     8          0.621              1.893              2.571
 Vibration     9          0.626              1.877              2.413
 Vibration    10          0.628              1.872              2.374
 Vibration    11          0.631              1.863              2.297
 Vibration    12          0.631              1.862              2.293
 Vibration    13          0.641              1.831              2.076
 Vibration    14          0.641              1.830              2.070
 Vibration    15          0.641              1.829              2.063
 Vibration    16          0.642              1.826              2.049
 Vibration    17          0.650              1.803              1.916
 Vibration    18          0.650              1.802              1.915
 Vibration    19          0.652              1.796              1.884
 Vibration    20          0.654              1.788              1.845
 Vibration    21          0.656              1.784              1.827
 Vibration    22          0.661              1.767              1.747
 Vibration    23          0.672              1.734              1.617
 Vibration    24          0.673              1.731              1.607
 Vibration    25          0.689              1.683              1.444
 Vibration    26          0.694              1.669              1.404
 Vibration    27          0.707              1.632              1.301
 Vibration    28          0.760              1.485              0.988
 Vibration    29          0.784              1.422              0.885
 Vibration    30          0.796              1.394              0.843
 Vibration    31          0.803              1.376              0.817
 Vibration    32          0.807              1.365              0.801
 Vibration    33          0.819              1.336              0.762
 Vibration    34          0.852              1.258              0.667
 Vibration    35          0.861              1.236              0.643
 Vibration    36          0.875              1.207              0.611
 Vibration    37          0.882              1.189              0.593
 Vibration    38          0.913              1.123              0.528
 Vibration    39          0.953              1.042              0.458

                           ! Non-Optimized Parameters !
 Normal termination of Gaussian 16 at Mon Dec 18 07:36:16 2023.
