 Gaussian 16, Revision A.03,
 Gaussian 16:  ES64L-G16RevA.03 25-Dec-2016

 ----------------------------------------------------------------------
 #P UB3LYP/6-311++G(d,p) nosym opt freq SCRF=(PCM,Solvent=n,n-DiMethylF
 ormamide)
 ----------------------------------------------------------------------

 -------
 Radical
 -------
 Symbolic Z-matrix:
 Charge = -1 Multiplicity = 2

 SCF Done:  E(UB3LYP) =  -1144.99514815     A.U. after   18 cycles
 SCF Done:  E(UB3LYP) =  -1144.99617272     A.U. after   13 cycles
 SCF Done:  E(UB3LYP) =  -1144.99604361     A.U. after   13 cycles
 SCF Done:  E(UB3LYP) =  -1144.99629386     A.U. after   14 cycles
 SCF Done:  E(UB3LYP) =  -1144.99654548     A.U. after   14 cycles
 SCF Done:  E(UB3LYP) =  -1144.99663884     A.U. after   13 cycles
 SCF Done:  E(UB3LYP) =  -1144.99667745     A.U. after   13 cycles
 SCF Done:  E(UB3LYP) =  -1144.99669711     A.U. after   13 cycles
 SCF Done:  E(UB3LYP) =  -1144.99670235     A.U. after   10 cycles
 SCF Done:  E(UB3LYP) =  -1144.99670317     A.U. after   10 cycles
 SCF Done:  E(UB3LYP) =  -1144.99670471     A.U. after   12 cycles
 SCF Done:  E(UB3LYP) =  -1144.99670503     A.U. after    9 cycles
 SCF Done:  E(UB3LYP) =  -1144.99670519     A.U. after    9 cycles
 SCF Done:  E(UB3LYP) =  -1144.99670535     A.U. after    8 cycles
 SCF Done:  E(UB3LYP) =  -1144.99670578     A.U. after    9 cycles
 SCF Done:  E(UB3LYP) =  -1144.99670617     A.U. after    8 cycles
 SCF Done:  E(UB3LYP) =  -1144.99670652     A.U. after    9 cycles
 SCF Done:  E(UB3LYP) =  -1144.99670684     A.U. after    8 cycles
 SCF Done:  E(UB3LYP) =  -1144.99670709     A.U. after    9 cycles
 Optimization completed.
    -- Stationary point found.
 Normal termination of Gaussian 16 at Sat Feb 10 17:45:52 2024.

 ----------------------------------------------------------------------
 #P Geom=AllCheck Guess=TCheck SCRF=Check GenChk UB3LYP/6-311++G(d,p) F
 req
 ----------------------------------------------------------------------

 Structure from the checkpoint file:  "147-rad.chk"
 -------
 Radical
 -------
 Charge = -1 Multiplicity = 2

                          Input orientation:
 ---------------------------------------------------------------------
 Center     Atomic      Atomic             Coordinates (Angstroms)
 Number     Number       Type             X           Y           Z
 ---------------------------------------------------------------------
      1          6           0       -2.812707    3.979657    0.631266
      2          6           0       -4.094735    3.496562    0.787196
      3          6           0       -4.311879    2.111000    0.686494
      4          6           0       -1.722762    3.115885    0.377782
      5          6           0       -1.964834    1.714354    0.284076
      6          6           0       -3.284243    1.234134    0.444520
      7          6           0       -0.382839    3.675387    0.222852
      8          6           0        0.694531    2.722156   -0.031658
      9          6           0        0.452457    1.320626   -0.125374
     10          6           0       -0.887466    0.761124    0.029566
     11          6           0        2.013936    3.202382   -0.192115
     12          6           0        3.041563    2.325517   -0.434130
     13          6           0        2.824419    0.939959   -0.534843
     14          6           0        1.542396    0.456856   -0.378887
     15          8           0       -0.164682    4.915738    0.304308
     16          8           0       -1.105598   -0.479242   -0.051739
     17          1           0       -3.469890    0.169725    0.377604
     18          1           0        1.345340   -0.605436   -0.451965
     19          1           0       -2.615650    5.041949    0.704340
     20          1           0        2.199573    4.266792   -0.125191
     21          1           0        3.656598    0.275827   -0.735558
     22          8           0       -5.603048    1.603677    0.921658
     23          8           0        4.332749    2.832791   -0.669326
     24          6           0        5.241114    2.814998    0.346678
     25          6           0        6.557589    3.375003   -0.110433
     26          8           0        4.988997    2.401350    1.452400
     27          1           0       -4.926910    4.160708    0.987879
     28          1           0        6.420248    4.396100   -0.472625
     29          1           0        6.943738    2.780193   -0.941123
     30          1           0        7.267633    3.365777    0.713335
     31          6           0       -6.511595    1.622018   -0.094175
     32          6           0       -7.828129    1.062213    0.363007
     33          8           0       -6.259662    2.036216   -1.199733
     34          1           0       -7.691007    0.040902    0.724677
     35          1           0       -8.538382    1.072044   -0.460575
     36          1           0       -8.213883    1.656745    1.194080
 ---------------------------------------------------------------------

 SCF Done:  E(UB3LYP) =  -1144.99670709     A.U. after    1 cycles

 Alpha  occ. eigenvalues --  -19.18302 -19.18302 -19.12797 -19.12797 -19.07983
 Alpha  occ. eigenvalues --  -19.07982 -10.32019 -10.32019 -10.24094 -10.24093
 Alpha  occ. eigenvalues --  -10.22907 -10.22906 -10.18274 -10.18274 -10.18223
 Alpha  occ. eigenvalues --  -10.18222 -10.18221 -10.18221 -10.17988 -10.17988
 Alpha  occ. eigenvalues --  -10.17920 -10.17920 -10.17892 -10.17892  -1.12413
 Alpha  occ. eigenvalues --   -1.12413  -1.04092  -1.04092  -1.00520  -1.00249
 Alpha  occ. eigenvalues --   -0.87168  -0.86291  -0.80230  -0.78031  -0.76947
 Alpha  occ. eigenvalues --   -0.76123  -0.75052  -0.73637  -0.68065  -0.66484
 Alpha  occ. eigenvalues --   -0.64297  -0.62538  -0.60008  -0.58082  -0.56037
 Alpha  occ. eigenvalues --   -0.54209  -0.51350  -0.50606  -0.50164  -0.50083
 Alpha  occ. eigenvalues --   -0.49518  -0.48968  -0.47815  -0.47486  -0.46299
 Alpha  occ. eigenvalues --   -0.44803  -0.43855  -0.43381  -0.42939  -0.42790
 Alpha  occ. eigenvalues --   -0.42071  -0.41980  -0.41829  -0.41251  -0.40883
 Alpha  occ. eigenvalues --   -0.39377  -0.39150  -0.39080  -0.38383  -0.37178
 Alpha  occ. eigenvalues --   -0.36781  -0.36360  -0.34983  -0.34082  -0.32712
 Alpha  occ. eigenvalues --   -0.32688  -0.29849  -0.29841  -0.27210  -0.26508
 Alpha  occ. eigenvalues --   -0.26305  -0.25179  -0.25084  -0.24275  -0.14783
 Alpha virt. eigenvalues --   -0.06078  -0.02742  -0.01544  -0.01198  -0.00835
 Alpha virt. eigenvalues --   -0.00571  -0.00263   0.00835   0.01138   0.02192
 Alpha virt. eigenvalues --    0.02538   0.03263   0.03462   0.03825   0.03958

  Beta  occ. eigenvalues --  -19.18299 -19.18299 -19.12797 -19.12797 -19.07415
  Beta  occ. eigenvalues --  -19.07414 -10.32014 -10.32014 -10.24040 -10.24040
  Beta  occ. eigenvalues --  -10.22735 -10.22734 -10.18274 -10.18274 -10.18179
  Beta  occ. eigenvalues --  -10.18179 -10.18133 -10.18132 -10.17984 -10.17984
  Beta  occ. eigenvalues --  -10.17888 -10.17888 -10.17853 -10.17853  -1.12399
  Beta  occ. eigenvalues --   -1.12399  -1.04084  -1.04084  -0.99534  -0.99236
  Beta  occ. eigenvalues --   -0.86914  -0.86184  -0.79905  -0.77960  -0.76817
  Beta  occ. eigenvalues --   -0.75880  -0.74966  -0.73508  -0.67411  -0.66362
  Beta  occ. eigenvalues --   -0.64128  -0.62363  -0.59917  -0.57956  -0.55744
  Beta  occ. eigenvalues --   -0.54044  -0.51293  -0.50591  -0.50111  -0.50009
  Beta  occ. eigenvalues --   -0.49445  -0.48930  -0.47561  -0.47405  -0.46238
  Beta  occ. eigenvalues --   -0.44726  -0.43806  -0.43338  -0.42601  -0.42291
  Beta  occ. eigenvalues --   -0.42033  -0.41757  -0.41281  -0.40759  -0.40715
  Beta  occ. eigenvalues --   -0.39199  -0.39115  -0.39045  -0.36947  -0.36733
  Beta  occ. eigenvalues --   -0.36203  -0.35977  -0.34802  -0.33162  -0.32643
  Beta  occ. eigenvalues --   -0.32455  -0.29829  -0.29828  -0.26265  -0.25371
  Beta  occ. eigenvalues --   -0.24966  -0.24628  -0.24560  -0.23746
  Beta virt. eigenvalues --   -0.08820  -0.05159  -0.01749  -0.01461  -0.01135
  Beta virt. eigenvalues --   -0.00691  -0.00555  -0.00264   0.00851   0.01144
  Beta virt. eigenvalues --    0.02194   0.02547   0.03383   0.03545   0.03825

 Mulliken charges and spin densities:
               1          2
     1  C    0.185965   0.026401
     2  C    0.267055   0.036080
     3  C   -0.986018   0.037118
     4  C    0.173991   0.027959
     5  C    0.493205   0.049441
     6  C    0.118029   0.021324
     7  C   -0.735666   0.096521
     8  C    0.493367   0.049454
     9  C    0.174234   0.027962
    10  C   -0.735700   0.096518
    11  C    0.118128   0.021331
    12  C   -0.986259   0.037113
    13  C    0.267358   0.036080
    14  C    0.185903   0.026406
    15  O   -0.446670   0.211074
    16  O   -0.446669   0.211074
    17  H    0.185435  -0.001636
    18  H    0.182370  -0.001273
    19  H    0.182361  -0.001273
    20  H    0.185431  -0.001636
    21  H    0.212094  -0.003029
    22  O   -0.004215   0.000099
    23  O   -0.004193   0.000097
    24  C    0.122992   0.000218
    25  C   -0.536278   0.000497
    26  O   -0.286755  -0.000818
    27  H    0.212097  -0.003029
    28  H    0.188606   0.000052
    29  H    0.189137  -0.000004
    30  H    0.176479  -0.000032
    31  C    0.122985   0.000218
    32  C   -0.536258   0.000498
    33  O   -0.286768  -0.000820
    34  H    0.188605   0.000052
    35  H    0.176479  -0.000032
    36  H    0.189141  -0.000004
 Sum of Mulliken charges =  -1.00000   1.00000

 Dipole moment (field-independent basis, Debye):
    X=              3.0509    Y=            -10.6554    Z=             -0.6068  Tot=             11.1002
 Quadrupole moment (field-independent basis, Debye-Ang):
   XX=           -120.7237   YY=           -188.7203   ZZ=           -153.6180
   XY=             10.6674   XZ=            -26.5281   YZ=             -1.1761

  Exact polarizability: 548.463   3.841 390.086 -39.067  14.558 207.027
 Approx polarizability: 536.099   6.698 468.562 -45.664  13.447 249.062

                      1                      2                      3
                      A                      A                      A
 Frequencies --     22.4422                29.2471                31.3011
 Red. masses --      6.5662                 6.6556                 3.4920
 Frc consts  --      0.0019                 0.0034                 0.0020
 IR Inten    --      7.4063                 0.8811                 0.0001

                      4                      5                      6
                      A                      A                      A
 Frequencies --     36.4878                39.2063                61.6833
 Red. masses --      1.2934                 1.5385                 7.1091
 Frc consts  --      0.0010                 0.0014                 0.0159
 IR Inten    --      7.4030                 0.0003                 0.0000

                      7                      8                      9
                      A                      A                      A
 Frequencies --     73.0073                75.5121                81.9938
 Red. masses --      5.0856                 2.6395                 2.4733
 Frc consts  --      0.0160                 0.0089                 0.0098
 IR Inten    --      5.7452                10.5121                 0.0000

                     10                     11                     12
                      A                      A                      A
 Frequencies --    122.7282               139.8999               160.1041
 Red. masses --      4.8518                 6.2291                10.0718
 Frc consts  --      0.0431                 0.0718                 0.1521
 IR Inten    --      3.2074                 0.0000                16.2524

                     13                     14                     15
                      A                      A                      A
 Frequencies --    182.9220               196.5473               232.6137
 Red. masses --      7.3312                 7.1576                 5.8490
 Frc consts  --      0.1445                 0.1629                 0.1865
 IR Inten    --      4.7032                 0.0000                 0.0000

                     16                     17                     18
                      A                      A                      A
 Frequencies --    263.3131               295.6043               310.0235
 Red. masses --      7.3254                 5.7652                 5.1779
 Frc consts  --      0.2992                 0.2968                 0.2932
 IR Inten    --      0.0000                 2.4664                12.3372

                     19                     20                     21
                      A                      A                      A
 Frequencies --    333.8993               391.3942               397.2020
 Red. masses --      5.8781                 6.8844                 8.1000
 Frc consts  --      0.3861                 0.6214                 0.7529
 IR Inten    --      0.0000                42.7031                 0.0000

                     22                     23                     24
                      A                      A                      A
 Frequencies --    408.6625               414.1193               428.8367
 Red. masses --      4.5721                 5.7716                 3.3947
 Frc consts  --      0.4499                 0.5832                 0.3678
 IR Inten    --      0.0000                26.1944                 7.1051

                     25                     26                     27
                      A                      A                      A
 Frequencies --    461.5359               472.3409               483.9584
 Red. masses --      3.1881                 5.4859                 7.6344
 Frc consts  --      0.4001                 0.7211                 1.0535
 IR Inten    --      0.0000                 0.0000                 0.0000

                     28                     29                     30
                      A                      A                      A
 Frequencies --    493.5513               544.8378               558.7118
 Red. masses --     10.2175                 4.7174                 4.5597
 Frc consts  --      1.4664                 0.8251                 0.8386
 IR Inten    --      0.0000                31.1080                40.8620

                     31                     32                     33
                      A                      A                      A
 Frequencies --    600.6312               602.4473               608.0590
 Red. masses --      3.9104                 2.8615                 3.4323
 Frc consts  --      0.8312                 0.6119                 0.7477
 IR Inten    --      0.0000                25.6337                 0.0000

                     34                     35                     36
                      A                      A                      A
 Frequencies --    646.5473               657.0128               670.6840
 Red. masses --      4.8811                 6.3325                 5.3144
 Frc consts  --      1.2022                 1.6105                 1.4084
 IR Inten    --      0.0000                16.8603                19.2805

                     37                     38                     39
                      A                      A                      A
 Frequencies --    697.2124               708.5034               713.9844
 Red. masses --      6.2337                 5.1417                 4.4207
 Frc consts  --      1.7853                 1.5207                 1.3278
 IR Inten    --      0.0000                 0.0000                30.7818

                     40                     41                     42
                      A                      A                      A
 Frequencies --    721.0192               765.3829               783.2027
 Red. masses --      5.3364                 6.0634                 3.0829
 Frc consts  --      1.6345                 2.0928                 1.1142
 IR Inten    --     19.5435                16.1455                 0.0000

                     43                     44                     45
                      A                      A                      A
 Frequencies --    803.5770               832.2283               840.9615
 Red. masses --      4.1592                 1.6495                 2.1224
 Frc consts  --      1.5824                 0.6731                 0.8844
 IR Inten    --      0.0000                30.6801                 0.0000

                     46                     47                     48
                      A                      A                      A
 Frequencies --    873.0393               899.9883               902.8017
 Red. masses --      3.9553                 2.3594                 3.1839
 Frc consts  --      1.7762                 1.1260                 1.5290
 IR Inten    --     62.2417                 0.0000               176.5994

                     49                     50                     51
                      A                      A                      A
 Frequencies --    937.4135               939.3405               986.1167
 Red. masses --      2.3188                 2.5797                 1.3199
 Frc consts  --      1.2005                 1.3411                 0.7562
 IR Inten    --    173.0081                 0.0005                 0.0000

                     52                     53                     54
                      A                      A                      A
 Frequencies --    987.6705               988.7596               993.9831
 Red. masses --      1.3381                 2.5666                 3.8410
 Frc consts  --      0.7691                 1.4784                 2.2359
 IR Inten    --      3.9811                20.0863                 0.0000

                     55                     56                     57
                      A                      A                      A
 Frequencies --   1020.6637              1021.4680              1062.8028
 Red. masses --      1.8400                 1.8182                 1.7913
 Frc consts  --      1.1293                 1.1177                 1.1922
 IR Inten    --      0.0000               365.3114                10.0021

                     58                     59                     60
                      A                      A                      A
 Frequencies --   1062.8056              1103.7834              1120.4891
 Red. masses --      1.7913                 2.6290                 1.6886
 Frc consts  --      1.1922                 1.8871                 1.2491
 IR Inten    --     18.6603                21.7460                 0.0000

                     61                     62                     63
                      A                      A                      A
 Frequencies --   1132.8917              1136.2007              1189.5144
 Red. masses --      1.7264                 1.9551                 2.6212
 Frc consts  --      1.3055                 1.4870                 2.1852
 IR Inten    --      0.0001               422.1670              1030.0590

                     64                     65                     66
                      A                      A                      A
 Frequencies --   1203.6247              1209.7479              1211.2893
 Red. masses --      3.9450                 1.8812                 2.8626
 Frc consts  --      3.3673                 1.6221                 2.4746
 IR Inten    --      0.0000                 0.0001               868.7278

                     67                     68                     69
                      A                      A                      A
 Frequencies --   1226.9720              1228.0423              1252.0823
 Red. masses --      6.5446                 5.3577                 1.9452
 Frc consts  --      5.8050                 4.7606                 1.7968
 IR Inten    --    206.4301                 0.0000               169.1782

                     70                     71                     72
                      A                      A                      A
 Frequencies --   1310.5667              1362.7080              1366.0641
 Red. masses --      2.2788                10.4551                 8.7463
 Frc consts  --      2.3061                11.4389                 9.6165
 IR Inten    --      0.0000                92.7603                 0.0000

                     73                     74                     75
                      A                      A                      A
 Frequencies --   1388.6249              1395.2895              1395.3407
 Red. masses --      4.0341                 1.2966                 1.2976
 Frc consts  --      4.5832                 1.4873                 1.4885
 IR Inten    --   1073.2743               163.8709                 0.0673

                     76                     77                     78
                      A                      A                      A
 Frequencies --   1458.5323              1458.7927              1460.3991
 Red. masses --      1.1576                 1.0544                 2.3959
 Frc consts  --      1.4509                 1.3220                 3.0107
 IR Inten    --    109.8615                 0.0001               489.7231

                     79                     80                     81
                      A                      A                      A
 Frequencies --   1463.0692              1463.4697              1465.3144
 Red. masses --      1.2042                 1.0514                 3.1240
 Frc consts  --      1.5188                 1.3267                 3.9520
 IR Inten    --      0.0001                16.2478                 0.0000

                     82                     83                     84
                      A                      A                      A
 Frequencies --   1494.3999              1498.8664              1529.8781
 Red. masses --      3.9003                 6.0163                 7.0274
 Frc consts  --      5.1319                 7.9635                 9.6908
 IR Inten    --      0.0001              1339.1097                 0.0000

                     85                     86                     87
                      A                      A                      A
 Frequencies --   1561.0890              1609.3434              1628.3120
 Red. masses --      6.5970                 8.5043                 7.0568
 Frc consts  --      9.4722                12.9773                11.0239
 IR Inten    --    117.4940                 0.0000                 0.0000

                     88                     89                     90
                      A                      A                      A
 Frequencies --   1634.6206              1768.2550              1768.5360
 Red. masses --      7.1425                11.3472                11.3419
 Frc consts  --     11.2443                20.9039                20.9008
 IR Inten    --    139.4346               948.4941                 0.0002

                     91                     92                     93
                      A                      A                      A
 Frequencies --   3053.1257              3053.1276              3114.2385
 Red. masses --      1.0367                 1.0367                 1.1002
 Frc consts  --      5.6934                 5.6934                 6.2865
 IR Inten    --      1.6074                 0.7126                 3.4692

                     94                     95                     96
                      A                      A                      A
 Frequencies --   3114.2407              3158.4430              3158.4453
 Red. masses --      1.1002                 1.1035                 1.1035
 Frc consts  --      6.2865                 6.4856                 6.4856
 IR Inten    --      4.3337                23.1038                 0.0063

                     97                     98                     99
                      A                      A                      A
 Frequencies --   3183.6729              3183.8103              3198.6260
 Red. masses --      1.0881                 1.0882                 1.0933
 Frc consts  --      6.4977                 6.4988                 6.5907
 IR Inten    --      3.0364                 0.0004                 0.0004

                    100                    101                    102
                      A                      A                      A
 Frequencies --   3198.7732              3199.9238              3200.4644
 Red. masses --      1.0941                 1.0913                 1.0920
 Frc consts  --      6.5958                 6.5836                 6.5904
 IR Inten    --     20.6884                40.4892                 0.0000

 - Thermochemistry -
 -------------------
 Temperature   298.150 Kelvin.  Pressure   1.00000 Atm.
 Atom     1 has atomic number  6 and mass  12.00000

 Molecular mass:   324.06339 amu.
 Principal axes and moments of inertia in atomic units:
                           1         2         3
     Eigenvalues --  2248.55621********************
           X            0.99683  -0.07548   0.02532
           Y            0.07810   0.98879  -0.12725
           Z           -0.01543   0.12882   0.99155
 This molecule is an asymmetric top.
 Rotational symmetry number  1.
 Warning -- assumption of classical behavior for rotation
           may cause significant error
 Rotational temperatures (Kelvin)      0.03852     0.00450     0.00418
 Rotational constants (GHZ):           0.80262     0.09384     0.08711
 Zero-point vibrational energy     678192.9 (Joules/Mol)
                                  162.09199 (Kcal/Mol)
 Warning -- explicit consideration of  33 degrees of freedom as
           vibrations may cause significant error
 Vibrational temperatures:     32.29    42.08    45.04    52.50    56.41
          (Kelvin)             88.75   105.04   108.65   117.97   176.58
                              201.28   230.35   263.18   282.79   334.68
                              378.85   425.31   446.05   480.41   563.13
                              571.49   587.97   595.83   617.00   664.05
                              679.59   696.31   710.11   783.90   803.86
                              864.17   866.79   874.86   930.24   945.29
                              964.96  1003.13  1019.38  1027.26  1037.39
                             1101.22  1126.85  1156.17  1197.39  1209.96
                             1256.11  1294.88  1298.93  1348.73  1351.50
                             1418.80  1421.04  1422.60  1430.12  1468.51
                             1469.66  1529.14  1529.14  1588.10  1612.13
                             1629.98  1634.74  1711.45  1731.75  1740.56
                             1742.78  1765.34  1766.88  1801.47  1885.61
                             1960.63  1965.46  1997.92  2007.51  2007.58
                             2098.50  2098.88  2101.19  2105.03  2105.61
                             2108.26  2150.11  2156.53  2201.15  2246.06
                             2315.49  2342.78  2351.85  2544.12  2544.53
                             4392.77  4392.77  4480.69  4480.70  4544.30
                             4544.30  4580.60  4580.79  4602.11  4602.32
                             4603.98  4604.75

 Zero-point correction=                           0.258310 (Hartree/Particle)
 Thermal correction to Energy=                    0.279382
 Thermal correction to Enthalpy=                  0.280326
 Thermal correction to Gibbs Free Energy=         0.203999
 Sum of electronic and zero-point Energies=          -1144.738397
 Sum of electronic and thermal Energies=             -1144.717325
 Sum of electronic and thermal Enthalpies=           -1144.716381
 Sum of electronic and thermal Free Energies=        -1144.792708

                     E (Thermal)             CV                S
                      KCal/Mol        Cal/Mol-Kelvin    Cal/Mol-Kelvin
 Total                  175.315             78.090            160.644
 Electronic               0.000              0.000              1.377
 Translational            0.889              2.981             43.223
 Rotational               0.889              2.981             35.148
 Vibrational            173.538             72.128             80.896
 Vibration     1          0.593              1.985              6.405
 Vibration     2          0.593              1.984              5.880
 Vibration     3          0.594              1.983              5.745
 Vibration     4          0.594              1.982              5.441
 Vibration     5          0.594              1.981              5.299
 Vibration     6          0.597              1.973              4.403
 Vibration     7          0.599              1.967              4.071
 Vibration     8          0.599              1.965              4.004
 Vibration     9          0.600              1.961              3.843
 Vibration    10          0.610              1.930              3.057
 Vibration    11          0.615              1.913              2.805
 Vibration    12          0.622              1.891              2.549
 Vibration    13          0.630              1.863              2.298
 Vibration    14          0.636              1.845              2.165
 Vibration    15          0.653              1.791              1.859
 Vibration    16          0.670              1.740              1.640
 Vibration    17          0.690              1.682              1.442
 Vibration    18          0.699              1.655              1.362
 Vibration    19          0.715              1.608              1.241
 Vibration    20          0.759              1.489              0.995
 Vibration    21          0.764              1.476              0.973
 Vibration    22          0.773              1.451              0.931
 Vibration    23          0.778              1.440              0.912
 Vibration    24          0.790              1.407              0.862
 Vibration    25          0.819              1.335              0.762
 Vibration    26          0.829              1.311              0.731
 Vibration    27          0.840              1.286              0.699
 Vibration    28          0.849              1.264              0.674
 Vibration    29          0.900              1.151              0.555
 Vibration    30          0.914              1.121              0.526
 Vibration    31          0.959              1.030              0.449
 Vibration    32          0.961              1.027              0.445
 Vibration    33          0.967              1.015              0.436

 Optimization completed.
    -- Stationary point found.
 Normal termination of Gaussian 16 at Sat Feb 10 19:14:19 2024.
