 Gaussian 16, Revision A.03,
 Gaussian 16:  ES64L-G16RevA.03 25-Dec-2016

 ----------------------------------------------------------------------
 #P UB3LYP/6-311++G(d,p) nosym opt freq SCRF=(PCM,Solvent=n,n-DiMethylF
 ormamide)
 ----------------------------------------------------------------------

 --------
 Oxidized
 --------
 Symbolic Z-matrix:
 Charge =  0 Multiplicity = 1

 SCF Done:  E(UB3LYP) =  -1077.80331917     A.U. after   16 cycles
 SCF Done:  E(UB3LYP) =  -1077.80343369     A.U. after   11 cycles
 SCF Done:  E(UB3LYP) =  -1077.80343717     A.U. after   11 cycles
 SCF Done:  E(UB3LYP) =  -1077.80345409     A.U. after   10 cycles
 SCF Done:  E(UB3LYP) =  -1077.80345493     A.U. after    9 cycles
 SCF Done:  E(UB3LYP) =  -1077.80345507     A.U. after    8 cycles
 Optimization completed.
    -- Stationary point found.
 Normal termination of Gaussian 16 at Sun Feb 11 16:25:45 2024.

 ----------------------------------------------------------------------
 #P Geom=AllCheck Guess=TCheck SCRF=Check GenChk UB3LYP/6-311++G(d,p) F
 req
 ----------------------------------------------------------------------

 Structure from the checkpoint file:  "305.chk"
 --------
 Oxidized
 --------
 Charge =  0 Multiplicity = 1

                          Input orientation:
 ---------------------------------------------------------------------
 Center     Atomic      Atomic             Coordinates (Angstroms)
 Number     Number       Type             X           Y           Z
 ---------------------------------------------------------------------
      1          6           0        4.155943   -1.323079    3.852967
      2          6           0        3.373053   -0.981184    4.959826
      3          6           0        2.488940    0.107421    4.874961
      4          6           0        4.045437   -0.574720    2.679506
      5          6           0        3.165838    0.513499    2.587438
      6          6           0        2.390258    0.841546    3.704531
      7          6           0        4.868957   -0.932019    1.508577
      8          6           0        4.721497   -0.117256    0.268955
      9          6           0        3.883671    0.942545    0.165120
     10          6           0        3.053202    1.310999    1.332989
     11          8           0        5.670322   -1.861140    1.490933
     12          8           0        2.281619    2.266170    1.270339
     13          8           0        5.501406   -0.518165   -0.750087
     14          8           0        3.397621   -1.633772    6.144410
     15          6           0        4.281871   -2.751573    6.303211
     16          6           0        3.746230    1.735844   -1.104344
     17          6           0        2.623205    1.207074   -2.023698
     18          6           0        2.491719    2.031918   -3.309626
     19          6           0        1.338367    1.611374   -4.237176
     20          6           0        1.529503    0.203245   -4.832285
     21          6           0        1.140855    2.638545   -5.368096
     22          6           0       -0.001430    2.254504   -6.319122
     23          6           0        0.196614    0.847313   -6.898560
     24          6           0        0.388516   -0.188691   -5.783083
     25          1           0        4.848207   -2.152485    3.876493
     26          1           0        1.889515    0.358532    5.741691
     27          1           0        1.708450    1.680170    3.643078
     28          1           0        6.016538   -1.280266   -0.424735
     29          1           0        4.126223   -3.104654    7.319851
     30          1           0        5.323489   -2.446148    6.175736
     31          1           0        4.035839   -3.547790    5.596200
     32          1           0        4.695007    1.712073   -1.646567
     33          1           0        3.535408    2.776422   -0.846153
     34          1           0        1.673754    1.228293   -1.477477
     35          1           0        2.827183    0.158876   -2.261340
     36          1           0        3.435782    1.986568   -3.869395
     37          1           0        2.350056    3.084986   -3.034884
     38          1           0        0.414926    1.598578   -3.638335
     39          1           0        1.612323   -0.540859   -4.034250
     40          1           0        2.481910    0.180672   -5.380717
     41          1           0        2.075738    2.718931   -5.940320
     42          1           0        0.953968    3.628687   -4.937176
     43          1           0       -0.080851    2.990190   -7.126668
     44          1           0       -0.952706    2.288048   -5.771865
     45          1           0        1.081765    0.846071   -7.548363
     46          1           0       -0.655270    0.572765   -7.529812
     47          1           0        0.583456   -1.177190   -6.212625
     48          1           0       -0.543553   -0.276745   -5.209401
 ---------------------------------------------------------------------

 SCF Done:  E(UB3LYP) =  -1077.80345507     A.U. after    1 cycles

 Alpha  occ. eigenvalues --  -19.17919 -19.17568 -19.15119 -19.12708 -10.29515
 Alpha  occ. eigenvalues --  -10.27955 -10.26695 -10.26402 -10.23036 -10.21548
 Alpha  occ. eigenvalues --  -10.20482 -10.20425 -10.20173 -10.20104 -10.19796
 Alpha  occ. eigenvalues --  -10.17728 -10.16810 -10.16644 -10.16140 -10.15929
 Alpha  occ. eigenvalues --  -10.15920 -10.15878 -10.15811 -10.15792  -1.10859
 Alpha  occ. eigenvalues --   -1.09050  -1.06819  -1.05796  -0.89341  -0.84527
 Alpha  occ. eigenvalues --   -0.83305  -0.80204  -0.78361  -0.77824  -0.74667
 Alpha  occ. eigenvalues --   -0.73701  -0.72111  -0.70467  -0.67238  -0.65316
 Alpha  occ. eigenvalues --   -0.62951  -0.61016  -0.60889  -0.59727  -0.57675
 Alpha  occ. eigenvalues --   -0.57281  -0.54993  -0.54845  -0.52448  -0.51459
 Alpha  occ. eigenvalues --   -0.51228  -0.48530  -0.47488  -0.47418  -0.47096
 Alpha  occ. eigenvalues --   -0.46749  -0.46058  -0.45268  -0.44666  -0.43864
 Alpha  occ. eigenvalues --   -0.43481  -0.43044  -0.42520  -0.42215  -0.41901
 Alpha  occ. eigenvalues --   -0.41477  -0.40018  -0.39597  -0.39024  -0.38377
 Alpha  occ. eigenvalues --   -0.38168  -0.37498  -0.36642  -0.35510  -0.35207
 Alpha  occ. eigenvalues --   -0.34492  -0.34242  -0.33911  -0.33432  -0.32528
 Alpha  occ. eigenvalues --   -0.31260  -0.30525  -0.29623  -0.29229  -0.28758
 Alpha  occ. eigenvalues --   -0.27836  -0.26702  -0.24638
 Alpha virt. eigenvalues --   -0.12662  -0.05290  -0.02242  -0.01069  -0.00323
 Alpha virt. eigenvalues --    0.00121   0.00453   0.00665   0.01095   0.01778
 Alpha virt. eigenvalues --    0.02181   0.02223   0.02424   0.02877   0.03279

  Beta  occ. eigenvalues --  -19.17919 -19.17568 -19.15119 -19.12708 -10.29515
  Beta  occ. eigenvalues --  -10.27955 -10.26695 -10.26402 -10.23036 -10.21548
  Beta  occ. eigenvalues --  -10.20482 -10.20425 -10.20173 -10.20104 -10.19796
  Beta  occ. eigenvalues --  -10.17728 -10.16810 -10.16644 -10.16140 -10.15929
  Beta  occ. eigenvalues --  -10.15920 -10.15878 -10.15811 -10.15792  -1.10859
  Beta  occ. eigenvalues --   -1.09050  -1.06819  -1.05796  -0.89341  -0.84527
  Beta  occ. eigenvalues --   -0.83305  -0.80204  -0.78361  -0.77824  -0.74667
  Beta  occ. eigenvalues --   -0.73701  -0.72111  -0.70467  -0.67238  -0.65316
  Beta  occ. eigenvalues --   -0.62951  -0.61016  -0.60889  -0.59727  -0.57675
  Beta  occ. eigenvalues --   -0.57281  -0.54993  -0.54845  -0.52448  -0.51459
  Beta  occ. eigenvalues --   -0.51228  -0.48530  -0.47488  -0.47418  -0.47096
  Beta  occ. eigenvalues --   -0.46749  -0.46058  -0.45268  -0.44666  -0.43864
  Beta  occ. eigenvalues --   -0.43481  -0.43044  -0.42520  -0.42215  -0.41901
  Beta  occ. eigenvalues --   -0.41477  -0.40018  -0.39597  -0.39024  -0.38377
  Beta  occ. eigenvalues --   -0.38168  -0.37498  -0.36642  -0.35510  -0.35207
  Beta  occ. eigenvalues --   -0.34492  -0.34242  -0.33911  -0.33432  -0.32528
  Beta  occ. eigenvalues --   -0.31260  -0.30525  -0.29623  -0.29229  -0.28758
  Beta  occ. eigenvalues --   -0.27836  -0.26702  -0.24638
  Beta virt. eigenvalues --   -0.12662  -0.05290  -0.02242  -0.01069  -0.00323
  Beta virt. eigenvalues --    0.00121   0.00453   0.00665   0.01095   0.01778
  Beta virt. eigenvalues --    0.02181   0.02223   0.02424   0.02877   0.03279

 Mulliken charges and spin densities:
               1          2
     1  C    1.010133   0.000000
     2  C   -0.953088  -0.000000
     3  C   -0.420991  -0.000000
     4  C    0.925688   0.000000
     5  C   -0.537014   0.000000
     6  C    0.243152   0.000000
     7  C   -0.642865  -0.000000
     8  C   -0.732464  -0.000000
     9  C    1.623613   0.000000
    10  C   -1.113267  -0.000000
    11  O   -0.305703  -0.000000
    12  O   -0.284982   0.000000
    13  O   -0.213881   0.000000
    14  O   -0.175746   0.000000
    15  C   -0.346713   0.000000
    16  C    0.064070   0.000000
    17  C   -0.551986  -0.000000
    18  C   -0.729725   0.000000
    19  C    0.958415  -0.000000
    20  C   -0.475728  -0.000000
    21  C   -0.455521   0.000000
    22  C   -0.319239  -0.000000
    23  C   -0.391215   0.000000
    24  C   -0.345832  -0.000000
    25  H    0.182463   0.000000
    26  H    0.227636   0.000000
    27  H    0.204259  -0.000000
    28  H    0.310745  -0.000000
    29  H    0.201079  -0.000000
    30  H    0.179418  -0.000000
    31  H    0.178241  -0.000000
    32  H    0.233560   0.000000
    33  H    0.219984  -0.000000
    34  H    0.180984  -0.000000
    35  H    0.161559  -0.000000
    36  H    0.117824  -0.000000
    37  H    0.137048  -0.000000
    38  H    0.147105  -0.000000
    39  H    0.138113  -0.000000
    40  H    0.158426   0.000000
    41  H    0.152763   0.000000
    42  H    0.141100   0.000000
    43  H    0.177472  -0.000000
    44  H    0.127564   0.000000
    45  H    0.120732   0.000000
    46  H    0.170740   0.000000
    47  H    0.165642   0.000000
    48  H    0.136432   0.000000
 Sum of Mulliken charges =  -0.00000   0.00000

 Dipole moment (field-independent basis, Debye):
    X=              1.2032    Y=             -3.3657    Z=              2.7796  Tot=              4.5279
 Quadrupole moment (field-independent basis, Debye-Ang):
   XX=           -138.7040   YY=           -146.0470   ZZ=           -121.7084
   XY=            -10.4688   XZ=             15.0058   YZ=            -13.9075

  Exact polarizability: 309.111 -76.452 343.562 -11.888 -50.470 401.587
 Approx polarizability: 369.040-112.757 411.289 -29.702 -44.590 414.567

                      1                      2                      3
                      A                      A                      A
 Frequencies --     15.5558                19.6998                23.2107
 Red. masses --      4.9756                 4.4770                 3.5931
 Frc consts  --      0.0007                 0.0010                 0.0011
 IR Inten    --      0.1107                 0.9326                 0.9592

                      4                      5                      6
                      A                      A                      A
 Frequencies --     54.0442                65.4011                72.0800
 Red. masses --      4.9935                 3.6117                 4.9023
 Frc consts  --      0.0086                 0.0091                 0.0150
 IR Inten    --      2.9131                 0.1946                 0.4924

                      7                      8                      9
                      A                      A                      A
 Frequencies --     92.8260               113.1915               129.5957
 Red. masses --      5.6406                 2.3519                 4.3610
 Frc consts  --      0.0286                 0.0178                 0.0432
 IR Inten    --      0.4194                 0.1735                10.5455

                     10                     11                     12
                      A                      A                      A
 Frequencies --    130.6449               149.3431               158.0367
 Red. masses --      3.2953                 4.5067                 4.2103
 Frc consts  --      0.0331                 0.0592                 0.0620
 IR Inten    --      0.7422                 2.3715                 0.8904

                     13                     14                     15
                      A                      A                      A
 Frequencies --    174.7560               209.7138               228.5838
 Red. masses --      2.8189                 2.0486                 1.7131
 Frc consts  --      0.0507                 0.0531                 0.0527
 IR Inten    --      0.1265                 0.1046                 0.0167

                     16                     17                     18
                      A                      A                      A
 Frequencies --    230.3907               266.1942               285.9584
 Red. masses --      1.8820                 3.7614                 3.4993
 Frc consts  --      0.0589                 0.1570                 0.1686
 IR Inten    --      0.0950                 4.4051                 0.9063

                     19                     20                     21
                      A                      A                      A
 Frequencies --    306.9099               321.8416               337.0202
 Red. masses --      3.0069                 2.0389                 3.2564
 Frc consts  --      0.1669                 0.1244                 0.2179
 IR Inten    --     10.2029                 0.4279                 1.9118

                     22                     23                     24
                      A                      A                      A
 Frequencies --    338.4383               361.8120               385.8342
 Red. masses --      5.6195                 6.8828                 4.5779
 Frc consts  --      0.3792                 0.5309                 0.4015
 IR Inten    --      9.9688                 2.2962                27.1326

                     25                     26                     27
                      A                      A                      A
 Frequencies --    420.1056               423.8163               437.7858
 Red. masses --      5.7647                 4.9734                 2.3590
 Frc consts  --      0.5994                 0.5263                 0.2664
 IR Inten    --     22.8843                18.3614                 1.1018

                     28                     29                     30
                      A                      A                      A
 Frequencies --    445.5440               463.2435               469.7864
 Red. masses --      2.8635                 3.4530                 3.1768
 Frc consts  --      0.3349                 0.4366                 0.4131
 IR Inten    --      0.2003                 4.6181                21.7948

                     31                     32                     33
                      A                      A                      A
 Frequencies --    476.7144               514.4034               528.4304
 Red. masses --      5.3641                 6.3839                 5.9336
 Frc consts  --      0.7182                 0.9953                 0.9762
 IR Inten    --      1.3811                 5.6544                14.9457

                     34                     35                     36
                      A                      A                      A
 Frequencies --    555.4065               588.7425               606.6414
 Red. masses --      2.0024                 1.4596                 2.2849
 Frc consts  --      0.3639                 0.2981                 0.4954
 IR Inten    --      7.1575                94.2586                41.2483

                     37                     38                     39
                      A                      A                      A
 Frequencies --    642.3353               688.6609               693.8403
 Red. masses --      4.4239                 4.7420                 6.4647
 Frc consts  --      1.0754                 1.3250                 1.8337
 IR Inten    --      8.7695                 8.8901                23.0384

                     40                     41                     42
                      A                      A                      A
 Frequencies --    702.1459               731.1696               761.1707
 Red. masses --      3.6744                 1.2938                 6.3044
 Frc consts  --      1.0673                 0.4075                 2.1521
 IR Inten    --     14.1381                11.9654                45.1296

                     43                     44                     45
                      A                      A                      A
 Frequencies --    764.7551               769.8115               789.7544
 Red. masses --      5.4446                 3.0760                 2.1043
 Frc consts  --      1.8761                 1.0740                 0.7733
 IR Inten    --      1.9994                 6.0283                 5.0627

                     46                     47                     48
                      A                      A                      A
 Frequencies --    793.9533               834.6824               846.9696
 Red. masses --      1.7571                 1.9494                 2.1466
 Frc consts  --      0.6526                 0.8002                 0.9073
 IR Inten    --      1.3108                14.9561                 3.3244

                     49                     50                     51
                      A                      A                      A
 Frequencies --    860.7032               887.0978               893.7305
 Red. masses --      1.4961                 2.0552                 1.5387
 Frc consts  --      0.6530                 0.9529                 0.7241
 IR Inten    --     31.0011                30.5812                30.9260

                     52                     53                     54
                      A                      A                      A
 Frequencies --    894.9110               920.4669               926.1250
 Red. masses --      1.9271                 2.0460                 1.8824
 Frc consts  --      0.9093                 1.0213                 0.9512
 IR Inten    --      5.7574                70.8459                35.4733

                     55                     56                     57
                      A                      A                      A
 Frequencies --    951.7434               975.0968               995.8762
 Red. masses --      3.8266                 2.6426                 1.3287
 Frc consts  --      2.0422                 1.4804                 0.7764
 IR Inten    --      3.2241                22.8479                 0.6805

                     58                     59                     60
                      A                      A                      A
 Frequencies --   1011.5528              1014.2156              1034.8284
 Red. masses --      3.8566                 1.8989                 4.5115
 Frc consts  --      2.3251                 1.1508                 2.8465
 IR Inten    --     36.3156                13.5060                71.7634

                     61                     62                     63
                      A                      A                      A
 Frequencies --   1037.8231              1041.3569              1052.4965
 Red. masses --      1.8337                 2.8637                 2.2898
 Frc consts  --      1.1637                 1.8297                 1.4945
 IR Inten    --      2.3497                16.7956                56.4379

                     64                     65                     66
                      A                      A                      A
 Frequencies --   1071.3691              1091.6985              1101.7503
 Red. masses --      1.3622                 1.4001                 2.1666
 Frc consts  --      0.9212                 0.9831                 1.5495
 IR Inten    --     12.9653                 0.2171                28.6725

                     67                     68                     69
                      A                      A                      A
 Frequencies --   1104.0679              1117.1228              1136.5967
 Red. masses --      2.4602                 1.8197                 1.6642
 Frc consts  --      1.7669                 1.3380                 1.2667
 IR Inten    --      9.6542                34.5043                53.1095

                     70                     71                     72
                      A                      A                      A
 Frequencies --   1166.8836              1181.0626              1190.6948
 Red. masses --      1.2713                 1.9441                 1.6683
 Frc consts  --      1.0199                 1.5978                 1.3935
 IR Inten    --      0.9610                 7.6598               102.3269

                     73                     74                     75
                      A                      A                      A
 Frequencies --   1198.9308              1211.9500              1216.2790
 Red. masses --      1.7401                 1.7345                 2.0619
 Frc consts  --      1.4737                 1.5010                 1.7971
 IR Inten    --     37.0534                57.7683               194.9702

                     76                     77                     78
                      A                      A                      A
 Frequencies --   1253.2983              1259.9519              1273.3839
 Red. masses --      2.0514                 1.4179                 1.4225
 Frc consts  --      1.8985                 1.3262                 1.3590
 IR Inten    --    176.4249               123.8474                78.6973

                     79                     80                     81
                      A                      A                      A
 Frequencies --   1282.8770              1284.3620              1287.7403
 Red. masses --      1.2751                 1.3446                 1.5365
 Frc consts  --      1.2365                 1.3068                 1.5012
 IR Inten    --     20.2224                43.8092                40.9041

                     82                     83                     84
                      A                      A                      A
 Frequencies --   1301.0365              1302.8866              1322.2450
 Red. masses --      2.1587                 1.5916                 1.4243
 Frc consts  --      2.1529                 1.5918                 1.4671
 IR Inten    --    312.0788               214.5327               257.2242

                     85                     86                     87
                      A                      A                      A
 Frequencies --   1325.8021              1340.5708              1345.0135
 Red. masses --      1.2603                 2.1952                 1.2427
 Frc consts  --      1.3052                 2.3244                 1.3246
 IR Inten    --      5.1032               432.1512                44.5426

                     88                     89                     90
                      A                      A                      A
 Frequencies --   1359.3230              1364.2623              1365.0011
 Red. masses --      1.3461                 3.6834                 1.3912
 Frc consts  --      1.4655                 4.0391                 1.5273
 IR Inten    --      3.6194               209.1124                 5.5727

                     91                     92                     93
                      A                      A                      A
 Frequencies --   1371.5105              1372.0764              1375.6565
 Red. masses --      1.3840                 1.5081                 1.5405
 Frc consts  --      1.5338                 1.6728                 1.7177
 IR Inten    --      0.7576                 1.3870                 1.2154

                     94                     95                     96
                      A                      A                      A
 Frequencies --   1379.6161              1391.2812              1396.5128
 Red. masses --      3.0419                 1.4802                 1.5312
 Frc consts  --      3.4112                 1.6881                 1.7595
 IR Inten    --    442.6365                 4.8258                 0.2294

                     97                     98                     99
                      A                      A                      A
 Frequencies --   1453.9535              1470.2487              1475.2856
 Red. masses --      2.7786                 1.1177                 1.1059
 Frc consts  --      3.4608                 1.4235                 1.4181
 IR Inten    --     28.7900                16.0239                 4.2516

                    100                    101                    102
                      A                      A                      A
 Frequencies --   1477.3642              1479.0881              1480.4982
 Red. masses --      1.3413                 1.0946                 1.0940
 Frc consts  --      1.7248                 1.4109                 1.4129
 IR Inten    --      0.2170                 0.8999                 3.7181

                    103                    104                    105
                      A                      A                      A
 Frequencies --   1481.8767              1484.0058              1487.1945
 Red. masses --      1.0964                 1.0858                 1.0434
 Frc consts  --      1.4185                 1.4088                 1.3596
 IR Inten    --      7.2368                14.2204                15.6703

                    106                    107                    108
                      A                      A                      A
 Frequencies --   1495.9606              1496.2688              1499.1853
 Red. masses --      1.1024                 1.1007                 1.0994
 Frc consts  --      1.4535                 1.4519                 1.4559
 IR Inten    --     67.8177                 4.2634                14.6671

                    109                    110                    111
                      A                      A                      A
 Frequencies --   1520.7986              1596.7387              1618.1840
 Red. masses --      2.7799                 7.4988                 6.5518
 Frc consts  --      3.7881                11.2645                10.1081
 IR Inten    --     45.5537               221.0107               540.4704

                    112                    113                    114
                      A                      A                      A
 Frequencies --   1667.6951              1685.2915              1690.3354
 Red. masses --     11.0662                11.4344                 7.6168
 Frc consts  --     18.1336                19.1343                12.8223
 IR Inten    --    497.5467               462.1354                71.7371

                    115                    116                    117
                      A                      A                      A
 Frequencies --   2964.9825              2984.8409              2987.3581
 Red. masses --      1.0803                 1.0677                 1.0625
 Frc consts  --      5.5955                 5.6048                 5.5866
 IR Inten    --     14.9090                33.9480                13.4445

                    118                    119                    120
                      A                      A                      A
 Frequencies --   2993.4372              2994.4765              2996.3611
 Red. masses --      1.0715                 1.0641                 1.0632
 Frc consts  --      5.6569                 5.6219                 5.6239
 IR Inten    --     23.2746               121.1244                17.3821

                    121                    122                    123
                      A                      A                      A
 Frequencies --   2999.0110              3019.1025              3023.0453
 Red. masses --      1.0599                 1.0944                 1.0663
 Frc consts  --      5.6168                 5.8774                 5.7415
 IR Inten    --    135.5467                21.1575                36.0485

                    124                    125                    126
                      A                      A                      A
 Frequencies --   3028.3230              3034.5628              3039.2209
 Red. masses --      1.0326                 1.0958                 1.0991
 Frc consts  --      5.5793                 5.9454                 5.9814
 IR Inten    --     62.7241               153.0007                76.2051

                    127                    128                    129
                      A                      A                      A
 Frequencies --   3040.6479              3044.2659              3046.1187
 Red. masses --      1.0907                 1.1025                 1.0595
 Frc consts  --      5.9411                 6.0198                 5.7921
 IR Inten    --    107.3402               140.6475                37.1343

                    130                    131                    132
                      A                      A                      A
 Frequencies --   3050.2201              3062.7195              3092.7543
 Red. masses --      1.0947                 1.1003                 1.1051
 Frc consts  --      6.0008                 6.0812                 6.2278
 IR Inten    --    144.1949                50.4393                40.5674

                    133                    134                    135
                      A                      A                      A
 Frequencies --   3097.5453              3152.8612              3190.9744
 Red. masses --      1.1076                 1.1020                 1.0891
 Frc consts  --      6.2612                 6.4542                 6.5337
 IR Inten    --     37.8530                22.1842                 2.9747

                    136                    137                    138
                      A                      A                      A
 Frequencies --   3205.9783              3223.4930              3625.8972
 Red. masses --      1.0941                 1.0903                 1.0646
 Frc consts  --      6.6257                 6.6751                 8.2463
 IR Inten    --      5.9746                 5.5765               264.8522

 - Thermochemistry -
 -------------------
 Temperature   298.150 Kelvin.  Pressure   1.00000 Atm.
 Atom     1 has atomic number  6 and mass  12.00000

 Molecular mass:   328.16746 amu.
 Principal axes and moments of inertia in atomic units:
                           1         2         3
     Eigenvalues --  3194.67583********************
           X            0.26882   0.72192   0.63763
           Y           -0.23558  -0.59261   0.77027
           Z            0.93394  -0.35727   0.01076
 This molecule is an asymmetric top.
 Rotational symmetry number  1.
 Warning -- assumption of classical behavior for rotation
           may cause significant error
 Rotational temperatures (Kelvin)      0.02711     0.00379     0.00364
 Rotational constants (GHZ):           0.56492     0.07890     0.07581
 Zero-point vibrational energy    1059412.6 (Joules/Mol)
                                  253.20570 (Kcal/Mol)
 Warning -- explicit consideration of  36 degrees of freedom as
           vibrations may cause significant error
 Vibrational temperatures:     22.38    28.34    33.40    77.76    94.10
          (Kelvin)            103.71   133.56   162.86   186.46   187.97
                              214.87   227.38   251.43   301.73   328.88
                              331.48   382.99   411.43   441.57   463.06
                              484.90   486.94   520.57   555.13   604.44
                              609.78   629.88   641.04   666.50   675.92
                              685.89   740.11   760.29   799.11   847.07
                              872.82   924.18   990.83   998.28  1010.23
                             1051.99  1095.15  1100.31  1107.59  1136.28
                             1142.32  1200.92  1218.60  1238.36  1276.34
                             1285.88  1287.58  1324.35  1332.49  1369.35
                             1402.95  1432.84  1455.40  1459.23  1488.89
                             1493.20  1498.28  1514.31  1541.46  1570.71
                             1585.17  1588.51  1607.29  1635.31  1678.89
                             1699.29  1713.14  1724.99  1743.73  1749.95
                             1803.22  1812.79  1832.12  1845.77  1847.91
                             1852.77  1871.90  1874.56  1902.42  1907.53
                             1928.78  1935.17  1955.76  1962.87  1963.93
                             1973.30  1974.11  1979.26  1984.96  2001.74
                             2009.27  2091.91  2115.36  2122.61  2125.60
                             2128.08  2130.11  2132.09  2135.15  2139.74
                             2152.35  2152.80  2156.99  2188.09  2297.35
                             2328.21  2399.44  2424.76  2432.02  4265.95
                             4294.52  4298.14  4306.89  4308.38  4311.10
                             4314.91  4343.82  4349.49  4357.08  4366.06
                             4372.76  4374.81  4380.02  4382.69  4388.59
                             4406.57  4449.78  4456.68  4536.26  4591.10
                             4612.69  4637.89  5216.86

 Zero-point correction=                           0.403509 (Hartree/Particle)
 Thermal correction to Energy=                    0.425983
 Thermal correction to Enthalpy=                  0.426927
 Thermal correction to Gibbs Free Energy=         0.349419
 Sum of electronic and zero-point Energies=          -1077.399946
 Sum of electronic and thermal Energies=             -1077.377472
 Sum of electronic and thermal Enthalpies=           -1077.376528
 Sum of electronic and thermal Free Energies=        -1077.454036

                     E (Thermal)             CV                S
                      KCal/Mol        Cal/Mol-Kelvin    Cal/Mol-Kelvin
 Total                  267.308             86.971            163.130
 Electronic               0.000              0.000              0.000
 Translational            0.889              2.981             43.260
 Rotational               0.889              2.981             35.807
 Vibrational            265.531             81.009             84.062
 Vibration     1          0.593              1.986              7.133
 Vibration     2          0.593              1.986              6.664
 Vibration     3          0.593              1.985              6.339
 Vibration     4          0.596              1.976              4.664
 Vibration     5          0.597              1.971              4.287
 Vibration     6          0.598              1.967              4.096
 Vibration     7          0.602              1.954              3.600
 Vibration     8          0.607              1.939              3.213
 Vibration     9          0.612              1.924              2.952
 Vibration    10          0.612              1.923              2.937
 Vibration    11          0.618              1.903              2.681
 Vibration    12          0.621              1.894              2.573
 Vibration    13          0.627              1.874              2.384
 Vibration    14          0.642              1.826              2.046
 Vibration    15          0.651              1.797              1.890
 Vibration    16          0.652              1.795              1.876
 Vibration    17          0.672              1.735              1.621
 Vibration    18          0.684              1.700              1.498
 Vibration    19          0.697              1.661              1.379
 Vibration    20          0.707              1.632              1.301
 Vibration    21          0.718              1.602              1.226
 Vibration    22          0.719              1.599              1.220
 Vibration    23          0.736              1.551              1.114
 Vibration    24          0.755              1.500              1.016
 Vibration    25          0.783              1.427              0.892
 Vibration    26          0.786              1.418              0.879
 Vibration    27          0.798              1.388              0.834
 Vibration    28          0.805              1.371              0.809
 Vibration    29          0.821              1.332              0.757
 Vibration    30          0.827              1.317              0.738
 Vibration    31          0.833              1.302              0.719
 Vibration    32          0.869              1.218              0.623
 Vibration    33          0.883              1.187              0.591
 Vibration    34          0.911              1.128              0.533
 Vibration    35          0.946              1.056              0.469
 Vibration    36          0.965              1.018              0.438

                           ! Non-Optimized Parameters !
 Normal termination of Gaussian 16 at Sun Feb 11 21:48:41 2024.
