 Q-Chem 5.4, Q-Chem, Inc., Pleasanton, CA (2021)
 Q-Chem 5.4.0 for Intel X86 EM64T Linux

User input:
--------------------------------------------------------------
$molecule
-2 1
C                 -1.8817890000      1.7609080000      0.7139180000
C                 -2.6327640000      0.9389390000      1.5236410000
C                 -2.1544790000     -0.3521470000      1.8571120000
C                 -0.6352150000      1.3478940000      0.2015220000
C                 -0.1508910000      0.0423020000      0.5405700000
C                 -0.9390460000     -0.7791770000      1.3714480000
C                  0.1204600000      2.2521790000     -0.6569980000
C                  1.3815120000      1.7401020000     -1.1290720000
C                  1.8517490000      0.4554370000     -0.8037050000
C                  1.1285480000     -0.4511940000      0.0480850000
O                 -0.3257680000      3.4124630000     -0.9581160000
O                  1.5648500000     -1.6133420000      0.3545890000
C                  2.1795890000      2.6659310000     -2.0194350000
C                  3.1697560000     -0.0633740000     -1.3358390000
C                  4.3522410000      0.1164120000     -0.3614370000
C                  5.6696230000     -0.4547740000     -0.9007230000
C                  6.8674860000     -0.2772320000      0.0414890000
C                  8.1804600000     -0.8458330000     -0.5124490000
C                  9.3891620000     -0.6584410000      0.4136860000
C                 10.6968420000     -1.2250480000     -0.1540480000
C                 11.9121030000     -1.0338700000      0.7623430000
C                 13.2162330000     -1.5983290000      0.1840810000
C                 14.4311110000     -1.4044770000      1.0962800000
Cl                -3.1040010000     -1.4392080000      2.8977910000
Cl                -4.1980200000      1.5217740000      2.1384990000
H                 -2.2280540000      2.7517460000      0.4448680000
H                 -0.5519780000     -1.7617580000      1.6141670000
H                  1.7042670000      3.6484020000     -2.0107640000
H                  2.2078430000      2.3162310000     -3.0621400000
H                  3.2214270000      2.7676230000     -1.6914150000
H                  3.4198080000      0.4152220000     -2.2899770000
H                  3.0542330000     -1.1377330000     -1.5181610000
H                  4.0905480000     -0.3785260000      0.5792840000
H                  4.4817430000      1.1831420000     -0.1365890000
H                  5.9023770000      0.0181370000     -1.8659530000
H                  5.5337110000     -1.5239580000     -1.1120630000
H                  6.6424360000     -0.7553420000      1.0037210000
H                  7.0007190000      0.7912150000      0.2585620000
H                  8.3954960000     -0.3748050000     -1.4813950000
H                  8.0492510000     -1.9162230000     -0.7205890000
H                  9.1798700000     -1.1318590000      1.3820380000
H                  9.5207080000      0.4114600000      0.6233990000
H                 10.9014770000     -0.7538720000     -1.1248740000
H                 10.5661310000     -2.2958310000     -0.3602270000
H                 11.7138600000     -1.5075870000      1.7327440000
H                 12.0449680000      0.0359280000      0.9706030000
H                 13.4131980000     -1.1262320000     -0.7870800000
H                 13.0850190000     -2.6681500000     -0.0232410000
H                 14.6190840000     -0.3425700000      1.2921330000
H                 15.3423300000     -1.8185220000      0.6510280000
H                 14.2883000000     -1.8988080000      2.0640260000
$end
$rem
MAX_SCF_CYCLES=200
BASIS  =  6-311++G(d,p)
GUI  =  2
JOB_TYPE  =  SP
SCF_CONVERGENCE = 8
SCF_ALGORITHM = RCA_DIIS
scf_guess = GWH
METHOD  =  B3LYP
SOLVENT_METHOD = PCM
$end
$pcm
theory = CPCM
$end
$solvent
dielectric 37.219
opticaldielectric 1.43
$end

--------------------------------------------------------------

             Standard Nuclear Orientation (Angstroms)
    I     Atom           X                Y                Z
 ----------------------------------------------------------------
    1      C      -1.8817890000     1.7609080000     0.7139180000
    2      C      -2.6327640000     0.9389390000     1.5236410000
    3      C      -2.1544790000    -0.3521470000     1.8571120000
    4      C      -0.6352150000     1.3478940000     0.2015220000
    5      C      -0.1508910000     0.0423020000     0.5405700000
    6      C      -0.9390460000    -0.7791770000     1.3714480000
    7      C       0.1204600000     2.2521790000    -0.6569980000
    8      C       1.3815120000     1.7401020000    -1.1290720000
    9      C       1.8517490000     0.4554370000    -0.8037050000
   10      C       1.1285480000    -0.4511940000     0.0480850000
   11      O      -0.3257680000     3.4124630000    -0.9581160000
   12      O       1.5648500000    -1.6133420000     0.3545890000
   13      C       2.1795890000     2.6659310000    -2.0194350000
   14      C       3.1697560000    -0.0633740000    -1.3358390000
   15      C       4.3522410000     0.1164120000    -0.3614370000
   16      C       5.6696230000    -0.4547740000    -0.9007230000
   17      C       6.8674860000    -0.2772320000     0.0414890000
   18      C       8.1804600000    -0.8458330000    -0.5124490000
   19      C       9.3891620000    -0.6584410000     0.4136860000
   20      C      10.6968420000    -1.2250480000    -0.1540480000
   21      C      11.9121030000    -1.0338700000     0.7623430000
   22      C      13.2162330000    -1.5983290000     0.1840810000
   23      C      14.4311110000    -1.4044770000     1.0962800000
   24      Cl     -3.1040010000    -1.4392080000     2.8977910000
   25      Cl     -4.1980200000     1.5217740000     2.1384990000
   26      H      -2.2280540000     2.7517460000     0.4448680000
   27      H      -0.5519780000    -1.7617580000     1.6141670000
   28      H       1.7042670000     3.6484020000    -2.0107640000
   29      H       2.2078430000     2.3162310000    -3.0621400000
   30      H       3.2214270000     2.7676230000    -1.6914150000
   31      H       3.4198080000     0.4152220000    -2.2899770000
   32      H       3.0542330000    -1.1377330000    -1.5181610000
   33      H       4.0905480000    -0.3785260000     0.5792840000
   34      H       4.4817430000     1.1831420000    -0.1365890000
   35      H       5.9023770000     0.0181370000    -1.8659530000
   36      H       5.5337110000    -1.5239580000    -1.1120630000
   37      H       6.6424360000    -0.7553420000     1.0037210000
   38      H       7.0007190000     0.7912150000     0.2585620000
   39      H       8.3954960000    -0.3748050000    -1.4813950000
   40      H       8.0492510000    -1.9162230000    -0.7205890000
   41      H       9.1798700000    -1.1318590000     1.3820380000
   42      H       9.5207080000     0.4114600000     0.6233990000
   43      H      10.9014770000    -0.7538720000    -1.1248740000
   44      H      10.5661310000    -2.2958310000    -0.3602270000
   45      H      11.7138600000    -1.5075870000     1.7327440000
   46      H      12.0449680000     0.0359280000     0.9706030000
   47      H      13.4131980000    -1.1262320000    -0.7870800000
   48      H      13.0850190000    -2.6681500000    -0.0232410000
   49      H      14.6190840000    -0.3425700000     1.2921330000
   50      H      15.3423300000    -1.8185220000     0.6510280000
   51      H      14.2883000000    -1.8988080000     2.0640260000
 ----------------------------------------------------------------

   98   -1887.3301570232      9.05E-09 Convergence criterion met
 Total energy in the final basis set = -1887.33015702

                    Orbital Energies (a.u.)
 --------------------------------------------------------------

 Alpha MOs
 -- Occupied --
********-101.5480 -19.0183 -19.0181 -10.2217 -10.2213 -10.1704 -10.1697
-10.1624 -10.1623 -10.1567 -10.1538 -10.1535 -10.1529 -10.1522 -10.1510
-10.1506 -10.1486 -10.1443 -10.1425 -10.1421 -10.1378 -10.1340 -10.1291
-10.1258  -9.4626  -9.4625  -7.2270  -7.2268  -7.2175  -7.2174  -7.2172
 -7.2172  -0.9429  -0.9395  -0.8907  -0.8428  -0.8162  -0.8041  -0.7910
 -0.7774  -0.7559  -0.7303  -0.7278  -0.7153  -0.6911  -0.6621  -0.6367
 -0.6228  -0.6016  -0.5851  -0.5707  -0.5676  -0.5624  -0.5500  -0.5229
 -0.4886  -0.4766  -0.4651  -0.4610  -0.4553  -0.4420  -0.4293  -0.4260
 -0.4185  -0.4145  -0.4088  -0.4038  -0.4007  -0.3933  -0.3915  -0.3873
 -0.3803  -0.3740  -0.3657  -0.3606  -0.3574  -0.3509  -0.3495  -0.3462
 -0.3403  -0.3388  -0.3307  -0.3288  -0.3219  -0.3208  -0.3190  -0.3165
 -0.3142  -0.3133  -0.3113  -0.3089  -0.3051  -0.3015  -0.2949  -0.2874
 -0.2371  -0.2257  -0.2055  -0.2038  -0.1938  -0.1098

          Ground-State Mulliken Net Atomic Charges

     Atom                 Charge (a.u.)
  ----------------------------------------
      1 C                    -0.501593
      2 C                     0.378570
      3 C                     0.276976
      4 C                    -0.511808
      5 C                    -0.472458
      6 C                    -0.478729
      7 C                    -0.561663
      8 C                     0.496539
      9 C                     0.529531
     10 C                    -0.737425
     11 O                    -0.705599
     12 O                    -0.679204
     13 C                    -0.421260
     14 C                    -0.339757
     15 C                    -0.981326
     16 C                    -0.262477
     17 C                    -0.031031
     18 C                     0.074952
     19 C                    -0.030060
     20 C                    -0.232898
     21 C                    -0.457065
     22 C                    -0.288532
     23 C                    -0.717813
     24 Cl                    0.447039
     25 Cl                    0.439097
     26 H                     0.189683
     27 H                     0.186227
     28 H                     0.161131
     29 H                     0.161149
     30 H                     0.148468
     31 H                     0.165319
     32 H                     0.179535
     33 H                     0.192651
     34 H                     0.125283
     35 H                     0.111380
     36 H                     0.121374
     37 H                     0.128350
     38 H                     0.131419
     39 H                     0.132825
     40 H                     0.134463
     41 H                     0.135077
     42 H                     0.133454
     43 H                     0.130541
     44 H                     0.130425
     45 H                     0.129282
     46 H                     0.128286
     47 H                     0.135217
     48 H                     0.135296
     49 H                     0.144998
     50 H                     0.151264
     51 H                     0.144897
  ----------------------------------------
  Sum of atomic charges =    -2.000000

                    Cartesian Multipole Moments
 -----------------------------------------------------------------
    Charge (ESU x 10^10)
                -9.6064
    Dipole Moment (Debye)
         X       0.7160      Y      -7.3067      Z      -1.6714
       Tot       7.5295
    Quadrupole Moments (Debye-Ang)
        XX    -215.2128     XY      13.8946     YY    -231.5030
        XZ      11.0896     YZ      13.5506     ZZ    -193.6773

 Total job time:  2802.31s(wall), 16750.52s(cpu)
        *  Thank you very much for using Q-Chem.  Have a nice day.  *
