 Q-Chem 5.4, Q-Chem, Inc., Pleasanton, CA (2021)
 Q-Chem 5.4.0 for Intel X86 EM64T Linux

User input:
--------------------------------------------------------------
$molecule
-1 2
C                 -0.2202380000      3.9251660000      0.2655160000
C                 -1.4322000000      3.4443190000      0.7284950000
C                 -1.6697640000      2.0564630000      0.7623360000
C                  0.7884690000      3.0451750000     -0.1737440000
C                  0.5490210000      1.6506250000     -0.1420690000
C                 -0.6913990000      1.1784800000      0.3310740000
C                  2.0605060000      3.5954620000     -0.6750570000
C                  3.0596270000      2.6195680000     -1.0695960000
C                  2.8364890000      1.2416930000     -1.0408230000
C                  1.5697730000      0.6934770000     -0.5932950000
O                  2.2392700000      4.8380590000     -0.7424640000
O                  1.3444630000     -0.5479050000     -0.5721450000
H                 -0.0096190000      4.9875590000      0.2239360000
H                 -2.1997620000      4.1351990000      1.0651770000
H                 -2.6209700000      1.6772220000      1.1246380000
H                 -0.8458850000      0.1057020000      0.3426010000
S                  4.6089080000      3.2357730000     -1.7395650000
C                  5.1878710000      4.3976580000     -0.4452250000
C                  3.8771120000      0.2416080000     -1.4757990000
H                  6.1354710000      4.8048170000     -0.8058710000
H                  5.3572010000      3.8683050000      0.4944080000
H                  4.4519270000      5.1874860000     -0.3127520000
H                  3.9576240000      0.1934430000     -2.5695180000
H                  3.5888810000     -0.7487450000     -1.1226170000
H                  4.8673850000      0.5105940000     -1.1004120000
$end
$rem
MAX_SCF_CYCLES=200
BASIS  =  6-311++G(d,p)
GUI  =  2
JOB_TYPE  =  SP
METHOD  =  B3LYP
SOLVENT_METHOD = COSMO
$end
$solvent
dielectric 37.219
opticaldielectric 1.43
$end

--------------------------------------------------------------

             Standard Nuclear Orientation (Angstroms)
    I     Atom           X                Y                Z
 ----------------------------------------------------------------
    1      C       2.0155428446    -1.8462840556    -0.0781342031
    2      C       3.3733281360    -1.6025834542     0.0288443030
    3      C       3.8421986274    -0.2790225450     0.1387220811
    4      C       1.0867963422    -0.7869201906    -0.0769278573
    5      C       1.5579354870     0.5432965872     0.0310516921
    6      C       2.9440017742     0.7732513954     0.1376725606
    7      C      -0.3505682123    -1.0849448270    -0.2087348728
    8      C      -1.2408377256     0.0600889290    -0.1578351095
    9      C      -0.7887207999     1.3765100530    -0.0492824591
   10      C       0.6274261022     1.6816371125     0.0332823477
   11      O      -0.7493982335    -2.2684689436    -0.3527933866
   12      O       1.0561761255     2.8653093865     0.1189243577
   13      H       1.6249539197    -2.8533306243    -0.1679431454
   14      H       4.0771548391    -2.4298974228     0.0278764774
   15      H       4.9078530912    -0.0857761243     0.2218828549
   16      H       3.2747057762     1.8023442608     0.2180104136
   17      S      -2.9998304530    -0.2406557218    -0.3683960738
   18      C      -3.3596665719    -1.5081429689     0.9061567851
   19      C      -1.7258370845     2.5568780016    -0.0207354650
   20      H      -4.4261791150    -1.7294497559     0.8203427416
   21      H      -3.1519442037    -1.1158270612     1.9035218479
   22      H      -2.7625884885    -2.3962371023     0.7117924134
   23      H      -2.1159409416     2.7861889207    -1.0208648484
   24      H      -1.1825910861     3.4345147724     0.3303360132
   25      H      -2.5919531961     2.3606539174     0.6158558265
 ----------------------------------------------------------------

   10   -1012.1994624652      7.53e-06  Convergence criterion met
 Total energy in the final basis set =    -1012.1994624652
    5   -1012.2805388866      4.67e-06  Convergence criterion met
 Total energy in the final basis set =    -1012.2805388866

                    Orbital Energies (a.u.)
 --------------------------------------------------------------

 Alpha MOs
 -- Occupied --
-88.8377 -19.0795 -19.0790 -10.2287 -10.2237 -10.1916 -10.1788 -10.1778
-10.1745 -10.1738 -10.1727 -10.1722 -10.1700 -10.1697 -10.1511  -7.9236
 -5.8876  -5.8838  -5.8776  -1.0071  -1.0038  -0.8595  -0.8245  -0.7716
 -0.7509  -0.7495  -0.6999  -0.6620  -0.6401  -0.5979  -0.5835  -0.5534
 -0.5142  -0.4898  -0.4673  -0.4486  -0.4326  -0.4272  -0.4242  -0.4215
 -0.4135  -0.4092  -0.3966  -0.3862  -0.3822  -0.3736  -0.3669  -0.3535
 -0.3493  -0.3382  -0.3189  -0.2750  -0.2576  -0.2558  -0.2503  -0.2395
 -0.2200  -0.1552

 Beta MOs
 -- Occupied --
-88.8376 -19.0735 -19.0732 -10.2271 -10.2219 -10.1904 -10.1787 -10.1760
-10.1740 -10.1733 -10.1724 -10.1718 -10.1700 -10.1696 -10.1512  -7.9236
 -5.8876  -5.8838  -5.8774  -0.9973  -0.9928  -0.8574  -0.8206  -0.7697
 -0.7488  -0.7478  -0.6965  -0.6567  -0.6376  -0.5967  -0.5804  -0.5506
 -0.5119  -0.4875  -0.4647  -0.4475  -0.4263  -0.4246  -0.4205  -0.4185
 -0.4104  -0.4061  -0.3902  -0.3821  -0.3801  -0.3663  -0.3551  -0.3502
 -0.3398  -0.3366  -0.3159  -0.2554  -0.2512  -0.2491  -0.2446  -0.2343
 -0.2144

          Ground-State Mulliken Net Atomic Charges

     Atom                 Charge (a.u.)    Spin (a.u.)
  --------------------------------------------------------
      1 C                     0.026483       0.030390
      2 C                    -0.417117       0.029394
      3 C                    -0.480028       0.018944
      4 C                     0.923079       0.040754
      5 C                     0.492242       0.014904
      6 C                     0.062864       0.034977
      7 C                    -1.526236       0.099922
      8 C                     1.129930       0.059622
      9 C                     0.638928       0.126255
     10 C                    -1.348091       0.101476
     11 O                    -0.466941       0.202502
     12 O                    -0.490291       0.228380
     13 H                     0.181988      -0.002089
     14 H                     0.205618      -0.002124
     15 H                     0.204812      -0.001826
     16 H                     0.177684      -0.002515
     17 S                    -0.596267       0.012785
     18 C                    -0.623113       0.004124
     19 C                    -0.177366      -0.008190
     20 H                     0.179071       0.001514
     21 H                     0.184329       0.000061
     22 H                     0.197286      -0.000957
     23 H                     0.191443       0.008698
     24 H                     0.179229      -0.001019
     25 H                     0.150467       0.004016
  --------------------------------------------------------
  Sum of atomic charges =    -1.000000

                    Cartesian Multipole Moments
 -----------------------------------------------------------------
    Charge (ESU x 10^10)
                -4.8032
    Dipole Moment (Debye)
         X       0.3768      Y      -2.1808      Z       2.0568
       Tot       3.0213
    Quadrupole Moments (Debye-Ang)
        XX    -101.3720     XY     -10.3812     YY    -128.3943
        XZ      -5.5580     YZ      -4.8898     ZZ    -101.7370

 Total job time:  97.87s(wall), 481.27s(cpu)
        *  Thank you very much for using Q-Chem.  Have a nice day.  *
