 Gaussian 16, Revision A.03,
 Gaussian 16:  ES64L-G16RevA.03 25-Dec-2016

 ----------------------------------------------------------------------
 #P UB3LYP/6-311++G(d,p) nosym opt freq SCRF=(PCM,Solvent=n,n-DiMethylF
 ormamide)
 ----------------------------------------------------------------------

 --------
 Oxidized
 --------
 Symbolic Z-matrix:
 Charge =  0 Multiplicity = 1

 SCF Done:  E(UB3LYP) =  -751.553739733     A.U. after   16 cycles
 SCF Done:  E(UB3LYP) =  -751.553991090     A.U. after   12 cycles
 SCF Done:  E(UB3LYP) =  -751.554033962     A.U. after   12 cycles
 SCF Done:  E(UB3LYP) =  -751.554014498     A.U. after   11 cycles
 SCF Done:  E(UB3LYP) =  -751.554024751     A.U. after   10 cycles
 SCF Done:  E(UB3LYP) =  -751.554052493     A.U. after   11 cycles
 SCF Done:  E(UB3LYP) =  -751.554053922     A.U. after    9 cycles
 SCF Done:  E(UB3LYP) =  -751.554054517     A.U. after    8 cycles
 SCF Done:  E(UB3LYP) =  -751.554054487     A.U. after    8 cycles
 SCF Done:  E(UB3LYP) =  -751.554054654     A.U. after    8 cycles
 Optimization completed.
    -- Stationary point found.
 Normal termination of Gaussian 16 at Sat Feb 10 12:08:24 2024.

 ----------------------------------------------------------------------
 #P Geom=AllCheck Guess=TCheck SCRF=Check GenChk UB3LYP/6-311++G(d,p) F
 req
 ----------------------------------------------------------------------

 Structure from the checkpoint file:  "106.chk"
 --------
 Oxidized
 --------
 Charge =  0 Multiplicity = 1

                          Input orientation:
 ---------------------------------------------------------------------
 Center     Atomic      Atomic             Coordinates (Angstroms)
 Number     Number       Type             X           Y           Z
 ---------------------------------------------------------------------
      1          6           0       -0.759216   -1.691471    3.603428
      2          6           0        0.317003   -2.455571    2.905993
      3          6           0        0.401446   -2.301997    1.572207
      4          6           0       -0.497371   -1.431057    0.764764
      5          6           0       -1.532393   -0.696027    1.428521
      6          6           0       -1.693892   -0.792175    2.786905
      7          8           0       -0.933807   -1.749121    4.810118
      8          8           0       -0.311484   -1.377260   -0.462217
      9          7           0       -2.601444   -0.182557    3.564622
     10          6           0       -3.692520    0.761285    3.217264
     11          6           0       -4.383370    1.102938    4.546953
     12          6           0       -4.709569    0.089929    2.275521
     13          6           0       -3.117873    2.049343    2.598941
     14          1           0       -2.163525   -0.076289    0.809622
     15          1           0       -2.508037   -0.423150    4.545483
     16          1           0       -3.683763    1.576073    5.241666
     17          1           0       -4.791337    0.204414    5.018336
     18          1           0       -5.206806    1.796814    4.370021
     19          1           0       -5.116070   -0.813848    2.735770
     20          1           0       -4.272029   -0.182758    1.314664
     21          1           0       -5.535600    0.778492    2.082177
     22          1           0       -2.408801    2.518076    3.285492
     23          1           0       -3.930031    2.755047    2.408900
     24          1           0       -2.607821    1.866533    1.652695
     25          6           0        1.254239   -3.358170    3.719657
     26          6           0        0.435696   -4.460732    4.436132
     27          6           0        2.285343   -4.051038    2.809228
     28          6           0        2.030422   -2.512722    4.759772
     29          1           0        1.151107   -2.817524    0.985889
     30          1           0       -0.275378   -4.041127    5.146517
     31          1           0        1.116588   -5.120612    4.981317
     32          1           0       -0.112758   -5.069266    3.711267
     33          1           0        1.807685   -4.692279    2.063474
     34          1           0        2.932955   -4.682544    3.422041
     35          1           0        2.922256   -3.330384    2.289112
     36          1           0        1.362243   -2.039525    5.478080
     37          1           0        2.618930   -1.734530    4.265204
     38          1           0        2.721814   -3.158830    5.308217
 ---------------------------------------------------------------------

 SCF Done:  E(UB3LYP) =  -751.554054654     A.U. after    1 cycles

 Alpha  occ. eigenvalues --  -19.14764 -19.11314 -14.35372 -10.29472 -10.26381
 Alpha  occ. eigenvalues --  -10.25120 -10.23682 -10.21200 -10.20310 -10.20070
 Alpha  occ. eigenvalues --  -10.17360 -10.16891 -10.16603 -10.16603 -10.16198
 Alpha  occ. eigenvalues --  -10.15986 -10.15985  -1.08362  -1.03845  -0.96593
 Alpha  occ. eigenvalues --   -0.86202  -0.82931  -0.80162  -0.75762  -0.70323
 Alpha  occ. eigenvalues --   -0.69992  -0.69970  -0.69003  -0.68653  -0.64270
 Alpha  occ. eigenvalues --   -0.61162  -0.58639  -0.54794  -0.53720  -0.51000
 Alpha  occ. eigenvalues --   -0.50331  -0.48294  -0.46785  -0.46730  -0.45325
 Alpha  occ. eigenvalues --   -0.45003  -0.44311  -0.44031  -0.43619  -0.41724
 Alpha  occ. eigenvalues --   -0.41208  -0.40973  -0.40587  -0.39420  -0.38991
 Alpha  occ. eigenvalues --   -0.38360  -0.37952  -0.37759  -0.37076  -0.36393
 Alpha  occ. eigenvalues --   -0.35704  -0.34590  -0.34350  -0.33800  -0.33370
 Alpha  occ. eigenvalues --   -0.29271  -0.28759  -0.26704  -0.23259
 Alpha virt. eigenvalues --   -0.12256  -0.01043  -0.01032  -0.00141   0.00548
 Alpha virt. eigenvalues --    0.00899   0.01567   0.01705   0.02055   0.02418
 Alpha virt. eigenvalues --    0.03049   0.03412   0.03434   0.03817   0.04534

  Beta  occ. eigenvalues --  -19.14764 -19.11314 -14.35372 -10.29472 -10.26381
  Beta  occ. eigenvalues --  -10.25120 -10.23682 -10.21200 -10.20310 -10.20070
  Beta  occ. eigenvalues --  -10.17360 -10.16891 -10.16603 -10.16603 -10.16198
  Beta  occ. eigenvalues --  -10.15986 -10.15985  -1.08362  -1.03845  -0.96593
  Beta  occ. eigenvalues --   -0.86202  -0.82931  -0.80162  -0.75762  -0.70323
  Beta  occ. eigenvalues --   -0.69992  -0.69970  -0.69003  -0.68653  -0.64270
  Beta  occ. eigenvalues --   -0.61162  -0.58639  -0.54794  -0.53720  -0.51000
  Beta  occ. eigenvalues --   -0.50331  -0.48294  -0.46785  -0.46730  -0.45325
  Beta  occ. eigenvalues --   -0.45003  -0.44311  -0.44031  -0.43619  -0.41724
  Beta  occ. eigenvalues --   -0.41208  -0.40973  -0.40587  -0.39420  -0.38991
  Beta  occ. eigenvalues --   -0.38360  -0.37952  -0.37759  -0.37076  -0.36393
  Beta  occ. eigenvalues --   -0.35704  -0.34590  -0.34350  -0.33800  -0.33370
  Beta  occ. eigenvalues --   -0.29271  -0.28759  -0.26704  -0.23259
  Beta virt. eigenvalues --   -0.12256  -0.01043  -0.01032  -0.00141   0.00548
  Beta virt. eigenvalues --    0.00899   0.01567   0.01705   0.02055   0.02418
  Beta virt. eigenvalues --    0.03049   0.03412   0.03434   0.03817   0.04534

 Mulliken charges and spin densities:
               1          2
     1  C   -0.623766  -0.000000
     2  C    0.979559   0.000000
     3  C   -0.209726  -0.000000
     4  C   -0.605527   0.000000
     5  C   -0.030309  -0.000000
     6  C   -0.005237  -0.000000
     7  O   -0.226855   0.000000
     8  O   -0.380156   0.000000
     9  N    0.102731   0.000000
    10  C   -0.125505  -0.000000
    11  C   -0.519284  -0.000000
    12  C   -0.414849   0.000000
    13  C   -0.414618   0.000000
    14  H    0.222386  -0.000000
    15  H    0.357810  -0.000000
    16  H    0.162073   0.000000
    17  H    0.161832  -0.000000
    18  H    0.169560   0.000000
    19  H    0.169190   0.000000
    20  H    0.136760   0.000000
    21  H    0.175018   0.000000
    22  H    0.169100  -0.000000
    23  H    0.175284   0.000000
    24  H    0.136397   0.000000
    25  C    0.575606   0.000000
    26  C   -0.684775   0.000000
    27  C   -0.456924   0.000000
    28  C   -0.684974   0.000000
    29  H    0.239615  -0.000000
    30  H    0.177215   0.000000
    31  H    0.164432   0.000000
    32  H    0.149617  -0.000000
    33  H    0.141290   0.000000
    34  H    0.184508  -0.000000
    35  H    0.141063   0.000000
    36  H    0.177392   0.000000
    37  H    0.149660  -0.000000
    38  H    0.164404   0.000000
 Sum of Mulliken charges =  -0.00000  -0.00000

 Dipole moment (field-independent basis, Debye):
    X=             -2.6188    Y=              1.3089    Z=              4.8585  Tot=              5.6724
 Quadrupole moment (field-independent basis, Debye-Ang):
   XX=            -85.8064   YY=            -99.5405   ZZ=           -101.8217
   XY=             -9.8991   XZ=            -10.0601   YZ=             -0.7696

  Exact polarizability: 242.229 -43.516 217.196 -31.974   3.929 314.699
 Approx polarizability: 249.746 -33.026 224.691 -50.722   6.881 405.416

                      1                      2                      3
                      A                      A                      A
 Frequencies --     31.0572                49.1131                71.8943
 Red. masses --      4.0248                 2.8259                 3.8110
 Frc consts  --      0.0023                 0.0040                 0.0116
 IR Inten    --      3.7381                 0.0423                 1.0831

                      4                      5                      6
                      A                      A                      A
 Frequencies --     82.4380               108.5923               137.5629
 Red. masses --      4.3695                 3.8196                 4.0567
 Frc consts  --      0.0175                 0.0265                 0.0452
 IR Inten    --      0.2626                 0.7847                 7.2701

                      7                      8                      9
                      A                      A                      A
 Frequencies --    170.7334               179.4956               206.8209
 Red. masses --      1.8569                 3.6244                 1.3735
 Frc consts  --      0.0319                 0.0688                 0.0346
 IR Inten    --      0.0822                 1.3554                 0.0509

                     10                     11                     12
                      A                      A                      A
 Frequencies --    217.2237               232.3914               239.0325
 Red. masses --      1.3731                 1.1764                 1.7339
 Frc consts  --      0.0382                 0.0374                 0.0584
 IR Inten    --      1.1120                 0.2978                 0.4356

                     13                     14                     15
                      A                      A                      A
 Frequencies --    256.6170               270.1234               278.6826
 Red. masses --      1.6095                 2.2845                 1.9318
 Frc consts  --      0.0624                 0.0982                 0.0884
 IR Inten    --      0.1063                 0.0010                 1.2293

                     16                     17                     18
                      A                      A                      A
 Frequencies --    279.5199               294.0273               330.1626
 Red. masses --      1.3593                 2.4681                 1.0977
 Frc consts  --      0.0626                 0.1257                 0.0705
 IR Inten    --      0.6738                 0.2659                 0.0866

                     19                     20                     21
                      A                      A                      A
 Frequencies --    338.0449               345.2394               376.4607
 Red. masses --      3.3467                 2.4284                 2.2853
 Frc consts  --      0.2253                 0.1705                 0.1908
 IR Inten    --      5.9621                 0.0730                 0.0056

                     22                     23                     24
                      A                      A                      A
 Frequencies --    395.0582               414.0256               426.0559
 Red. masses --      2.5894                 2.7658                 3.0040
 Frc consts  --      0.2381                 0.2793                 0.3213
 IR Inten    --      2.0670                 1.5596                 0.5257

                     25                     26                     27
                      A                      A                      A
 Frequencies --    451.5329               457.1976               475.7104
 Red. masses --      6.7809                 5.1802                 3.2738
 Frc consts  --      0.8145                 0.6380                 0.4365
 IR Inten    --     65.8226                 6.0742                15.7798

                     28                     29                     30
                      A                      A                      A
 Frequencies --    479.3912               526.6955               570.6892
 Red. masses --      3.4174                 2.8405                 1.7855
 Frc consts  --      0.4627                 0.4643                 0.3426
 IR Inten    --      4.1810                11.0281                91.5949

                     31                     32                     33
                      A                      A                      A
 Frequencies --    591.5711               623.5214               688.0211
 Red. masses --      1.6810                 5.4135                 4.8127
 Frc consts  --      0.3466                 1.2400                 1.3423
 IR Inten    --     26.9215                 1.4652                 1.0303

                     34                     35                     36
                      A                      A                      A
 Frequencies --    699.6257               756.2771               784.9258
 Red. masses --      3.7293                 4.3175                 4.1453
 Frc consts  --      1.0755                 1.4549                 1.5048
 IR Inten    --      2.9790                 1.2609                 3.9207

                     37                     38                     39
                      A                      A                      A
 Frequencies --    804.5636               819.1739               828.7507
 Red. masses --      4.2857                 5.4235                 1.6193
 Frc consts  --      1.6345                 2.1443                 0.6553
 IR Inten    --      9.4613                 2.9178                53.9718

                     40                     41                     42
                      A                      A                      A
 Frequencies --    886.7012               923.1408               924.1598
 Red. masses --      2.7326                 1.7548                 1.7948
 Frc consts  --      1.2658                 0.8811                 0.9031
 IR Inten    --     27.5952                 4.3322                 9.9135

                     43                     44                     45
                      A                      A                      A
 Frequencies --    926.5136               935.9762               938.3735
 Red. masses --      1.9800                 1.7767                 1.5149
 Frc consts  --      1.0014                 0.9171                 0.7859
 IR Inten    --      0.5776                 3.4192                27.1812

                     46                     47                     48
                      A                      A                      A
 Frequencies --    951.3519               964.4304               968.9663
 Red. masses --      2.1927                 1.1968                 1.1963
 Frc consts  --      1.1693                 0.6559                 0.6618
 IR Inten    --      5.0388                 0.0295                 0.0974

                     49                     50                     51
                      A                      A                      A
 Frequencies --    995.5876              1047.6542              1048.5805
 Red. masses --      2.9032                 1.3824                 1.3951
 Frc consts  --      1.6954                 0.8939                 0.9038
 IR Inten    --     87.3852                 0.1653                 2.1040

                     52                     53                     54
                      A                      A                      A
 Frequencies --   1051.8658              1060.2774              1167.1581
 Red. masses --      1.4229                 1.4288                 2.3787
 Frc consts  --      0.9276                 0.9464                 1.9092
 IR Inten    --      3.4238                 4.2147                61.4076

                     55                     56                     57
                      A                      A                      A
 Frequencies --   1216.1084              1220.7411              1226.8504
 Red. masses --      2.7190                 2.4279                 2.2483
 Frc consts  --      2.3692                 2.1317                 1.9938
 IR Inten    --      6.6733               134.8409               149.0315

                     58                     59                     60
                      A                      A                      A
 Frequencies --   1236.6014              1239.7643              1265.6603
 Red. masses --      2.7417                 2.7634                 2.3127
 Frc consts  --      2.4702                 2.5025                 2.1828
 IR Inten    --     91.7665                23.0082                45.6688

                     61                     62                     63
                      A                      A                      A
 Frequencies --   1281.2778              1309.5291              1350.3701
 Red. masses --      2.6601                 2.0454                 2.1706
 Frc consts  --      2.5729                 2.0667                 2.3320
 IR Inten    --    256.8449                50.5092                41.5545

                     64                     65                     66
                      A                      A                      A
 Frequencies --   1377.5087              1388.4421              1394.5481
 Red. masses --      5.9020                 1.1989                 1.2385
 Frc consts  --      6.5984                 1.3618                 1.4191
 IR Inten    --    126.5418                10.4789                21.6774

                     67                     68                     69
                      A                      A                      A
 Frequencies --   1401.2748              1401.3878              1421.0181
 Red. masses --      1.2269                 1.2244                 1.2237
 Frc consts  --      1.4194                 1.4167                 1.4558
 IR Inten    --     16.9878                16.0411                 7.5149

                     70                     71                     72
                      A                      A                      A
 Frequencies --   1427.3533              1474.9909              1475.6822
 Red. masses --      1.2208                 1.0475                 1.0463
 Frc consts  --      1.4654                 1.3427                 1.3424
 IR Inten    --     20.1148                 0.4358                 0.0155

                     73                     74                     75
                      A                      A                      A
 Frequencies --   1480.8789              1481.2329              1488.8013
 Red. masses --      1.0456                 1.0455                 1.0448
 Frc consts  --      1.3510                 1.3516                 1.3644
 IR Inten    --      8.3753                 8.6149                 0.4332

                     76                     77                     78
                      A                      A                      A
 Frequencies --   1488.9618              1492.8492              1493.2948
 Red. masses --      1.0464                 1.0564                 1.0643
 Frc consts  --      1.3668                 1.3872                 1.3983
 IR Inten    --      0.4830                42.6805                21.4516

                     79                     80                     81
                      A                      A                      A
 Frequencies --   1497.5787              1502.5966              1509.9212
 Red. masses --      1.0538                 1.0493                 1.0642
 Frc consts  --      1.3924                 1.3958                 1.4295
 IR Inten    --      9.1172                12.2314                14.0502

                     82                     83                     84
                      A                      A                      A
 Frequencies --   1516.7667              1550.6639              1596.3938
 Red. masses --      1.0625                 1.7339                 5.6084
 Frc consts  --      1.4402                 2.4565                 8.4211
 IR Inten    --     32.4881               923.5209              1339.0876

                     85                     86                     87
                      A                      A                      A
 Frequencies --   1636.6051              1669.8057              1708.3373
 Red. masses --      9.9610                 7.5914                11.1704
 Frc consts  --     15.7196                12.4711                19.2072
 IR Inten    --     55.9938               316.4171               263.4967

                     88                     89                     90
                      A                      A                      A
 Frequencies --   3023.5044              3025.3601              3027.7804
 Red. masses --      1.0354                 1.0375                 1.0360
 Frc consts  --      5.5769                 5.5948                 5.5956
 IR Inten    --     27.3475                64.4607                31.4481

                     91                     92                     93
                      A                      A                      A
 Frequencies --   3031.4325              3036.8623              3042.4649
 Red. masses --      1.0382                 1.0359                 1.0371
 Frc consts  --      5.6212                 5.6291                 5.6560
 IR Inten    --     40.8423                41.3987                15.9465

                     94                     95                     96
                      A                      A                      A
 Frequencies --   3083.2877              3084.2356              3090.2454
 Red. masses --      1.1025                 1.1020                 1.1025
 Frc consts  --      6.1754                 6.1762                 6.2031
 IR Inten    --     15.7990                40.3855                57.6224

                     97                     98                     99
                      A                      A                      A
 Frequencies --   3091.8127              3094.8890              3101.3249
 Red. masses --      1.1032                 1.1010                 1.1028
 Frc consts  --      6.2133                 6.2136                 6.2496
 IR Inten    --     32.0052                83.8191                28.6615

                    100                    101                    102
                      A                      A                      A
 Frequencies --   3102.8295              3113.3715              3118.5124
 Red. masses --      1.1025                 1.1008                 1.1005
 Frc consts  --      6.2541                 6.2869                 6.3056
 IR Inten    --     27.7512                54.9012                 2.2384

                    103                    104                    105
                      A                      A                      A
 Frequencies --   3120.4510              3127.6339              3129.8919
 Red. masses --      1.1001                 1.0988                 1.0981
 Frc consts  --      6.3114                 6.3328                 6.3381
 IR Inten    --     67.2360                 0.0656                42.3779

                    106                    107                    108
                      A                      A                      A
 Frequencies --   3202.5326              3223.8099              3537.1189
 Red. masses --      1.0905                 1.0904                 1.0756
 Frc consts  --      6.5899                 6.6767                 7.9283
 IR Inten    --      7.7835                 7.2337               170.9182

 - Thermochemistry -
 -------------------
 Temperature   298.150 Kelvin.  Pressure   1.00000 Atm.
 Atom     1 has atomic number  6 and mass  12.00000

 Molecular mass:   235.15723 amu.
 Principal axes and moments of inertia in atomic units:
                           1         2         3
     Eigenvalues --  2293.078506455.699347939.82188
           X            0.76988  -0.11994   0.62681
           Y           -0.63628  -0.06841   0.76842
           Z            0.04929   0.99042   0.12898
 This molecule is an asymmetric top.
 Rotational symmetry number  1.
 Warning -- assumption of classical behavior for rotation
           may cause significant error
 Rotational temperatures (Kelvin)      0.03777     0.01342     0.01091
 Rotational constants (GHZ):           0.78704     0.27956     0.22730
 Zero-point vibrational energy     853606.8 (Joules/Mol)
                                  204.01691 (Kcal/Mol)
 Warning -- explicit consideration of  31 degrees of freedom as
           vibrations may cause significant error
 Vibrational temperatures:     44.68    70.66   103.44   118.61   156.24
          (Kelvin)            197.92   245.65   258.25   297.57   312.54
                              334.36   343.91   369.21   388.65   400.96
                              402.17   423.04   475.03   486.37   496.72
                              541.64   568.40   595.69   613.00   649.66
                              657.81   684.44   689.74   757.80   821.09
                              851.14   897.11   989.91  1006.61  1088.11
                             1129.33  1157.59  1178.61  1192.39  1275.77
                             1328.19  1329.66  1333.05  1346.66  1350.11
                             1368.78  1387.60  1394.13  1432.43  1507.34
                             1508.67  1513.40  1525.50  1679.28  1749.71
                             1756.37  1765.16  1779.19  1783.74  1821.00
                             1843.47  1884.12  1942.88  1981.93  1997.66
                             2006.44  2016.12  2016.28  2044.53  2053.64
                             2122.18  2123.18  2130.65  2131.16  2142.05
                             2142.28  2147.88  2148.52  2154.68  2161.90
                             2172.44  2182.29  2231.06  2296.85  2354.71
                             2402.48  2457.92  4350.15  4352.82  4356.30
                             4361.56  4369.37  4377.43  4436.16  4437.53
                             4446.17  4448.43  4452.85  4462.11  4464.28
                             4479.45  4486.84  4489.63  4499.97  4503.22
                             4607.73  4638.34  5089.13

 Zero-point correction=                           0.325122 (Hartree/Particle)
 Thermal correction to Energy=                    0.343692
 Thermal correction to Enthalpy=                  0.344636
 Thermal correction to Gibbs Free Energy=         0.279713
 Sum of electronic and zero-point Energies=           -751.228933
 Sum of electronic and thermal Energies=              -751.210363
 Sum of electronic and thermal Enthalpies=            -751.209419
 Sum of electronic and thermal Free Energies=         -751.274342

                     E (Thermal)             CV                S
                      KCal/Mol        Cal/Mol-Kelvin    Cal/Mol-Kelvin
 Total                  215.670             71.910            136.642
 Electronic               0.000              0.000              0.000
 Translational            0.889              2.981             42.267
 Rotational               0.889              2.981             33.130
 Vibrational            213.892             65.949             61.246
 Vibration     1          0.594              1.983              5.761
 Vibration     2          0.595              1.978              4.853
 Vibration     3          0.598              1.967              4.101
 Vibration     4          0.600              1.961              3.832
 Vibration     5          0.606              1.942              3.294
 Vibration     6          0.614              1.916              2.837
 Vibration     7          0.626              1.879              2.427
 Vibration     8          0.629              1.867              2.334
 Vibration     9          0.641              1.830              2.072
 Vibration    10          0.646              1.815              1.982
 Vibration    11          0.653              1.791              1.860
 Vibration    12          0.657              1.781              1.810
 Vibration    13          0.666              1.752              1.685
 Vibration    14          0.674              1.728              1.595
 Vibration    15          0.679              1.713              1.542
 Vibration    16          0.680              1.711              1.537
 Vibration    17          0.689              1.685              1.451
 Vibration    18          0.713              1.615              1.259
 Vibration    19          0.718              1.599              1.221
 Vibration    20          0.724              1.585              1.188
 Vibration    21          0.747              1.520              1.053
 Vibration    22          0.762              1.481              0.981
 Vibration    23          0.778              1.440              0.913
 Vibration    24          0.788              1.414              0.872
 Vibration    25          0.810              1.358              0.791
 Vibration    26          0.815              1.345              0.774
 Vibration    27          0.832              1.304              0.722
 Vibration    28          0.836              1.296              0.712
 Vibration    29          0.882              1.191              0.595
 Vibration    30          0.927              1.095              0.503
 Vibration    31          0.949              1.050              0.464

 Optimization completed.
    -- Stationary point found.
 Normal termination of Gaussian 16 at Sat Feb 10 14:12:03 2024.
