 Q-Chem 5.4, Q-Chem, Inc., Pleasanton, CA (2021)
 Q-Chem 5.4.0 for Intel X86 EM64T Linux

User input:
--------------------------------------------------------------
$molecule
-2 1
C                 -1.5834750000      0.7203230000      1.5050270000
C                 -2.7544450000      1.1597250000      0.7598160000
C                 -2.6789140000      1.0889390000     -0.6420000000
C                 -1.5740350000      0.6328650000     -1.4352060000
C                 -0.4021380000      0.1958170000     -0.6900630000
C                 -0.4783540000      0.2648400000      0.7118010000
O                 -1.6279340000      0.6157930000     -2.7269110000
O                 -1.5304480000      0.7350600000      2.7967960000
Cl                 0.8929040000     -0.2439170000      1.7900370000
Cl                -4.0521220000      1.5928060000     -1.7200460000
C                  0.7838480000     -0.2935270000     -1.5808940000
C                  1.2184450000      0.8733500000     -2.5092270000
C                  2.0800580000     -0.7791810000     -0.8943480000
C                  0.2946430000     -1.4915240000     -2.4396230000
C                 -3.9388560000      1.6532420000      1.6504500000
C                 -3.4450120000      2.8489430000      2.5098770000
C                 -5.2324560000      2.1453390000      0.9635720000
C                 -4.3786560000      0.4878690000      2.5780850000
H                  0.3522760000      1.2487830000     -3.0554960000
H                  1.9835140000      0.5276050000     -3.2216860000
H                  1.6555310000      1.6801590000     -1.9089760000
H                  2.5565840000     -0.0020670000     -0.2954260000
H                  2.7789610000     -1.0737580000     -1.6910870000
H                  1.9173050000     -1.6434890000     -0.2492990000
H                  0.0807030000     -2.3488000000     -1.7903380000
H                  1.0773590000     -1.7929760000     -3.1530460000
H                 -0.6071600000     -1.2076900000     -2.9835650000
H                 -2.5444210000      2.5614820000      3.0538810000
H                 -4.2267000000      3.1530090000      3.2233020000
H                 -3.2277740000      3.7057130000      1.8610120000
H                 -5.0647130000      3.0075760000      0.3169650000
H                 -5.9292550000      2.4455040000      1.7600680000
H                 -5.7138980000      1.3701370000      0.3661740000
H                 -3.5142620000      0.1091530000      3.1249290000
H                 -4.8181540000     -0.3172270000      1.9772990000
H                 -5.1430480000      0.8362230000      3.2900160000
$end
$rem
MAX_SCF_CYCLES=200
BASIS  =  6-311++G(d,p)
GUI  =  2
JOB_TYPE  =  SP
METHOD  =  B3LYP
SOLVENT_METHOD = COSMO
$end
$solvent
dielectric 37.219
opticaldielectric 1.43
$end

--------------------------------------------------------------

             Standard Nuclear Orientation (Angstroms)
    I     Atom           X                Y                Z
 ----------------------------------------------------------------
    1      C      -0.6361971484    -1.3260828374    -0.0021013544
    2      C      -1.4579697724    -0.1243043000    -0.0005539241
    3      C      -0.7816586331     1.1079321716    -0.0010106953
    4      C       0.6362176014     1.3260232624    -0.0006697034
    5      C       1.4579930935     0.1242430426     0.0003137274
    6      C       0.7816888249    -1.1079932189    -0.0011214979
    7      O       1.1391160368     2.5171534172    -0.0013628375
    8      O      -1.1390570321    -2.5172271986    -0.0039012139
    9      Cl      1.6557243002    -2.7010510329    -0.0030832555
   10      Cl     -1.6557409856     2.7009589936    -0.0043165312
   11      C       2.9964236819     0.3941113412     0.0019382602
   12      C       3.3525415240     1.2148243463     1.2715401231
   13      C       3.9639331655    -0.8105809896     0.0046528597
   14      C       3.3554070426     1.2123525527    -1.2683160868
   15      C      -2.9964206081    -0.3940788980     0.0022851933
   16      C      -3.3510119537    -1.2151086444     1.2720775697
   17      C      -3.9637998189     0.8107120647     0.0065281706
   18      C      -3.3571337706    -1.2118812082    -1.2677976222
   19      H       2.7253522484     2.1058607829     1.3194585495
   20      H       4.4131108982     1.5099878793     1.2483216455
   21      H       3.1920492870     0.6008289045     2.1657090312
   22      H       3.8473103525    -1.4430237536     0.8856216614
   23      H       4.9867681145    -0.4058139337     0.0071715748
   24      H       3.8518283302    -1.4435250319    -0.8764937885
   25      H       3.1960867280     0.5969576511    -2.1617194824
   26      H       4.4160698432     1.5071164211    -1.2438475924
   27      H       2.7286079031     2.1035688814    -1.3187103713
   28      H      -2.7240174294    -2.1063700949     1.3186524687
   29      H      -4.4117052816    -1.5099441417     1.2504168719
   30      H      -3.1889223792    -0.6014799584     2.1662027150
   31      H      -3.8461375628     1.4428031474     0.8876112695
   32      H      -4.9866748667     0.4060536362     0.0099842526
   33      H      -3.8526035667     1.4439882701    -0.8744971139
   34      H      -2.7305554561    -2.1031580370    -1.3194346877
   35      H      -3.1990304184    -0.5962119835    -2.1612385071
   36      H      -4.4178045014    -1.5064958290    -1.2418898294
 ----------------------------------------------------------------

   10   -1615.3784326638      6.96e-06  Convergence criterion met
 Total energy in the final basis set =    -1615.3784326638
    5   -1615.6365408553      5.40e-06  Convergence criterion met
 Total energy in the final basis set =    -1615.6365408553

                    Orbital Energies (a.u.)
 --------------------------------------------------------------

 Alpha MOs
 -- Occupied --
********-101.5148 -19.0153 -19.0153 -10.1857 -10.1857 -10.1817 -10.1817
-10.1699 -10.1699 -10.1493 -10.1493 -10.1350 -10.1350 -10.1294 -10.1294
-10.1293 -10.1293  -9.4299  -9.4299  -7.1938  -7.1938  -7.1856  -7.1856
 -7.1843  -7.1843  -0.9427  -0.9383  -0.8303  -0.8248  -0.7910  -0.7869
 -0.7540  -0.6850  -0.6599  -0.6599  -0.6581  -0.6570  -0.6395  -0.5854
 -0.5239  -0.5215  -0.5019  -0.4637  -0.4410  -0.4387  -0.4157  -0.4147
 -0.4110  -0.4031  -0.3932  -0.3911  -0.3904  -0.3775  -0.3680  -0.3645
 -0.3550  -0.3537  -0.3469  -0.3401  -0.3349  -0.3279  -0.3220  -0.3205
 -0.3114  -0.3105  -0.3048  -0.3007  -0.2897  -0.2896  -0.2714  -0.2665
 -0.2256  -0.2048  -0.1970  -0.1929  -0.1240

          Ground-State Mulliken Net Atomic Charges

     Atom                 Charge (a.u.)
  ----------------------------------------
      1 C                    -0.892680
      2 C                     0.168822
      3 C                    -0.155838
      4 C                    -0.892039
      5 C                     0.167442
      6 C                    -0.155334
      7 O                    -0.575516
      8 O                    -0.575560
      9 Cl                    0.435177
     10 Cl                    0.435165
     11 C                     0.691087
     12 C                    -0.671871
     13 C                    -0.616029
     14 C                    -0.672089
     15 C                     0.690165
     16 C                    -0.672212
     17 C                    -0.615793
     18 C                    -0.671287
     19 H                     0.183339
     20 H                     0.137454
     21 H                     0.128648
     22 H                     0.129764
     23 H                     0.130390
     24 H                     0.129982
     25 H                     0.128792
     26 H                     0.137523
     27 H                     0.183386
     28 H                     0.183251
     29 H                     0.137471
     30 H                     0.128616
     31 H                     0.129861
     32 H                     0.130345
     33 H                     0.129896
     34 H                     0.183457
     35 H                     0.128822
     36 H                     0.137394
  ----------------------------------------
  Sum of atomic charges =    -2.000000

                    Cartesian Multipole Moments
 -----------------------------------------------------------------
    Charge (ESU x 10^10)
                -9.6064
    Dipole Moment (Debye)
         X       0.0002      Y       0.0004      Z       0.0224
       Tot       0.0224
    Quadrupole Moments (Debye-Ang)
        XX    -157.9059     XY      -9.6981     YY    -198.4648
        XZ      -0.0113     YZ      -0.0183     ZZ    -137.2317

 Total job time:  106.66s(wall), 828.96s(cpu)
        *  Thank you very much for using Q-Chem.  Have a nice day.  *
