 Gaussian 16, Revision A.03,
 Gaussian 16:  ES64L-G16RevA.03 25-Dec-2016

 --------------------------------------
 #P UB3LYP/6-311++G(d,p) nosym opt freq
 --------------------------------------

 -------
 Radical
 -------
 Symbolic Z-matrix:
 Charge = -1 Multiplicity = 2

 SCF Done:  E(UB3LYP) =  -610.486983299     A.U. after   23 cycles
 SCF Done:  E(UB3LYP) =  -610.511450956     A.U. after   21 cycles
 SCF Done:  E(UB3LYP) =  -610.519682874     A.U. after   19 cycles
 SCF Done:  E(UB3LYP) =  -610.522922656     A.U. after   19 cycles
 SCF Done:  E(UB3LYP) =  -610.523966595     A.U. after   20 cycles
 SCF Done:  E(UB3LYP) =  -610.524301660     A.U. after   16 cycles
 SCF Done:  E(UB3LYP) =  -610.524350042     A.U. after   16 cycles
 SCF Done:  E(UB3LYP) =  -610.524361067     A.U. after   15 cycles
 SCF Done:  E(UB3LYP) =  -610.524363107     A.U. after   12 cycles
 SCF Done:  E(UB3LYP) =  -610.524363387     A.U. after   13 cycles
 Optimization completed.
    -- Stationary point found.
 Normal termination of Gaussian 16 at Thu Dec 28 20:10:44 2023.

 ----------------------------------------------------------------------
 #P Geom=AllCheck Guess=TCheck SCRF=Check GenChk UB3LYP/6-311++G(d,p) F
 req
 ----------------------------------------------------------------------

 Structure from the checkpoint file:  "316-rad.chk"
 -------
 Radical
 -------
 Charge = -1 Multiplicity = 2

                          Input orientation:
 ---------------------------------------------------------------------
 Center     Atomic      Atomic             Coordinates (Angstroms)
 Number     Number       Type             X           Y           Z
 ---------------------------------------------------------------------
      1          8           0       -1.312889   -2.535677    0.970177
      2          6           0       -1.168149   -1.382042    0.500469
      3          6           0       -2.385689   -0.619010    0.080647
      4          8           0       -2.437913   -0.167480   -1.290324
      5          6           0       -2.287607    0.828982   -0.255024
      6          6           0       -0.970392    1.535694   -0.177047
      7          8           0       -0.951930    2.786388   -0.266330
      8          6           0        0.193113    0.702059    0.017912
      9          6           0        1.481948    1.290828   -0.053355
     10          6           0        2.626163    0.559662    0.167689
     11          6           0        2.532455   -0.823215    0.489082
     12          6           0        1.297944   -1.423958    0.577470
     13          6           0        0.097847   -0.704055    0.344535
     14          1           0       -3.326046   -1.029478    0.444308
     15          1           0       -3.156616    1.473720   -0.136566
     16          1           0        1.529699    2.348296   -0.289431
     17          1           0        3.600195    1.034945    0.097199
     18          1           0        3.435087   -1.401528    0.663448
     19          1           0        1.202778   -2.474129    0.831133
 ---------------------------------------------------------------------

 SCF Done:  E(UB3LYP) =  -610.524363387     A.U. after    1 cycles

 Alpha  occ. eigenvalues --  -19.01510 -18.94938 -18.94936 -10.09916 -10.09887
 Alpha  occ. eigenvalues --  -10.09461 -10.09460 -10.04736 -10.04693 -10.04385
 Alpha  occ. eigenvalues --  -10.04384 -10.04043 -10.04006  -0.95116  -0.87157
 Alpha  occ. eigenvalues --   -0.87108  -0.72464  -0.64466  -0.62415  -0.57220
 Alpha  occ. eigenvalues --   -0.56160  -0.50068  -0.48899  -0.43344  -0.39448
 Alpha  occ. eigenvalues --   -0.38899  -0.37496  -0.33403  -0.31304  -0.30546
 Alpha  occ. eigenvalues --   -0.29817  -0.28400  -0.27880  -0.27452  -0.27381
 Alpha  occ. eigenvalues --   -0.23703  -0.22377  -0.22164  -0.21293  -0.18523
 Alpha  occ. eigenvalues --   -0.16562  -0.13037  -0.12923  -0.10855  -0.10746
 Alpha  occ. eigenvalues --   -0.00125
 Alpha virt. eigenvalues --    0.07779   0.08755   0.10222   0.10614   0.12416
 Alpha virt. eigenvalues --    0.12491   0.14042   0.14074   0.14408   0.16388
 Alpha virt. eigenvalues --    0.16839   0.17577   0.18012   0.18197   0.19737

  Beta  occ. eigenvalues --  -19.01429 -18.94399 -18.94396 -10.09925 -10.09896
  Beta  occ. eigenvalues --  -10.09283 -10.09281 -10.04632 -10.04588 -10.04412
  Beta  occ. eigenvalues --  -10.04411 -10.03855 -10.03817  -0.95010  -0.86194
  Beta  occ. eigenvalues --   -0.86160  -0.72156  -0.63873  -0.62105  -0.57024
  Beta  occ. eigenvalues --   -0.55548  -0.49605  -0.48739  -0.43142  -0.39091
  Beta  occ. eigenvalues --   -0.38738  -0.37387  -0.33123  -0.30886  -0.30252
  Beta  occ. eigenvalues --   -0.29726  -0.27965  -0.27453  -0.26798  -0.26143
  Beta  occ. eigenvalues --   -0.23023  -0.21742  -0.21047  -0.20457  -0.17795
  Beta  occ. eigenvalues --   -0.16065  -0.12168  -0.11151  -0.10345  -0.10117
  Beta virt. eigenvalues --    0.06255   0.08738   0.09003   0.10226   0.10602
  Beta virt. eigenvalues --    0.12407   0.12522   0.14349   0.14419   0.15443
  Beta virt. eigenvalues --    0.16501   0.16850   0.18051   0.18305   0.18574

 Mulliken charges and spin densities:
               1          2
     1  O   -0.381931   0.194175
     2  C   -0.339432   0.090752
     3  C   -0.096706   0.004386
     4  O   -0.145320   0.022111
     5  C   -0.095334   0.004386
     6  C   -0.339196   0.090787
     7  O   -0.381963   0.194308
     8  C    0.076278   0.123284
     9  C    0.165058   0.000147
    10  C   -0.294783   0.079360
    11  C   -0.294615   0.079445
    12  C    0.164594   0.000010
    13  C    0.075655   0.123217
    14  H    0.173775   0.003093
    15  H    0.173947   0.003092
    16  H    0.151665   0.000544
    17  H    0.118322  -0.006818
    18  H    0.118326  -0.006825
    19  H    0.151661   0.000549
 Sum of Mulliken charges =  -1.00000   1.00000

 Dipole moment (field-independent basis, Debye):
    X=              3.0237    Y=             -0.0125    Z=              0.1469  Tot=              3.0273
 Quadrupole moment (field-independent basis, Debye-Ang):
   XX=            -85.6702   YY=           -108.4384   ZZ=            -85.5601
   XY=             -2.4960   XZ=             -3.2217   YZ=              5.8882

  Exact polarizability: 188.121   1.077 179.927   5.419 -23.720  85.003
 Approx polarizability: 283.232   5.086 324.290   6.702 -46.483 137.284

                      1                      2                      3
                      A                      A                      A
 Frequencies --     82.6667               128.0010               167.3404
 Red. masses --      8.9044                 4.2638                 7.1255
 Frc consts  --      0.0359                 0.0412                 0.1176
 IR Inten    --     11.2515                 0.4214                 1.4940

                      4                      5                      6
                      A                      A                      A
 Frequencies --    222.4896               265.6911               300.3821
 Red. masses --      6.7328                 6.3822                 8.3037
 Frc consts  --      0.1964                 0.2654                 0.4414
 IR Inten    --      1.4154                 5.3099                 6.9029

                      7                      8                      9
                      A                      A                      A
 Frequencies --    360.4247               442.3950               446.1282
 Red. masses --     10.7683                 5.9894                 3.4959
 Frc consts  --      0.8242                 0.6906                 0.4099
 IR Inten    --      6.2776                 6.0510                 3.4001

                     10                     11                     12
                      A                      A                      A
 Frequencies --    446.8232               485.2084               520.0735
 Red. masses --      6.2184                10.5598                 5.7483
 Frc consts  --      0.7315                 1.4647                 0.9161
 IR Inten    --      1.0573                14.8164                13.9924

                     13                     14                     15
                      A                      A                      A
 Frequencies --    552.4400               639.1914               678.8555
 Red. masses --      5.4459                 5.0295                 4.3734
 Frc consts  --      0.9792                 1.2107                 1.1875
 IR Inten    --     22.4347                15.9402                18.3132

                     16                     17                     18
                      A                      A                      A
 Frequencies --    696.2882               708.8658               761.4821
 Red. masses --      6.2290                 2.6913                 1.9806
 Frc consts  --      1.7793                 0.7968                 0.6767
 IR Inten    --     27.7155                86.3227                10.6393

                     19                     20                     21
                      A                      A                      A
 Frequencies --    765.5524               789.4176               837.4173
 Red. masses --      4.5582                 5.7712                 1.5045
 Frc consts  --      1.5740                 2.1190                 0.6216
 IR Inten    --      1.2001                13.3089                 0.0507

                     22                     23                     24
                      A                      A                      A
 Frequencies --    849.3651               853.1549               972.5594
 Red. masses --      3.7209                 6.2978                 1.3664
 Frc consts  --      1.5816                 2.7008                 0.7615
 IR Inten    --     41.9896                 4.8052                 5.5849

                     25                     26                     27
                      A                      A                      A
 Frequencies --    972.7978               986.9818              1024.1397
 Red. masses --      1.2749                 2.5271                 2.0335
 Frc consts  --      0.7109                 1.4504                 1.2567
 IR Inten    --      0.7964                41.7575                 7.2752

                     28                     29                     30
                      A                      A                      A
 Frequencies --   1056.5233              1099.1651              1116.1503
 Red. masses --      3.1996                 2.1927                 1.7551
 Frc consts  --      2.1043                 1.5608                 1.2883
 IR Inten    --      3.1273                15.1624                21.1071

                     31                     32                     33
                      A                      A                      A
 Frequencies --   1144.4836              1161.7728              1218.2516
 Red. masses --      1.5268                 1.1254                 1.8012
 Frc consts  --      1.1783                 0.8950                 1.5750
 IR Inten    --     61.4043                 0.6215               138.6136

                     34                     35                     36
                      A                      A                      A
 Frequencies --   1243.8953              1287.6962              1309.2589
 Red. masses --      1.4582                 5.1881                 1.4319
 Frc consts  --      1.3294                 5.0685                 1.4462
 IR Inten    --      8.2525                 3.9950                 0.0170

                     37                     38                     39
                      A                      A                      A
 Frequencies --   1352.7072              1355.3439              1375.2916
 Red. masses --      6.4021                 2.0533                 3.5183
 Frc consts  --      6.9021                 2.2223                 3.9208
 IR Inten    --     72.9658                 8.7332                13.0331

                     40                     41                     42
                      A                      A                      A
 Frequencies --   1440.3145              1477.3410              1519.7405
 Red. masses --      4.1529                 2.4529                 4.6700
 Frc consts  --      5.0759                 3.1542                 6.3548
 IR Inten    --    626.2875                 0.4273               742.0703

                     43                     44                     45
                      A                      A                      A
 Frequencies --   1532.6295              1613.0513              1615.8890
 Red. masses --      5.9522                 9.4369                 6.0350
 Frc consts  --      8.2376                14.4670                 9.2843
 IR Inten    --     77.1046                85.7741                77.7479

                     46                     47                     48
                      A                      A                      A
 Frequencies --   3101.8962              3113.2781              3131.5507
 Red. masses --      1.0872                 1.0913                 1.0839
 Frc consts  --      6.1632                 6.2318                 6.2627
 IR Inten    --     32.6266               105.1180                23.1133

                     49                     50                     51
                      A                      A                      A
 Frequencies --   3150.1494              3174.5126              3177.6558
 Red. masses --      1.0896                 1.0915                 1.0936
 Frc consts  --      6.3707                 6.4810                 6.5064
 IR Inten    --     38.5312                17.3339                29.3341

 - Thermochemistry -
 -------------------
 Temperature   298.150 Kelvin.  Pressure   1.00000 Atm.
 Atom     1 has atomic number  8 and mass  15.99491

 Molecular mass:   174.03169 amu.
 Principal axes and moments of inertia in atomic units:
                           1         2         3
     Eigenvalues --  1514.726922041.691233366.70271
           X            0.98896   0.06593  -0.13268
           Y           -0.03356   0.97194   0.23281
           Z            0.14431  -0.22579   0.96343
 This molecule is an asymmetric top.
 Rotational symmetry number  1.
 Warning -- assumption of classical behavior for rotation
           may cause significant error
 Rotational temperatures (Kelvin)      0.05718     0.04242     0.02573
 Rotational constants (GHZ):           1.19146     0.88394     0.53606
 Zero-point vibrational energy     351251.6 (Joules/Mol)
                                   83.95115 (Kcal/Mol)
 Warning -- explicit consideration of  13 degrees of freedom as
           vibrations may cause significant error
 Vibrational temperatures:    118.94   184.16   240.77   320.11   382.27
          (Kelvin)            432.18   518.57   636.51   641.88   642.88
                              698.11   748.27   794.84   919.65   976.72
                             1001.80  1019.90  1095.60  1101.46  1135.80
                             1204.86  1222.05  1227.50  1399.30  1399.64
                             1420.05  1473.51  1520.10  1581.45  1605.89
                             1646.66  1671.53  1752.79  1789.69  1852.71
                             1883.73  1946.24  1950.04  1978.74  2072.29
                             2125.56  2186.57  2205.11  2320.82  2324.90
                             4462.94  4479.31  4505.60  4532.36  4567.42
                             4571.94

 Zero-point correction=                           0.133785 (Hartree/Particle)
 Thermal correction to Energy=                    0.143200
 Thermal correction to Enthalpy=                  0.144144
 Thermal correction to Gibbs Free Energy=         0.098250
 Sum of electronic and zero-point Energies=           -610.390579
 Sum of electronic and thermal Energies=              -610.381163
 Sum of electronic and thermal Enthalpies=            -610.380219
 Sum of electronic and thermal Free Energies=         -610.426113

                     E (Thermal)             CV                S
                      KCal/Mol        Cal/Mol-Kelvin    Cal/Mol-Kelvin
 Total                   89.859             37.874             96.592
 Electronic               0.000              0.000              1.377
 Translational            0.889              2.981             41.370
 Rotational               0.889              2.981             30.722
 Vibrational             88.082             31.913             23.123
 Vibration     1          0.600              1.961              3.827
 Vibration     2          0.611              1.925              2.976
 Vibration     3          0.624              1.883              2.465
 Vibration     4          0.648              1.807              1.939
 Vibration     5          0.672              1.736              1.624
 Vibration     6          0.693              1.673              1.415
 Vibration     7          0.735              1.554              1.120
 Vibration     8          0.802              1.378              0.819
 Vibration     9          0.805              1.369              0.808
 Vibration    10          0.806              1.368              0.805
 Vibration    11          0.841              1.283              0.696
 Vibration    12          0.875              1.206              0.610
 Vibration    13          0.908              1.134              0.539

 Optimization completed.
    -- Stationary point found.
 Normal termination of Gaussian 16 at Thu Dec 28 20:23:32 2023.
