 Gaussian 16, Revision A.03,
 Gaussian 16:  ES64L-G16RevA.03 25-Dec-2016

 ----------------------------------------------------------------------
 #P UB3LYP/6-311++G(d,p) nosym opt freq SCRF=(PCM,Solvent=n,n-DiMethylF
 ormamide)
 ----------------------------------------------------------------------

 --------
 Oxidized
 --------
 Symbolic Z-matrix:
 Charge =  0 Multiplicity = 1

 SCF Done:  E(UB3LYP) =  -727.242013172     A.U. after   15 cycles
 SCF Done:  E(UB3LYP) =  -727.242442064     A.U. after   12 cycles
 SCF Done:  E(UB3LYP) =  -727.242485702     A.U. after   12 cycles
 SCF Done:  E(UB3LYP) =  -727.242237615     A.U. after   12 cycles
 SCF Done:  E(UB3LYP) =  -727.242523477     A.U. after   12 cycles
 SCF Done:  E(UB3LYP) =  -727.242524974     A.U. after   10 cycles
 SCF Done:  E(UB3LYP) =  -727.242525131     A.U. after    9 cycles
 SCF Done:  E(UB3LYP) =  -727.242525304     A.U. after    9 cycles
 Optimization completed.
    -- Stationary point found.
 Normal termination of Gaussian 16 at Sun Feb 11 15:47:42 2024.

 ----------------------------------------------------------------------
 #P Geom=AllCheck Guess=TCheck SCRF=Check GenChk UB3LYP/6-311++G(d,p) F
 req
 ----------------------------------------------------------------------

 Structure from the checkpoint file:  "322.chk"
 --------
 Oxidized
 --------
 Charge =  0 Multiplicity = 1

                          Input orientation:
 ---------------------------------------------------------------------
 Center     Atomic      Atomic             Coordinates (Angstroms)
 Number     Number       Type             X           Y           Z
 ---------------------------------------------------------------------
      1          6           0       -1.668424    2.867178   -0.702285
      2          6           0       -2.855324    2.215204   -0.379855
      3          6           0       -2.821148    0.882036    0.025317
      4          6           0       -0.447621    2.193824   -0.622607
      5          6           0       -0.412011    0.844086   -0.213425
      6          6           0       -1.607886    0.198825    0.108749
      7          6           0        0.805540    2.903987   -0.968195
      8          6           0        2.137481    2.105951   -0.870541
      9          6           0        2.070673    0.734103   -0.441941
     10          6           0        0.882919    0.136522   -0.132066
     11          8           0        0.834844    4.066897   -1.319662
     12          8           0        3.182628    2.677241   -1.160473
     13          8           0        0.758396   -1.129718    0.271258
     14          6           0        1.928617   -1.957447    0.403713
     15          6           0        1.542426   -3.325084    0.870948
     16          6           0        0.314229   -3.758678    1.138151
     17          1           0       -1.672750    3.902673   -1.019019
     18          1           0       -3.799481    2.742447   -0.443853
     19          1           0       -3.740771    0.367824    0.278337
     20          1           0       -1.590270   -0.834758    0.423925
     21          1           0        3.010315    0.203598   -0.379146
     22          1           0        2.617572   -1.492923    1.117808
     23          1           0        2.437617   -2.016422   -0.564725
     24          1           0        2.394263   -3.990684    0.986618
     25          1           0       -0.556202   -3.122939    1.033543
     26          1           0        0.148262   -4.775765    1.472935
 ---------------------------------------------------------------------

 SCF Done:  E(UB3LYP) =  -727.242525304     A.U. after    1 cycles

 Alpha  occ. eigenvalues --  -19.19620 -19.14497 -19.12876 -10.28838 -10.28622
 Alpha  occ. eigenvalues --  -10.27643 -10.25174 -10.22185 -10.21159 -10.20359
 Alpha  occ. eigenvalues --  -10.20287 -10.20194 -10.19945 -10.19220 -10.19020
 Alpha  occ. eigenvalues --  -10.17501  -1.11533  -1.08207  -1.04943  -0.89916
 Alpha  occ. eigenvalues --   -0.84238  -0.81066  -0.78447  -0.77064  -0.73038
 Alpha  occ. eigenvalues --   -0.69343  -0.65251  -0.63164  -0.61512  -0.57308
 Alpha  occ. eigenvalues --   -0.56198  -0.54417  -0.52965  -0.50674  -0.49592
 Alpha  occ. eigenvalues --   -0.48208  -0.47287  -0.46480  -0.45770  -0.45642
 Alpha  occ. eigenvalues --   -0.45370  -0.43517  -0.43343  -0.41021  -0.40005
 Alpha  occ. eigenvalues --   -0.39202  -0.37831  -0.37339  -0.37012  -0.36536
 Alpha  occ. eigenvalues --   -0.31155  -0.30132  -0.28423  -0.27844  -0.26555
 Alpha  occ. eigenvalues --   -0.25758
 Alpha virt. eigenvalues --   -0.12777  -0.05940  -0.02604  -0.01025  -0.00823
 Alpha virt. eigenvalues --    0.00066   0.00757   0.01617   0.01792   0.01952
 Alpha virt. eigenvalues --    0.02939   0.03118   0.04118   0.04314   0.05113

  Beta  occ. eigenvalues --  -19.19620 -19.14497 -19.12876 -10.28838 -10.28622
  Beta  occ. eigenvalues --  -10.27643 -10.25174 -10.22185 -10.21159 -10.20359
  Beta  occ. eigenvalues --  -10.20287 -10.20194 -10.19945 -10.19220 -10.19020
  Beta  occ. eigenvalues --  -10.17501  -1.11533  -1.08207  -1.04943  -0.89916
  Beta  occ. eigenvalues --   -0.84238  -0.81066  -0.78447  -0.77064  -0.73038
  Beta  occ. eigenvalues --   -0.69343  -0.65251  -0.63164  -0.61512  -0.57308
  Beta  occ. eigenvalues --   -0.56198  -0.54417  -0.52965  -0.50674  -0.49592
  Beta  occ. eigenvalues --   -0.48208  -0.47287  -0.46480  -0.45770  -0.45642
  Beta  occ. eigenvalues --   -0.45370  -0.43517  -0.43343  -0.41021  -0.40005
  Beta  occ. eigenvalues --   -0.39202  -0.37831  -0.37339  -0.37012  -0.36536
  Beta  occ. eigenvalues --   -0.31155  -0.30132  -0.28423  -0.27844  -0.26555
  Beta  occ. eigenvalues --   -0.25758
  Beta virt. eigenvalues --   -0.12777  -0.05940  -0.02604  -0.01025  -0.00823
  Beta virt. eigenvalues --    0.00066   0.00757   0.01617   0.01792   0.01952
  Beta virt. eigenvalues --    0.02939   0.03118   0.04118   0.04314   0.05113

 Mulliken charges and spin densities:
               1          2
     1  C    0.130601  -0.000000
     2  C   -0.451210  -0.000000
     3  C   -0.248709  -0.000000
     4  C    0.443625   0.000000
     5  C    0.291618   0.000000
     6  C   -0.114614  -0.000000
     7  C   -0.502659   0.000000
     8  C   -0.077814  -0.000000
     9  C    0.150783   0.000000
    10  C   -0.039565   0.000000
    11  O   -0.276683  -0.000000
    12  O   -0.353512   0.000000
    13  O   -0.058643  -0.000000
    14  C    0.092045   0.000000
    15  C   -0.314265  -0.000000
    16  C   -0.600696   0.000000
    17  H    0.195982   0.000000
    18  H    0.204784   0.000000
    19  H    0.226804  -0.000000
    20  H    0.116281   0.000000
    21  H    0.252953   0.000000
    22  H    0.196544  -0.000000
    23  H    0.197340  -0.000000
    24  H    0.230518  -0.000000
    25  H    0.135292   0.000000
    26  H    0.173201   0.000000
 Sum of Mulliken charges =   0.00000  -0.00000

 Dipole moment (field-independent basis, Debye):
    X=             -5.0117    Y=             -8.0286    Z=              2.9817  Tot=              9.9231
 Quadrupole moment (field-independent basis, Debye-Ang):
   XX=            -90.2837   YY=           -112.3983   ZZ=            -98.5767
   XY=            -28.4333   XZ=              8.2389   YZ=              8.1494

  Exact polarizability: 297.805  28.875 258.873 -28.160 -47.211 132.370
 Approx polarizability: 349.009  49.677 300.211 -38.022 -56.407 154.503

                      1                      2                      3
                      A                      A                      A
 Frequencies --     32.4946                53.5865                77.7211
 Red. masses --      5.2746                 5.8057                 3.1624
 Frc consts  --      0.0033                 0.0098                 0.0113
 IR Inten    --      1.7141                 0.7067                 1.8924

                      4                      5                      6
                      A                      A                      A
 Frequencies --    100.2967               117.2882               170.3194
 Red. masses --      4.3251                 4.1450                 2.9095
 Frc consts  --      0.0256                 0.0336                 0.0497
 IR Inten    --      3.4425                 2.0460                 0.3608

                      7                      8                      9
                      A                      A                      A
 Frequencies --    177.2797               215.8380               216.2491
 Red. masses --      4.0286                 4.2306                 3.4341
 Frc consts  --      0.0746                 0.1161                 0.0946
 IR Inten    --      9.7020                 3.8384                 3.6740

                     10                     11                     12
                      A                      A                      A
 Frequencies --    262.8735               357.8620               372.8338
 Red. masses --      5.4371                 6.4281                14.6433
 Frc consts  --      0.2214                 0.4850                 1.1993
 IR Inten    --      4.2409                 2.0212                 8.9208

                     13                     14                     15
                      A                      A                      A
 Frequencies --    402.4475               404.1057               457.6018
 Red. masses --      7.3470                 3.7879                 4.4714
 Frc consts  --      0.7011                 0.3645                 0.5517
 IR Inten    --      7.1494                 1.1066                 6.2072

                     16                     17                     18
                      A                      A                      A
 Frequencies --    461.1145               515.1989               515.8697
 Red. masses --      8.3155                 4.6870                 4.3147
 Frc consts  --      1.0417                 0.7330                 0.6765
 IR Inten    --      1.9517                 8.3392                14.3464

                     19                     20                     21
                      A                      A                      A
 Frequencies --    575.3955               604.4524               650.9219
 Red. masses --      1.2633                 5.7802                 3.4932
 Frc consts  --      0.2464                 1.2443                 0.8720
 IR Inten    --     29.1328                 9.2928                 4.3540

                     22                     23                     24
                      A                      A                      A
 Frequencies --    672.2141               696.4513               719.4443
 Red. masses --      4.6529                 6.5441                 6.8326
 Frc consts  --      1.2388                 1.8702                 2.0837
 IR Inten    --      2.2480                 9.2046                 5.6790

                     25                     26                     27
                      A                      A                      A
 Frequencies --    736.6126               780.8821               811.9633
 Red. masses --      3.0169                 1.7987                 1.9821
 Frc consts  --      0.9645                 0.6462                 0.7699
 IR Inten    --     34.9449                68.3920                 2.1949

                     28                     29                     30
                      A                      A                      A
 Frequencies --    843.6451               845.1987               907.7627
 Red. masses --      4.2847                 2.3649                 1.3944
 Frc consts  --      1.7968                 0.9954                 0.6770
 IR Inten    --     20.9411                52.2881                 0.0012

                     31                     32                     33
                      A                      A                      A
 Frequencies --    935.3237               952.2621               968.7232
 Red. masses --      3.4264                 1.3141                 4.0816
 Frc consts  --      1.7661                 0.7021                 2.2567
 IR Inten    --      4.2467                82.4979                20.7331

                     34                     35                     36
                      A                      A                      A
 Frequencies --    980.4875               995.6367              1017.0131
 Red. masses --      3.1685                 1.3900                 1.1581
 Frc consts  --      1.7947                 0.8119                 0.7057
 IR Inten    --    108.2607                 2.4000                 6.4571

                     37                     38                     39
                      A                      A                      A
 Frequencies --   1021.7194              1040.6601              1060.8741
 Red. masses --      1.3320                 1.5456                 2.1437
 Frc consts  --      0.8193                 0.9862                 1.4215
 IR Inten    --      0.2482                22.1286                 1.8213

                     40                     41                     42
                      A                      A                      A
 Frequencies --   1100.8476              1117.9471              1162.7647
 Red. masses --      2.1184                 2.2821                 2.0971
 Frc consts  --      1.5126                 1.6805                 1.6705
 IR Inten    --     30.8744                77.8727                73.1651

                     43                     44                     45
                      A                      A                      A
 Frequencies --   1184.9190              1228.1140              1263.5572
 Red. masses --      1.1678                 2.1950                 2.4059
 Frc consts  --      0.9661                 1.9506                 2.2632
 IR Inten    --      8.2136               195.8475               537.0526

                     46                     47                     48
                      A                      A                      A
 Frequencies --   1273.2469              1278.2436              1313.2593
 Red. masses --      1.0695                 3.7742                 2.8946
 Frc consts  --      1.0215                 3.6333                 2.9413
 IR Inten    --      1.7867               211.2813               146.3203

                     49                     50                     51
                      A                      A                      A
 Frequencies --   1318.3267              1350.0142              1377.8329
 Red. masses --      1.2646                 6.8371                 2.0024
 Frc consts  --      1.2949                 7.3417                 2.2398
 IR Inten    --      2.0872                15.8805               303.5879

                     52                     53                     54
                      A                      A                      A
 Frequencies --   1425.0951              1445.4670              1476.7450
 Red. masses --      1.5513                 1.2498                 2.0972
 Frc consts  --      1.8563                 1.5385                 2.6947
 IR Inten    --     30.3355                10.5306               102.2996

                     55                     56                     57
                      A                      A                      A
 Frequencies --   1488.0079              1514.4490              1583.6623
 Red. masses --      1.1644                 2.7580                 6.0158
 Frc consts  --      1.5190                 3.7270                 8.8893
 IR Inten    --     40.5694                 6.3395               787.7880

                     58                     59                     60
                      A                      A                      A
 Frequencies --   1621.6144              1626.7473              1679.5078
 Red. masses --      6.1347                 6.3399                12.3817
 Frc consts  --      9.5047                 9.8850                20.5776
 IR Inten    --    307.3694               101.6296               699.2529

                     61                     62                     63
                      A                      A                      A
 Frequencies --   1708.1714              1740.5347              3018.1130
 Red. masses --      4.8792                12.7139                 1.0560
 Frc consts  --      8.3880                22.6931                 5.6672
 IR Inten    --     15.8891               208.6647                19.4399

                     64                     65                     66
                      A                      A                      A
 Frequencies --   3055.1545              3142.7454              3153.3530
 Red. masses --      1.1065                 1.0667                 1.0830
 Frc consts  --      6.0851                 6.2075                 6.3452
 IR Inten    --     17.7728                11.8558                 7.2751

                     67                     68                     69
                      A                      A                      A
 Frequencies --   3181.7567              3193.5529              3203.5052
 Red. masses --      1.0876                 1.0916                 1.0955
 Frc consts  --      6.4870                 6.5592                 6.6238
 IR Inten    --      2.7970                 8.5804                13.2471

                     70                     71                     72
                      A                      A                      A
 Frequencies --   3215.9966              3224.0958              3233.0983
 Red. masses --      1.0909                 1.0928                 1.1154
 Frc consts  --      6.6475                 6.6930                 6.8692
 IR Inten    --      1.7004                 5.5576                11.0029

 - Thermochemistry -
 -------------------
 Temperature   298.150 Kelvin.  Pressure   1.00000 Atm.
 Atom     1 has atomic number  6 and mass  12.00000

 Molecular mass:   214.06299 amu.
 Principal axes and moments of inertia in atomic units:
                           1         2         3
     Eigenvalues --  2392.241914390.726956771.63074
           X           -0.17539   0.97943   0.09974
           Y            0.94594   0.13958   0.29276
           Z           -0.27282  -0.14570   0.95097
 This molecule is an asymmetric top.
 Rotational symmetry number  1.
 Warning -- assumption of classical behavior for rotation
           may cause significant error
 Rotational temperatures (Kelvin)      0.03621     0.01973     0.01279
 Rotational constants (GHZ):           0.75441     0.41103     0.26652
 Zero-point vibrational energy     518156.9 (Joules/Mol)
                                  123.84247 (Kcal/Mol)
 Warning -- explicit consideration of  20 degrees of freedom as
           vibrations may cause significant error
 Vibrational temperatures:     46.75    77.10   111.82   144.30   168.75
          (Kelvin)            245.05   255.07   310.54   311.13   378.22
                              514.88   536.42   579.03   581.42   658.39
                              663.44   741.26   742.22   827.87   869.67
                              936.53   967.17  1002.04  1035.12  1059.82
                             1123.52  1168.23  1213.82  1216.05  1306.07
                             1345.72  1370.09  1393.78  1410.70  1432.50
                             1463.26  1470.03  1497.28  1526.36  1583.87
                             1608.48  1672.96  1704.83  1766.98  1817.98
                             1831.92  1839.11  1889.49  1896.78  1942.37
                             1982.39  2050.39  2079.70  2124.71  2140.91
                             2178.95  2278.54  2333.14  2340.53  2416.44
                             2457.68  2504.24  4342.39  4395.69  4521.71
                             4536.97  4577.84  4594.81  4609.13  4627.10
                             4638.75  4651.71

 Zero-point correction=                           0.197356 (Hartree/Particle)
 Thermal correction to Energy=                    0.210899
 Thermal correction to Enthalpy=                  0.211843
 Thermal correction to Gibbs Free Energy=         0.155961
 Sum of electronic and zero-point Energies=           -727.045170
 Sum of electronic and thermal Energies=              -727.031626
 Sum of electronic and thermal Enthalpies=            -727.030682
 Sum of electronic and thermal Free Energies=         -727.086564

                     E (Thermal)             CV                S
                      KCal/Mol        Cal/Mol-Kelvin    Cal/Mol-Kelvin
 Total                  132.341             51.592            117.615
 Electronic               0.000              0.000              0.000
 Translational            0.889              2.981             41.987
 Rotational               0.889              2.981             32.631
 Vibrational            130.564             45.631             42.997
 Vibration     1          0.594              1.983              5.671
 Vibration     2          0.596              1.976              4.680
 Vibration     3          0.599              1.964              3.948
 Vibration     4          0.604              1.949              3.449
 Vibration     5          0.608              1.935              3.145
 Vibration     6          0.625              1.879              2.432
 Vibration     7          0.628              1.870              2.357
 Vibration     8          0.645              1.817              1.994
 Vibration     9          0.645              1.816              1.990
 Vibration    10          0.670              1.741              1.643
 Vibration    11          0.733              1.559              1.131
 Vibration    12          0.744              1.528              1.068
 Vibration    13          0.768              1.465              0.954
 Vibration    14          0.769              1.461              0.948
 Vibration    15          0.816              1.344              0.773
 Vibration    16          0.819              1.336              0.763
 Vibration    17          0.870              1.216              0.621
 Vibration    18          0.871              1.215              0.620
 Vibration    19          0.932              1.084              0.494
 Vibration    20          0.963              1.022              0.442

                           ! Non-Optimized Parameters !
 Normal termination of Gaussian 16 at Sun Feb 11 16:31:31 2024.
