 Q-Chem 5.4, Q-Chem, Inc., Pleasanton, CA (2021)
 Q-Chem 5.4.0 for Intel X86 EM64T Linux

User input:
--------------------------------------------------------------
$molecule
-1 2
Cl                -2.5523110000      1.7741640000      0.7018790000
C                 -1.1526650000      0.7633540000      0.4128210000
C                 -1.2109020000     -0.5997470000      0.5476410000
Cl                -2.6897730000     -1.4114020000      1.0172940000
C                 -0.0633570000     -1.4725150000      0.3145240000
O                 -0.1166010000     -2.7096330000      0.4369810000
C                  1.1524600000     -0.7633830000     -0.0752310000
C                  1.2109120000      0.5997840000     -0.2101130000
Cl                 2.6898140000      1.4114440000     -0.6797510000
C                  0.0633850000      1.4725730000      0.0229790000
O                  0.1166080000      2.7096240000     -0.0994310000
Cl                 2.5524300000     -1.7742620000     -0.3643500000
$end
$rem
MAX_SCF_CYCLES=200
BASIS  =  6-311++G(d,p)
GUI  =  2
JOB_TYPE  =  SP
METHOD  =  B3LYP
SOLVENT_METHOD = COSMO
$end
$solvent
dielectric 37.219
opticaldielectric 1.43
$end

--------------------------------------------------------------

             Standard Nuclear Orientation (Angstroms)
    I     Atom           X                Y                Z
 ----------------------------------------------------------------
    1      Cl      2.7166509874    -1.6018915181     0.0000068309
    2      C       1.2251965239    -0.6854506353    -0.0000180613
    3      C       1.2245773948     0.6855387642    -0.0000083976
    4      Cl      2.7166049850     1.6022016706     0.0000039265
    5      C      -0.0001958378     1.4810622227    -0.0000001336
    6      O      -0.0003571487     2.7253658674     0.0000014888
    7      C      -1.2249585222     0.6854841323     0.0000045654
    8      C      -1.2245581841    -0.6855862159    -0.0000034309
    9      Cl     -2.7166115352    -1.6022539472     0.0000071381
   10      C       0.0001927280    -1.4811337866    -0.0000293130
   11      O       0.0003817742    -2.7253652906     0.0000032037
   12      Cl     -2.7167457089     1.6019737062    -0.0000007729
 ----------------------------------------------------------------

    8   -2220.1410251916      7.86e-06  Convergence criterion met
 Total energy in the final basis set =    -2220.1410251916
    4   -2220.2154119452      9.49e-06  Convergence criterion met
 Total energy in the final basis set =    -2220.2154119452

                    Orbital Energies (a.u.)
 --------------------------------------------------------------

 Alpha MOs
 -- Occupied --
********-101.5642-101.5641-101.5641 -19.1069 -19.1069 -10.2626 -10.2626
-10.2509 -10.2509 -10.2502 -10.2502  -9.4786  -9.4786  -9.4785  -9.4785
 -7.2432  -7.2432  -7.2432  -7.2432  -7.2339  -7.2338  -7.2338  -7.2338
 -7.2327  -7.2326  -7.2326  -7.2326  -1.0418  -1.0386  -0.9141  -0.9020
 -0.8597  -0.8577  -0.8084  -0.7253  -0.7034  -0.6033  -0.5994  -0.5389
 -0.4945  -0.4692  -0.4613  -0.4514  -0.4407  -0.4293  -0.4175  -0.4164
 -0.3946  -0.3596  -0.3487  -0.3418  -0.3399  -0.3328  -0.3194  -0.3126
 -0.2902  -0.2792  -0.2719  -0.2556  -0.1881

 Beta MOs
 -- Occupied --
********-101.5641-101.5641-101.5641 -19.1002 -19.1002 -10.2614 -10.2614
-10.2497 -10.2497 -10.2490 -10.2490  -9.4785  -9.4785  -9.4785  -9.4785
 -7.2433  -7.2432  -7.2432  -7.2432  -7.2336  -7.2336  -7.2336  -7.2336
 -7.2326  -7.2326  -7.2326  -7.2326  -1.0306  -1.0270  -0.9104  -0.9008
 -0.8588  -0.8561  -0.8049  -0.7233  -0.6933  -0.5992  -0.5951  -0.5367
 -0.4912  -0.4664  -0.4507  -0.4468  -0.4341  -0.4246  -0.4159  -0.3925
 -0.3908  -0.3468  -0.3430  -0.3410  -0.3323  -0.3320  -0.3191  -0.3119
 -0.2728  -0.2679  -0.2657  -0.2493

          Ground-State Mulliken Net Atomic Charges

     Atom                 Charge (a.u.)    Spin (a.u.)
  --------------------------------------------------------
      1 Cl                    0.336376       0.006662
      2 C                     0.207996       0.071793
      3 C                     0.214574       0.071592
      4 Cl                    0.335610       0.006615
      5 C                    -1.215807       0.100498
      6 O                    -0.377461       0.242828
      7 C                     0.208077       0.071698
      8 C                     0.212446       0.071840
      9 Cl                    0.335797       0.006638
     10 C                    -1.216795       0.100315
     11 O                    -0.377060       0.242883
     12 Cl                    0.336247       0.006638
  --------------------------------------------------------
  Sum of atomic charges =    -1.000000

                    Cartesian Multipole Moments
 -----------------------------------------------------------------
    Charge (ESU x 10^10)
                -4.8032
    Dipole Moment (Debye)
         X       0.0018      Y      -0.0041      Z      -0.0003
       Tot       0.0045
    Quadrupole Moments (Debye-Ang)
        XX    -109.1262     XY      -0.0118     YY    -137.4452
        XZ       0.0002     YZ       0.0007     ZZ     -97.0212

 Total job time:  41.43s(wall), 145.44s(cpu)
        *  Thank you very much for using Q-Chem.  Have a nice day.  *
