 Gaussian 16, Revision A.03,
 Gaussian 16:  ES64L-G16RevA.03 25-Dec-2016

 --------------------------------------
 #P UB3LYP/6-311++G(d,p) nosym opt freq
 --------------------------------------

 -------
 Radical
 -------
 Symbolic Z-matrix:
 Charge = -1 Multiplicity = 2

 SCF Done:  E(UB3LYP) =  -2220.14089683     A.U. after   27 cycles
 Optimization completed.
    -- Stationary point found.
 Normal termination of Gaussian 16 at Sat Jan  6 05:39:57 2024.

 ----------------------------------------------------------------------
 #P Geom=AllCheck Guess=TCheck SCRF=Check GenChk UB3LYP/6-311++G(d,p) F
 req
 ----------------------------------------------------------------------

 Structure from the checkpoint file:  "029-rad.chk"
 -------
 Radical
 -------
 Charge = -1 Multiplicity = 2

                          Input orientation:
 ---------------------------------------------------------------------
 Center     Atomic      Atomic             Coordinates (Angstroms)
 Number     Number       Type             X           Y           Z
 ---------------------------------------------------------------------
      1         17           0       -2.552311    1.774164    0.701879
      2          6           0       -1.152665    0.763354    0.412821
      3          6           0       -1.210902   -0.599747    0.547641
      4         17           0       -2.689773   -1.411402    1.017294
      5          6           0       -0.063357   -1.472515    0.314524
      6          8           0       -0.116601   -2.709633    0.436981
      7          6           0        1.152460   -0.763383   -0.075231
      8          6           0        1.210912    0.599784   -0.210113
      9         17           0        2.689814    1.411444   -0.679751
     10          6           0        0.063385    1.472573    0.022979
     11          8           0        0.116608    2.709624   -0.099431
     12         17           0        2.552430   -1.774262   -0.364350
 ---------------------------------------------------------------------

 SCF Done:  E(UB3LYP) =  -2220.14089683     A.U. after    4 cycles

 Alpha  occ. eigenvalues -- -101.44069-101.44066-101.44062-101.44061 -18.97190
 Alpha  occ. eigenvalues --  -18.97188 -10.13056 -10.13054 -10.12496 -10.12492
 Alpha  occ. eigenvalues --  -10.12432 -10.12431  -9.35523  -9.35519  -9.35515
 Alpha  occ. eigenvalues --   -9.35514  -7.11984  -7.11981  -7.11976  -7.11976
 Alpha  occ. eigenvalues --   -7.11047  -7.11043  -7.11039  -7.11038  -7.10936
 Alpha  occ. eigenvalues --   -7.10932  -7.10928  -7.10928  -0.90687  -0.90318
 Alpha  occ. eigenvalues --   -0.78826  -0.77785  -0.73587  -0.73357  -0.68301
 Alpha  occ. eigenvalues --   -0.60069  -0.57459  -0.47686  -0.47182  -0.41015
 Alpha  occ. eigenvalues --   -0.36692  -0.34414  -0.33301  -0.32859  -0.30269
 Alpha  occ. eigenvalues --   -0.29444  -0.29173  -0.28331  -0.27114  -0.23011
 Alpha  occ. eigenvalues --   -0.22580  -0.21684  -0.21490  -0.20822  -0.19485
 Alpha  occ. eigenvalues --   -0.18769  -0.16258  -0.14200  -0.13640  -0.13211
 Alpha  occ. eigenvalues --   -0.05669
 Alpha virt. eigenvalues --    0.08438   0.08746   0.10693   0.12190   0.12830
 Alpha virt. eigenvalues --    0.13336   0.13389   0.14863   0.15727   0.15826
 Alpha virt. eigenvalues --    0.15905   0.16985   0.17380   0.17792   0.18938

  Beta  occ. eigenvalues -- -101.44065-101.44062-101.44057-101.44057 -18.96467
  Beta  occ. eigenvalues --  -18.96465 -10.12971 -10.12968 -10.12370 -10.12367
  Beta  occ. eigenvalues --  -10.12305 -10.12305  -9.35519  -9.35515  -9.35511
  Beta  occ. eigenvalues --   -9.35510  -7.11988  -7.11985  -7.11980  -7.11980
  Beta  occ. eigenvalues --   -7.11026  -7.11022  -7.11017  -7.11017  -7.10934
  Beta  occ. eigenvalues --   -7.10931  -7.10926  -7.10926  -0.89523  -0.89092
  Beta  occ. eigenvalues --   -0.78441  -0.77660  -0.73505  -0.73192  -0.67957
  Beta  occ. eigenvalues --   -0.59873  -0.56493  -0.47291  -0.46787  -0.40806
  Beta  occ. eigenvalues --   -0.36387  -0.34197  -0.32783  -0.31967  -0.29498
  Beta  occ. eigenvalues --   -0.29026  -0.28892  -0.26736  -0.26124  -0.22399
  Beta  occ. eigenvalues --   -0.21601  -0.21453  -0.20782  -0.20537  -0.19465
  Beta  occ. eigenvalues --   -0.18712  -0.13695  -0.13518  -0.12964  -0.12570
  Beta virt. eigenvalues --    0.01405   0.08551   0.10322   0.10732   0.12257
  Beta virt. eigenvalues --    0.12886   0.13360   0.14907   0.15621   0.15884
  Beta virt. eigenvalues --    0.16015   0.16053   0.17028   0.17385   0.17895

 Mulliken charges and spin densities:
               1          2
     1  Cl   0.336729   0.005346
     2  C    0.271387   0.078576
     3  C    0.278092   0.078450
     4  Cl   0.336120   0.005315
     5  C   -1.452747   0.067492
     6  O   -0.268268   0.264802
     7  C    0.271196   0.078575
     8  C    0.276123   0.078654
     9  Cl   0.336208   0.005334
    10  C   -1.453325   0.067438
    11  O   -0.268196   0.264683
    12  Cl   0.336681   0.005335
 Sum of Mulliken charges =  -1.00000   1.00000

 Dipole moment (field-independent basis, Debye):
    X=             -0.0014    Y=              0.0017    Z=             -0.8105  Tot=              0.8105
 Quadrupole moment (field-independent basis, Debye-Ang):
   XX=           -113.5503   YY=           -133.3868   ZZ=            -99.0104
   XY=             -0.4462   XZ=              4.3919   YZ=              3.2648

  Exact polarizability: 173.155  -2.238 183.371 -27.355  -9.217  79.149
 Approx polarizability: 236.628   0.853 334.566 -34.570 -19.968 119.748

                      1                      2                      3
                      A                      A                      A
 Frequencies --     66.6944                73.5886               109.0961
 Red. masses --     34.0818                18.4690                20.6515
 Frc consts  --      0.0893                 0.0589                 0.1448
 IR Inten    --      0.0001                 4.0642                 0.0000

                      4                      5                      6
                      A                      A                      A
 Frequencies --    183.5870               202.5522               204.5097
 Red. masses --     13.7730                34.5035                24.8239
 Frc consts  --      0.2735                 0.8340                 0.6117
 IR Inten    --      4.7015                 0.0000                 1.7634

                      7                      8                      9
                      A                      A                      A
 Frequencies --    215.5531               275.9889               313.9994
 Red. masses --     32.2240                22.8366                12.5370
 Frc consts  --      0.8821                 1.0249                 0.7283
 IR Inten    --      0.6412                 0.0000                 0.0000

                     10                     11                     12
                      A                      A                      A
 Frequencies --    326.8466               327.7107               359.8839
 Red. masses --     28.9236                20.1310                17.9083
 Frc consts  --      1.8205                 1.2738                 1.3666
 IR Inten    --      0.0000                 0.0000                 0.8566

                     13                     14                     15
                      A                      A                      A
 Frequencies --    384.4675               444.0329               497.9223
 Red. masses --     12.4956                22.3202                14.5549
 Frc consts  --      1.0882                 2.5929                 2.1261
 IR Inten    --      0.0000                 0.1869                 0.0000

                     16                     17                     18
                      A                      A                      A
 Frequencies --    547.6936               697.3138               713.0320
 Red. masses --     12.1081                14.8027                12.2212
 Frc consts  --      2.1399                 4.2408                 3.6609
 IR Inten    --      0.0000               153.4343                 4.8618

                     19                     20                     21
                      A                      A                      A
 Frequencies --    719.7751               773.0059               823.0368
 Red. masses --     12.6463                12.1050                13.1180
 Frc consts  --      3.8602                 4.2617                 5.2355
 IR Inten    --      0.0000                 0.0000                 0.0002

                     22                     23                     24
                      A                      A                      A
 Frequencies --    901.5133               998.4694              1118.1411
 Red. masses --     13.0412                12.7358                12.0422
 Frc consts  --      6.2447                 7.4807                 8.8705
 IR Inten    --    145.1151                 0.0005                93.7293

                     25                     26                     27
                      A                      A                      A
 Frequencies --   1130.7622              1320.0116              1464.8902
 Red. masses --     12.1678                12.0133                12.0428
 Frc consts  --      9.1666                12.3330                15.2261
 IR Inten    --    196.9259                 0.0002                 1.2608

                     28                     29                     30
                      A                      A                      A
 Frequencies --   1545.5563              1551.6018              1600.6292
 Red. masses --     12.7095                13.0622                12.4562
 Frc consts  --     17.8875                18.5279                18.8026
 IR Inten    --      0.1619               405.0156                 0.0019

 - Thermochemistry -
 -------------------
 Temperature   298.150 Kelvin.  Pressure   1.00000 Atm.
 Atom     1 has atomic number 17 and mass  34.96885

 Molecular mass:   243.86524 amu.
 Principal axes and moments of inertia in atomic units:
                           1         2         3
     Eigenvalues --  2399.131663943.592556342.72420
           X            0.96482   0.04291   0.25939
           Y           -0.06682   0.99422   0.08407
           Z           -0.25428  -0.09845   0.96211
 This molecule is an asymmetric top.
 Rotational symmetry number  1.
 Warning -- assumption of classical behavior for rotation
           may cause significant error
 Rotational temperatures (Kelvin)      0.03610     0.02196     0.01366
 Rotational constants (GHZ):           0.75225     0.45764     0.28454
 Zero-point vibrational energy     118979.8 (Joules/Mol)
                                   28.43685 (Kcal/Mol)
 Warning -- explicit consideration of  16 degrees of freedom as
           vibrations may cause significant error
 Vibrational temperatures:     95.96   105.88   156.97   264.14   291.43
          (Kelvin)            294.24   310.13   397.09   451.78   470.26
                              471.50   517.79   553.16   638.86   716.40
                              788.01  1003.28  1025.89  1035.60  1112.18
                             1184.17  1297.08  1436.57  1608.76  1626.91
                             1899.20  2107.65  2223.71  2232.41  2302.95

 Zero-point correction=                           0.045317 (Hartree/Particle)
 Thermal correction to Energy=                    0.056325
 Thermal correction to Enthalpy=                  0.057269
 Thermal correction to Gibbs Free Energy=         0.006133
 Sum of electronic and zero-point Energies=          -2220.095580
 Sum of electronic and thermal Energies=             -2220.084572
 Sum of electronic and thermal Enthalpies=           -2220.083627
 Sum of electronic and thermal Free Energies=        -2220.134763

                     E (Thermal)             CV                S
                      KCal/Mol        Cal/Mol-Kelvin    Cal/Mol-Kelvin
 Total                   35.345             38.166            107.625
 Electronic               0.000              0.000              1.377
 Translational            0.889              2.981             42.375
 Rotational               0.889              2.981             32.462
 Vibrational             33.567             32.205             31.410
 Vibration     1          0.598              1.970              4.249
 Vibration     2          0.599              1.966              4.055
 Vibration     3          0.606              1.942              3.285
 Vibration     4          0.631              1.862              2.292
 Vibration     5          0.639              1.836              2.110
 Vibration     6          0.640              1.833              2.092
 Vibration     7          0.645              1.817              1.996
 Vibration     8          0.678              1.718              1.558
 Vibration     9          0.702              1.647              1.341
 Vibration    10          0.711              1.622              1.276
 Vibration    11          0.711              1.620              1.271
 Vibration    12          0.734              1.555              1.123
 Vibration    13          0.753              1.503              1.022
 Vibration    14          0.804              1.374              0.814
 Vibration    15          0.853              1.255              0.663
 Vibration    16          0.903              1.145              0.549

 Optimization completed.
    -- Stationary point found.
 Normal termination of Gaussian 16 at Sat Jan  6 05:48:46 2024.
