 Gaussian 16, Revision A.03,
 Gaussian 16:  ES64L-G16RevA.03 25-Dec-2016

 --------------------------------------
 #P UB3LYP/6-311++G(d,p) nosym opt freq
 --------------------------------------

 -------
 Radical
 -------
 Symbolic Z-matrix:
 Charge = -1 Multiplicity = 2

 SCF Done:  E(UB3LYP) =  -3577.36943888     A.U. after   22 cycles
 SCF Done:  E(UB3LYP) =  -3577.38152270     A.U. after   17 cycles
 SCF Done:  E(UB3LYP) =  -3577.38283699     A.U. after   17 cycles
 SCF Done:  E(UB3LYP) =  -3577.38300650     A.U. after   17 cycles
 SCF Done:  E(UB3LYP) =  -3577.38309749     A.U. after   14 cycles
 SCF Done:  E(UB3LYP) =  -3577.38315265     A.U. after   14 cycles
 SCF Done:  E(UB3LYP) =  -3577.38372891     A.U. after   20 cycles
 SCF Done:  E(UB3LYP) =  -3577.36092809     A.U. after   24 cycles
 SCF Done:  E(UB3LYP) =  -3577.38538783     A.U. after   23 cycles
 SCF Done:  E(UB3LYP) =  -3577.38646938     A.U. after   20 cycles
 SCF Done:  E(UB3LYP) =  -3577.38977319     A.U. after   19 cycles
 SCF Done:  E(UB3LYP) =  -3577.38992501     A.U. after   16 cycles
 SCF Done:  E(UB3LYP) =  -3577.38993927     A.U. after   15 cycles
 SCF Done:  E(UB3LYP) =  -3577.38994310     A.U. after   14 cycles
 SCF Done:  E(UB3LYP) =  -3577.38994529     A.U. after   15 cycles
 SCF Done:  E(UB3LYP) =  -3577.38994626     A.U. after   13 cycles
 SCF Done:  E(UB3LYP) =  -3577.38994792     A.U. after   14 cycles
 SCF Done:  E(UB3LYP) =  -3577.38994912     A.U. after   13 cycles
 SCF Done:  E(UB3LYP) =  -3577.38994921     A.U. after   11 cycles
 Optimization completed.
    -- Stationary point found.
 Normal termination of Gaussian 16 at Fri Dec 29 00:00:07 2023.

 ----------------------------------------------------------------------
 #P Geom=AllCheck Guess=TCheck SCRF=Check GenChk UB3LYP/6-311++G(d,p) F
 req
 ----------------------------------------------------------------------

 Structure from the checkpoint file:  "295-rad.chk"
 -------
 Radical
 -------
 Charge = -1 Multiplicity = 2

                          Input orientation:
 ---------------------------------------------------------------------
 Center     Atomic      Atomic             Coordinates (Angstroms)
 Number     Number       Type             X           Y           Z
 ---------------------------------------------------------------------
      1          6           0       -0.940055    2.090785   -0.218137
      2          6           0       -1.341087    2.204265    1.100068
      3          6           0       -0.683964    1.464191    2.103780
      4          6           0        0.125822    1.238326   -0.579159
      5          6           0        0.791413    0.489877    0.433837
      6          6           0        0.364418    0.623438    1.766531
      7          6           0        0.544932    1.120133   -1.959725
      8          6           0        1.644359    0.222891   -2.230374
      9          6           0        2.304838   -0.521795   -1.276128
     10          6           0        1.914607   -0.416636    0.113287
     11          8           0        0.021697    1.742021   -2.942070
     12          8           0        2.499656   -1.067692    1.018176
     13          1           0       -1.429875    2.649542   -1.007677
     14          1           0       -2.162882    2.863987    1.363404
     15          1           0       -0.999709    1.553853    3.138949
     16          1           0        0.888227    0.043234    2.517806
     17          8           0        1.986214    0.165238   -3.550705
     18          6           0        3.446771   -1.435367   -1.639072
     19          6           0        4.827576   -0.769002   -1.486374
     20          6           0        5.990693   -1.708739   -1.821701
     21          6           0        7.369746   -1.056300   -1.671975
     22          6           0        8.537929   -1.991246   -2.006172
     23          6           0        9.914598   -1.334374   -1.852716
     24          6           0       11.083964   -2.267355   -2.187086
     25          6           0       12.457627   -1.603116   -2.030127
     26          6           0       13.624389   -2.545281   -2.369646
     27          6           0       14.962684   -1.849030   -2.200514
     28         35           0       16.496768   -3.042389   -2.635210
     29          1           0        1.338577    0.785189   -3.953845
     30          1           0        3.327105   -1.779829   -2.671428
     31          1           0        3.409789   -2.307624   -0.978443
     32          1           0        4.927887   -0.413919   -0.455212
     33          1           0        4.871970    0.114172   -2.134994
     34          1           0        5.875846   -2.077343   -2.850398
     35          1           0        5.937403   -2.592998   -1.172677
     36          1           0        7.483620   -0.689123   -0.643714
     37          1           0        7.421212   -0.169686   -2.317733
     38          1           0        8.425187   -2.357899   -3.035081
     39          1           0        8.486984   -2.878185   -1.360975
     40          1           0       10.026905   -0.968575   -0.823766
     41          1           0        9.964845   -0.446834   -2.496988
     42          1           0       10.974811   -2.632007   -3.216442
     43          1           0       11.036327   -3.154601   -1.542971
     44          1           0       12.567837   -1.241130   -1.000143
     45          1           0       12.505140   -0.715830   -2.674007
     46          1           0       13.525188   -2.901360   -3.399751
     47          1           0       13.587524   -3.428240   -1.724079
     48          1           0       15.141693   -1.533113   -1.174593
     49          1           0       15.077605   -0.998291   -2.869399
 ---------------------------------------------------------------------

 SCF Done:  E(UB3LYP) =  -3577.38994921     A.U. after    1 cycles

 Alpha  occ. eigenvalues -- -482.77546 -62.42842 -56.24864 -56.24491 -56.24488
 Alpha  occ. eigenvalues --  -19.01936 -18.95695 -18.94406 -10.18854 -10.13905
 Alpha  occ. eigenvalues --  -10.12989 -10.11824 -10.10770 -10.09727 -10.09695
 Alpha  occ. eigenvalues --  -10.09561 -10.09303 -10.08502 -10.07189 -10.05908
 Alpha  occ. eigenvalues --  -10.05734 -10.05508 -10.05306 -10.05204 -10.05126
 Alpha  occ. eigenvalues --  -10.04976 -10.04659 -10.03890  -8.63792  -6.46884
 Alpha  occ. eigenvalues --   -6.45659  -6.45650  -2.57978  -2.57634  -2.57626
 Alpha  occ. eigenvalues --   -2.56654  -2.56654  -0.93852  -0.86918  -0.86667
 Alpha  occ. eigenvalues --   -0.78820  -0.75308  -0.73809  -0.72498  -0.69982
 Alpha  occ. eigenvalues --   -0.68420  -0.66046  -0.63467  -0.63114  -0.60770
 Alpha  occ. eigenvalues --   -0.57881  -0.55725  -0.54442  -0.53059  -0.51232
 Alpha  occ. eigenvalues --   -0.49758  -0.48653  -0.46538  -0.45391  -0.44761
 Alpha  occ. eigenvalues --   -0.42040  -0.41602  -0.39144  -0.38982  -0.38518
 Alpha  occ. eigenvalues --   -0.38348  -0.36613  -0.35771  -0.34441  -0.34112
 Alpha  occ. eigenvalues --   -0.34068  -0.33303  -0.32773  -0.31369  -0.31070
 Alpha  occ. eigenvalues --   -0.30726  -0.30397  -0.30095  -0.28991  -0.28719
 Alpha  occ. eigenvalues --   -0.28524  -0.27744  -0.27350  -0.26593  -0.26438
 Alpha  occ. eigenvalues --   -0.26148  -0.25735  -0.24637  -0.24404  -0.23922
 Alpha  occ. eigenvalues --   -0.23874  -0.23628  -0.22596  -0.22445  -0.21993
 Alpha  occ. eigenvalues --   -0.21330  -0.21007  -0.14350  -0.13682  -0.13045
 Alpha  occ. eigenvalues --   -0.10949  -0.10516  -0.02369
 Alpha virt. eigenvalues --    0.01695   0.03603   0.05065   0.05239   0.05569
 Alpha virt. eigenvalues --    0.07469   0.07699   0.08143   0.08221   0.08755
 Alpha virt. eigenvalues --    0.08857   0.09473   0.09596   0.09983   0.10168

  Beta  occ. eigenvalues -- -482.77546 -62.42842 -56.24864 -56.24491 -56.24488
  Beta  occ. eigenvalues --  -19.01895 -18.95024 -18.93846 -10.18854 -10.13905
  Beta  occ. eigenvalues --  -10.12989 -10.11824 -10.10770 -10.09727 -10.09600
  Beta  occ. eigenvalues --  -10.09463 -10.09040 -10.08502 -10.07188 -10.05903
  Beta  occ. eigenvalues --  -10.05635 -10.05499 -10.05266 -10.05171 -10.05167
  Beta  occ. eigenvalues --  -10.04847 -10.04667 -10.03808  -8.63792  -6.46884
  Beta  occ. eigenvalues --   -6.45659  -6.45650  -2.57978  -2.57634  -2.57626
  Beta  occ. eigenvalues --   -2.56654  -2.56654  -0.93657  -0.85957  -0.85536
  Beta  occ. eigenvalues --   -0.78820  -0.75307  -0.73582  -0.72495  -0.69914
  Beta  occ. eigenvalues --   -0.68181  -0.65896  -0.63331  -0.62928  -0.60691
  Beta  occ. eigenvalues --   -0.57772  -0.55530  -0.53999  -0.52848  -0.51172
  Beta  occ. eigenvalues --   -0.49628  -0.48523  -0.46358  -0.45391  -0.44519
  Beta  occ. eigenvalues --   -0.42038  -0.41449  -0.39140  -0.38975  -0.38517
  Beta  occ. eigenvalues --   -0.38139  -0.36531  -0.35569  -0.34384  -0.34070
  Beta  occ. eigenvalues --   -0.33994  -0.33226  -0.32740  -0.31112  -0.30944
  Beta  occ. eigenvalues --   -0.30686  -0.30246  -0.29548  -0.28848  -0.28436
  Beta  occ. eigenvalues --   -0.28235  -0.27533  -0.27214  -0.26394  -0.26284
  Beta  occ. eigenvalues --   -0.25628  -0.25340  -0.24502  -0.24103  -0.23874
  Beta  occ. eigenvalues --   -0.23591  -0.23484  -0.22335  -0.21872  -0.21168
  Beta  occ. eigenvalues --   -0.20804  -0.20111  -0.13009  -0.12445  -0.12266
  Beta  occ. eigenvalues --   -0.10404  -0.09476
  Beta virt. eigenvalues --    0.01695   0.03603   0.04191   0.05065   0.05239
  Beta virt. eigenvalues --    0.05569   0.07470   0.07699   0.08142   0.08217
  Beta virt. eigenvalues --    0.08855   0.09372   0.09489   0.09612   0.09982

 Mulliken charges and spin densities:
               1          2
     1  C   -0.005675   0.065744
     2  C   -0.307655   0.001448
     3  C   -0.374551   0.079646
     4  C    0.619790   0.011859
     5  C   -0.017665   0.078130
     6  C    0.059690  -0.008358
     7  C   -1.169810   0.139651
     8  C   -0.650605   0.059627
     9  C    2.217969   0.062935
    10  C   -0.877396   0.046516
    11  O   -0.451168   0.246779
    12  O   -0.363112   0.209702
    13  H    0.156623  -0.003802
    14  H    0.123998  -0.000779
    15  H    0.120469  -0.005953
    16  H    0.160628   0.000119
    17  O   -0.258161   0.015019
    18  C   -0.469215   0.013614
    19  C   -0.884643  -0.001037
    20  C   -0.306722   0.000308
    21  C   -0.006649  -0.008020
    22  C    0.048450  -0.002249
    23  C    0.028054  -0.000092
    24  C   -0.116213   0.000602
    25  C   -0.254129   0.000036
    26  C   -0.371056   0.000011
    27  C   -0.628000  -0.000066
    28  Br  -0.164507   0.000004
    29  H    0.266321  -0.004366
    30  H    0.215234  -0.000872
    31  H    0.212982   0.002849
    32  H    0.181735  -0.002072
    33  H    0.154573   0.002794
    34  H    0.097313  -0.000607
    35  H    0.108783   0.000963
    36  H    0.122342  -0.000069
    37  H    0.118089   0.000009
    38  H    0.121791   0.000004
    39  H    0.124022  -0.000012
    40  H    0.124438  -0.000005
    41  H    0.123178  -0.000008
    42  H    0.126138  -0.000015
    43  H    0.126762   0.000007
    44  H    0.128025  -0.000006
    45  H    0.127253   0.000006
    46  H    0.142875  -0.000002
    47  H    0.143269   0.000002
    48  H    0.188231  -0.000001
    49  H    0.187909   0.000006
 Sum of Mulliken charges =  -1.00000   1.00000

 Dipole moment (field-independent basis, Debye):
    X=            -10.1106    Y=              0.0746    Z=              4.8072  Tot=             11.1955
 Quadrupole moment (field-independent basis, Debye-Ang):
   XX=           -280.2225   YY=           -182.3602   ZZ=           -189.9397
   XY=             35.8844   XZ=             18.0687   YZ=              3.1713

  Exact polarizability: 367.802 -85.284 246.867 -35.385   4.174 297.450
 Approx polarizability: 435.068-111.357 394.424 -13.118 -26.535 510.121

                      1                      2                      3
                      A                      A                      A
 Frequencies --      8.5617                14.9734                18.1504
 Red. masses --      7.0243                 6.2902                 3.4708
 Frc consts  --      0.0003                 0.0008                 0.0007
 IR Inten    --      0.0551                 0.2098                 1.9341

                      4                      5                      6
                      A                      A                      A
 Frequencies --     29.4719                36.8065                51.3234
 Red. masses --      2.2973                 6.4841                 2.9869
 Frc consts  --      0.0012                 0.0052                 0.0046
 IR Inten    --      0.0270                 1.9897                 0.0377

                      7                      8                      9
                      A                      A                      A
 Frequencies --     73.1684                75.5717                95.0997
 Red. masses --      5.3359                 2.0917                 2.5645
 Frc consts  --      0.0168                 0.0070                 0.0137
 IR Inten    --      2.7308                 0.7160                 0.7270

                     10                     11                     12
                      A                      A                      A
 Frequencies --     99.6237               104.1908               120.9682
 Red. masses --      5.3732                 7.7150                 1.9303
 Frc consts  --      0.0314                 0.0493                 0.0166
 IR Inten    --      2.8719                 0.8194                 0.0098

                     13                     14                     15
                      A                      A                      A
 Frequencies --    133.3029               137.5179               159.1608
 Red. masses --      4.8462                 2.1561                 5.9568
 Frc consts  --      0.0507                 0.0240                 0.0889
 IR Inten    --      1.3585                 0.1012                 0.8651

                     16                     17                     18
                      A                      A                      A
 Frequencies --    159.7514               166.4478               179.9872
 Red. masses --      2.0516                 2.0376                 6.7030
 Frc consts  --      0.0308                 0.0333                 0.1279
 IR Inten    --      0.0989                 0.0746                 0.5762

                     19                     20                     21
                      A                      A                      A
 Frequencies --    216.8878               240.3626               252.5004
 Red. masses --      5.1788                 4.5461                 4.4414
 Frc consts  --      0.1435                 0.1547                 0.1668
 IR Inten    --      1.6462                 1.4480                 2.8347

                     22                     23                     24
                      A                      A                      A
 Frequencies --    298.1055               316.3915               335.1459
 Red. masses --      2.8768                 4.7229                 5.0651
 Frc consts  --      0.1506                 0.2786                 0.3352
 IR Inten    --      2.2008                 0.2627                 6.1937

                     25                     26                     27
                      A                      A                      A
 Frequencies --    365.0534               377.3806               379.2321
 Red. masses --      5.0301                 7.7943                 4.6072
 Frc consts  --      0.3950                 0.6540                 0.3904
 IR Inten    --      7.3905                 8.8385                 1.5205

                     28                     29                     30
                      A                      A                      A
 Frequencies --    424.9154               430.6861               450.2088
 Red. masses --      5.7092                 8.7687                 3.8400
 Frc consts  --      0.6073                 0.9583                 0.4586
 IR Inten    --      1.4251                 1.4997                 3.0203

                     31                     32                     33
                      A                      A                      A
 Frequencies --    461.4694               486.7941               496.7905
 Red. masses --      4.2480                 3.2965                 5.2206
 Frc consts  --      0.5330                 0.4603                 0.7591
 IR Inten    --      9.6225                 0.7753                 0.9186

                     34                     35                     36
                      A                      A                      A
 Frequencies --    533.4210               571.9765               636.5729
 Red. masses --      6.2704                 5.4862                 4.7265
 Frc consts  --      1.0512                 1.0575                 1.1285
 IR Inten    --      0.9608                 2.5819                41.8312

                     37                     38                     39
                      A                      A                      A
 Frequencies --    645.6661               676.5449               699.5436
 Red. masses --      6.1810                 5.7310                 3.1450
 Frc consts  --      1.5182                 1.5455                 0.9068
 IR Inten    --     17.7359                 3.1649                 2.0139

                     40                     41                     42
                      A                      A                      A
 Frequencies --    705.2070               712.5891               731.0060
 Red. masses --      3.2443                 4.9187                 1.0676
 Frc consts  --      0.9506                 1.4716                 0.3361
 IR Inten    --     17.6246                 1.9368                 4.7031

                     43                     44                     45
                      A                      A                      A
 Frequencies --    733.5769               734.9109               740.5703
 Red. masses --      1.1062                 1.1195                 1.1357
 Frc consts  --      0.3507                 0.3562                 0.3670
 IR Inten    --      1.0249               124.8043                 2.8612

                     46                     47                     48
                      A                      A                      A
 Frequencies --    753.9725               762.1626               781.2336
 Red. masses --      1.1965                 2.4041                 1.7940
 Frc consts  --      0.4008                 0.8228                 0.6451
 IR Inten    --      0.3892                 9.3442                 2.5008

                     49                     50                     51
                      A                      A                      A
 Frequencies --    784.0404               826.3181               862.5128
 Red. masses --      1.7998                 1.4431                 1.3935
 Frc consts  --      0.6518                 0.5806                 0.6108
 IR Inten    --      2.6645                 3.8583                 0.0577

                     52                     53                     54
                      A                      A                      A
 Frequencies --    871.1421               912.8581               945.0082
 Red. masses --      1.9064                 1.6405                 5.8300
 Frc consts  --      0.8524                 0.8054                 3.0675
 IR Inten    --      8.4606                 8.4834                24.2709

                     55                     56                     57
                      A                      A                      A
 Frequencies --    969.1616               969.5706               978.1955
 Red. masses --      1.4130                 1.3183                 1.2992
 Frc consts  --      0.7819                 0.7302                 0.7325
 IR Inten    --      0.2211                 1.4992                 1.1577

                     58                     59                     60
                      A                      A                      A
 Frequencies --    982.0308               987.0580              1014.6361
 Red. masses --      5.0692                 4.9542                 4.1040
 Frc consts  --      2.8803                 2.8438                 2.4893
 IR Inten    --      2.3563                 2.9109                12.5839

                     61                     62                     63
                      A                      A                      A
 Frequencies --   1024.7801              1028.2159              1037.9544
 Red. masses --      1.6635                 2.5209                 2.1000
 Frc consts  --      1.0293                 1.5703                 1.3330
 IR Inten    --      1.3187                 2.0768                19.2150

                     64                     65                     66
                      A                      A                      A
 Frequencies --   1048.0032              1058.1957              1060.7264
 Red. masses --      2.7659                 2.2723                 3.0081
 Frc consts  --      1.7898                 1.4991                 1.9941
 IR Inten    --      1.1619                31.7486                 2.2618

                     67                     68                     69
                      A                      A                      A
 Frequencies --   1061.3951              1064.2299              1082.0684
 Red. masses --      2.5284                 2.4081                 1.0734
 Frc consts  --      1.6782                 1.6070                 0.7405
 IR Inten    --      0.3691                 1.4255                 0.4031

                     70                     71                     72
                      A                      A                      A
 Frequencies --   1106.8688              1111.5721              1132.2681
 Red. masses --      2.1450                 4.1993                 1.8448
 Frc consts  --      1.5483                 3.0570                 1.3935
 IR Inten    --      4.5243                 1.3504                43.8049

                     73                     74                     75
                      A                      A                      A
 Frequencies --   1150.7019              1196.5446              1205.1679
 Red. masses --      1.3099                 2.5698                 2.3204
 Frc consts  --      1.0219                 2.1677                 1.9857
 IR Inten    --      0.5718                 9.6757                20.3000

                     76                     77                     78
                      A                      A                      A
 Frequencies --   1213.3116              1218.2397              1237.8861
 Red. masses --      1.1798                 1.7617                 1.2426
 Frc consts  --      1.0233                 1.5404                 1.1218
 IR Inten    --      4.6735                 4.7537                19.4378

                     79                     80                     81
                      A                      A                      A
 Frequencies --   1245.3388              1257.3895              1269.9141
 Red. masses --      1.9664                 1.8500                 1.2816
 Frc consts  --      1.7968                 1.7233                 1.2177
 IR Inten    --      2.1508                35.8468                18.8708

                     82                     83                     84
                      A                      A                      A
 Frequencies --   1282.7489              1290.5570              1304.2278
 Red. masses --      1.6199                 1.6943                 1.3441
 Frc consts  --      1.5704                 1.6626                 1.3471
 IR Inten    --     19.1593                 3.4930                20.4373

                     85                     86                     87
                      A                      A                      A
 Frequencies --   1311.5900              1322.0395              1326.0754
 Red. masses --      1.2489                 1.0304                 1.1128
 Frc consts  --      1.2658                 1.0611                 1.1529
 IR Inten    --     11.9932                 2.7237                 3.0840

                     88                     89                     90
                      A                      A                      A
 Frequencies --   1332.3298              1333.4087              1337.0309
 Red. masses --      1.0944                 1.3984                 1.1018
 Frc consts  --      1.1446                 1.4649                 1.1605
 IR Inten    --      7.7637                23.5101                 0.4014

                     91                     92                     93
                      A                      A                      A
 Frequencies --   1339.0654              1346.1642              1353.8855
 Red. masses --      1.1179                 2.1942                 3.9232
 Frc consts  --      1.1810                 2.3427                 4.2370
 IR Inten    --      7.0939                21.7526                49.5482

                     94                     95                     96
                      A                      A                      A
 Frequencies --   1363.3664              1378.5541              1387.3656
 Red. masses --      1.5250                 1.4821                 1.5397
 Frc consts  --      1.6701                 1.6595                 1.7461
 IR Inten    --     23.0857                 1.0389                 0.1295

                     97                     98                     99
                      A                      A                      A
 Frequencies --   1395.2786              1396.5248              1436.4516
 Red. masses --      1.5708                 1.5945                 2.4180
 Frc consts  --      1.8017                 1.8322                 2.9396
 IR Inten    --      0.1016                 0.2503               350.7744

                    100                    101                    102
                      A                      A                      A
 Frequencies --   1461.1371              1465.4257              1481.7844
 Red. masses --      1.5028                 2.2280                 1.1205
 Frc consts  --      1.8904                 2.8190                 1.4495
 IR Inten    --     52.9358                24.0487                 3.9088

                    103                    104                    105
                      A                      A                      A
 Frequencies --   1482.1828              1483.8236              1485.8341
 Red. masses --      1.1404                 1.1662                 1.4592
 Frc consts  --      1.4761                 1.5128                 1.8981
 IR Inten    --      6.7975                10.9900                33.7939

                    106                    107                    108
                      A                      A                      A
 Frequencies --   1487.0937              1488.9894              1493.9979
 Red. masses --      1.2847                 1.0840                 1.0947
 Frc consts  --      1.6739                 1.4160                 1.4397
 IR Inten    --     22.9262                 1.4861                 0.3732

                    109                    110                    111
                      A                      A                      A
 Frequencies --   1501.8873              1509.3575              1514.5935
 Red. masses --      1.1003                 1.1011                 1.1002
 Frc consts  --      1.4622                 1.4779                 1.4870
 IR Inten    --      1.6471                 0.0752                12.2544

                    112                    113                    114
                      A                      A                      A
 Frequencies --   1524.7890              1540.3439              1578.2984
 Red. masses --      5.6504                 5.8375                 5.3956
 Frc consts  --      7.7401                 8.1604                 7.9189
 IR Inten    --    415.1614                68.7712                20.8064

                    115                    116                    117
                      A                      A                      A
 Frequencies --   1621.7810              1640.0318              2983.7389
 Red. masses --      5.8319                 6.1991                 1.0580
 Frc consts  --      9.0374                 9.8239                 5.5493
 IR Inten    --     13.6810                 8.8843                 9.5954

                    118                    119                    120
                      A                      A                      A
 Frequencies --   2988.3392              2990.6651              2995.0501
 Red. masses --      1.0572                 1.0584                 1.0581
 Frc consts  --      5.5627                 5.5774                 5.5923
 IR Inten    --      1.2980                 4.6245                 5.4592

                    121                    122                    123
                      A                      A                      A
 Frequencies --   2998.3544              3002.5159              3005.7126
 Red. masses --      1.0612                 1.0934                 1.0760
 Frc consts  --      5.6207                 5.8077                 5.7275
 IR Inten    --     13.6489                 1.7708                42.2545

                    124                    125                    126
                      A                      A                      A
 Frequencies --   3006.9096              3010.3721              3014.5691
 Red. masses --      1.0781                 1.0691                 1.0973
 Frc consts  --      5.7431                 5.7082                 5.8755
 IR Inten    --     77.4708                25.3292                 1.5341

                    127                    128                    129
                      A                      A                      A
 Frequencies --   3022.0982              3024.8957              3032.4927
 Red. masses --      1.0697                 1.0939                 1.0587
 Frc consts  --      5.7563                 5.8971                 5.7363
 IR Inten    --     77.6468                27.1022                24.3935

                    130                    131                    132
                      A                      A                      A
 Frequencies --   3037.3298              3047.3989              3051.2268
 Red. masses --      1.1042                 1.1027                 1.1047
 Frc consts  --      6.0020                 6.0336                 6.0596
 IR Inten    --      6.7537                14.0585               116.4362

                    133                    134                    135
                      A                      A                      A
 Frequencies --   3070.8041              3072.1871              3089.0841
 Red. masses --      1.1059                 1.1054                 1.0562
 Frc consts  --      6.1444                 6.1469                 5.9383
 IR Inten    --     42.7979                52.8979                16.7547

                    136                    137                    138
                      A                      A                      A
 Frequencies --   3133.2791              3150.9353              3152.4964
 Red. masses --      1.0846                 1.1117                 1.0909
 Frc consts  --      6.2734                 6.5029                 6.3876
 IR Inten    --     15.4997                 7.7235                49.0220

                    139                    140                    141
                      A                      A                      A
 Frequencies --   3179.2741              3182.1740              3480.9796
 Red. masses --      1.0915                 1.0929                 1.0635
 Frc consts  --      6.5003                 6.5208                 7.5927
 IR Inten    --     14.1707                26.5251               107.3552

 - Thermochemistry -
 -------------------
 Temperature   298.150 Kelvin.  Pressure   1.00000 Atm.
 Atom     1 has atomic number  6 and mass  12.00000

 Molecular mass:   392.09871 amu.
 Principal axes and moments of inertia in atomic units:
                           1         2         3
     Eigenvalues --  2702.03843********************
           X            0.96390   0.12282   0.23626
           Y           -0.23003  -0.06287   0.97115
           Z           -0.13413   0.99043   0.03235
 This molecule is an asymmetric top.
 Rotational symmetry number  1.
 Warning -- assumption of classical behavior for rotation
           may cause significant error
 Rotational temperatures (Kelvin)      0.03206     0.00133     0.00130
 Rotational constants (GHZ):           0.66792     0.02777     0.02718
 Zero-point vibrational energy    1072148.1 (Joules/Mol)
                                  256.24954 (Kcal/Mol)
 Warning -- explicit consideration of  35 degrees of freedom as
           vibrations may cause significant error
 Vibrational temperatures:     12.32    21.54    26.11    42.40    52.96
          (Kelvin)             73.84   105.27   108.73   136.83   143.34
                              149.91   174.05   191.79   197.86   229.00
                              229.85   239.48   258.96   312.05   345.83
                              363.29   428.91   455.22   482.20   525.23
                              542.97   545.63   611.36   619.66   647.75
                              663.95   700.39   714.77   767.47   822.95
                              915.89   928.97   973.40  1006.49  1014.64
                             1025.26  1051.75  1055.45  1057.37  1065.52
                             1084.80  1096.58  1124.02  1128.06  1188.89
                             1240.96  1253.38  1313.40  1359.66  1394.41
                             1395.00  1407.41  1412.92  1420.16  1459.84
                             1474.43  1479.37  1493.38  1507.84  1522.51
                             1526.15  1527.11  1531.19  1556.86  1592.54
                             1599.30  1629.08  1655.60  1721.56  1733.97
                             1745.68  1752.78  1781.04  1791.76  1809.10
                             1827.12  1845.59  1856.82  1876.49  1887.09
                             1902.12  1907.93  1916.93  1918.48  1923.69
                             1926.62  1936.83  1947.94  1961.58  1983.43
                             1996.11  2007.49  2009.29  2066.73  2102.25
                             2108.42  2131.96  2132.53  2134.89  2137.78
                             2139.60  2142.32  2149.53  2160.88  2171.63
                             2179.16  2193.83  2216.21  2270.82  2333.38
                             2359.64  4292.93  4299.55  4302.90  4309.21
                             4313.96  4319.95  4324.55  4326.27  4331.25
                             4337.29  4348.13  4352.15  4363.08  4370.04
                             4384.53  4390.03  4418.20  4420.19  4444.50
                             4508.09  4533.49  4535.74  4574.27  4578.44
                             5008.35

 Zero-point correction=                           0.408360 (Hartree/Particle)
 Thermal correction to Energy=                    0.433158
 Thermal correction to Enthalpy=                  0.434102
 Thermal correction to Gibbs Free Energy=         0.346657
 Sum of electronic and zero-point Energies=          -3576.981590
 Sum of electronic and thermal Energies=             -3576.956791
 Sum of electronic and thermal Enthalpies=           -3576.955847
 Sum of electronic and thermal Free Energies=        -3577.043292

                     E (Thermal)             CV                S
                      KCal/Mol        Cal/Mol-Kelvin    Cal/Mol-Kelvin
 Total                  271.811             91.177            184.043
 Electronic               0.000              0.000              1.377
 Translational            0.889              2.981             43.791
 Rotational               0.889              2.981             37.698
 Vibrational            270.033             85.215            101.177
 Vibration     1          0.593              1.987              8.320
 Vibration     2          0.593              1.986              7.209
 Vibration     3          0.593              1.986              6.827
 Vibration     4          0.593              1.984              5.865
 Vibration     5          0.594              1.982              5.424
 Vibration     6          0.596              1.977              4.766
 Vibration     7          0.599              1.967              4.066
 Vibration     8          0.599              1.965              4.003
 Vibration     9          0.603              1.953              3.552
 Vibration    10          0.604              1.949              3.462
 Vibration    11          0.605              1.946              3.374
 Vibration    12          0.609              1.932              3.085
 Vibration    13          0.613              1.920              2.898
 Vibration    14          0.614              1.916              2.838
 Vibration    15          0.621              1.892              2.560
 Vibration    16          0.622              1.892              2.553
 Vibration    17          0.624              1.884              2.475
 Vibration    18          0.629              1.867              2.329
 Vibration    19          0.646              1.815              1.985
 Vibration    20          0.657              1.779              1.800
 Vibration    21          0.664              1.759              1.713
 Vibration    22          0.691              1.677              1.428
 Vibration    23          0.703              1.642              1.329
 Vibration    24          0.716              1.605              1.235
 Vibration    25          0.738              1.544              1.101
 Vibration    26          0.748              1.518              1.050
 Vibration    27          0.749              1.514              1.042
 Vibration    28          0.787              1.416              0.875
 Vibration    29          0.792              1.403              0.856
 Vibration    30          0.809              1.360              0.795
 Vibration    31          0.819              1.336              0.762
 Vibration    32          0.843              1.279              0.692
 Vibration    33          0.852              1.257              0.666
 Vibration    34          0.888              1.176              0.580
 Vibration    35          0.928              1.092              0.500

 Optimization completed.
    -- Stationary point found.
 Normal termination of Gaussian 16 at Fri Dec 29 02:35:56 2023.
