 Q-Chem 5.4, Q-Chem, Inc., Pleasanton, CA (2021)
 Q-Chem 5.4.0 for Intel X86 EM64T Linux

User input:
--------------------------------------------------------------
$molecule
0 1
C                 -1.2717780000      2.4943010000     -0.8187370000
C                 -2.3084110000      1.8285190000     -0.2070210000
C                 -2.1012190000      0.5466820000      0.3528780000
C                  0.0164530000      1.9066820000     -0.8965750000
C                  0.2267710000      0.6101750000     -0.3299050000
C                 -0.8624750000     -0.0495180000      0.2932440000
C                  1.1081430000      2.5587760000     -1.5187320000
C                  2.3524150000      1.9741060000     -1.5860060000
C                  2.5650730000      0.6780140000     -1.0177950000
C                  1.5162230000      0.0239750000     -0.4080560000
C                  3.4635180000      2.7058910000     -2.2557890000
C                  4.8462720000      1.9992700000     -2.3141620000
C                  4.9555830000      0.6851530000     -1.7028800000
C                  3.9036160000      0.0695300000     -1.0983210000
O                  3.3254190000      3.8048940000     -2.7439980000
O                  5.7801040000      2.5569040000     -2.8591840000
H                 -1.4260850000      3.4774660000     -1.2498610000
H                 -3.2901550000      2.2845530000     -0.1517830000
H                 -2.9270900000      0.0330070000      0.8317160000
H                 -0.7049950000     -1.0330060000      0.7227890000
H                  0.9761490000      3.5417630000     -1.9573620000
H                  1.6750230000     -0.9575850000      0.0196260000
H                  5.9330060000      0.2263570000     -1.7616820000
O                  3.9632980000     -1.1433090000     -0.5180680000
C                  5.2148690000     -1.8616720000     -0.5041260000
C                  5.0064040000     -3.1334480000      0.2541130000
C                  5.2747670000     -4.3382820000     -0.2396000000
H                  5.9687520000     -1.2347080000     -0.0134840000
H                  5.5357790000     -2.0593630000     -1.5313020000
H                  4.6387910000     -3.0230200000      1.2708870000
H                  5.6385680000     -4.4714120000     -1.2537910000
H                  5.1469900000     -5.2351970000      0.3550940000
$end
$rem
MAX_SCF_CYCLES=200
BASIS  =  6-311++G(d,p)
GUI  =  2
JOB_TYPE  =  SP
METHOD  =  B3LYP
SOLVENT_METHOD = COSMO
$end
$solvent
dielectric 37.219
opticaldielectric 1.43
$end

--------------------------------------------------------------

             Standard Nuclear Orientation (Angstroms)
    I     Atom           X                Y                Z
 ----------------------------------------------------------------
    1      C       4.1516393239     0.0083728464    -0.0629289235
    2      C       4.7990849989     1.2219049609    -0.0479616980
    3      C       4.0579892102     2.4251918193     0.0010207275
    4      C       2.7353350093    -0.0537043811    -0.0294258044
    5      C       1.9851086944     1.1632317681     0.0206325255
    6      C       2.6826340069     2.3974242380     0.0345524681
    7      C       2.0322091122    -1.2823095078    -0.0448007555
    8      C       0.6568215571    -1.3249484970    -0.0121113133
    9      C      -0.0952033519    -0.1085287727     0.0400732504
   10      C       0.5683558706     1.0994072550     0.0547257321
   11      C      -0.0295762544    -2.6467148782    -0.0335614375
   12      C      -1.5832417071    -2.6410912463    -0.0049030196
   13      C      -2.2495171115    -1.3505939430     0.0517702877
   14      C      -1.5658450103    -0.1745315259     0.0760082897
   15      O       0.5703017271    -3.6973566894    -0.0726145738
   16      O      -2.1854854857    -3.6978532858    -0.0294648935
   17      H       4.7158777745    -0.9170960079    -0.1008016252
   18      H       5.8819778214     1.2607609095    -0.0739015801
   19      H       4.5810147905     3.3746841254     0.0119453581
   20      H       2.1153462180     3.3211994927     0.0717189432
   21      H       2.5761651510    -2.2196916520    -0.0836424674
   22      H       0.0006793601     2.0202723277     0.0913353513
   23      H      -3.3300448239    -1.3872359763     0.0723710112
   24      O      -2.1433439009     1.0397998440     0.1319393218
   25      C      -3.5820698806     1.1387392261     0.1862375834
   26      C      -3.9389875382     2.5856905013     0.3076460860
   27      C      -4.7575074713     3.2156086971    -0.5293869954
   28      H      -3.9353907523     0.5758502107     1.0582888005
   29      H      -4.0144344884     0.6971021818    -0.7166317657
   30      H      -3.5058550030     3.1101255841     1.1553058520
   31      H      -5.1975392393     2.7119609036    -1.3845881952
   32      H      -5.0229522818     4.2564575884    -0.3858005378
 ----------------------------------------------------------------

    9    -880.9063878873      4.88e-06  Convergence criterion met
 Total energy in the final basis set =     -880.9063878873
    5    -880.9306087183      4.60e-06  Convergence criterion met
 Total energy in the final basis set =     -880.9306087183

                    Orbital Energies (a.u.)
 --------------------------------------------------------------

 Alpha MOs
 -- Occupied --
-19.1884 -19.1423 -19.1290 -10.2844 -10.2822 -10.2763 -10.2422 -10.2144
-10.2071 -10.2071 -10.2057 -10.2043 -10.2005 -10.1919 -10.1915 -10.1908
-10.1898 -10.1873 -10.1871 -10.1772  -1.1041  -1.0837  -1.0544  -0.9046
 -0.8653  -0.8244  -0.8047  -0.7983  -0.7626  -0.7555  -0.7204  -0.6883
 -0.6587  -0.6350  -0.6180  -0.5980  -0.5801  -0.5572  -0.5510  -0.5429
 -0.5170  -0.5045  -0.4915  -0.4817  -0.4707  -0.4661  -0.4607  -0.4562
 -0.4475  -0.4446  -0.4355  -0.4318  -0.4244  -0.4157  -0.3966  -0.3931
 -0.3857  -0.3822  -0.3664  -0.3572  -0.3508  -0.3438  -0.3134  -0.3101
 -0.2878  -0.2833  -0.2644  -0.2564  -0.2410

          Ground-State Mulliken Net Atomic Charges

     Atom                 Charge (a.u.)
  ----------------------------------------
      1 C                    -0.133087
      2 C                    -0.318529
      3 C                    -0.361051
      4 C                     0.179428
      5 C                     0.008801
      6 C                    -0.139363
      7 C                     0.120776
      8 C                     0.659369
      9 C                     0.125767
     10 C                    -0.083437
     11 C                    -0.575281
     12 C                    -0.005460
     13 C                     0.118449
     14 C                    -0.482781
     15 O                    -0.304565
     16 O                    -0.363723
     17 H                     0.197441
     18 H                     0.218397
     19 H                     0.224076
     20 H                     0.199332
     21 H                     0.175346
     22 H                     0.157185
     23 H                     0.266955
     24 O                    -0.029995
     25 C                    -0.384941
     26 C                     0.079619
     27 C                    -0.501058
     28 H                     0.197942
     29 H                     0.186381
     30 H                     0.219367
     31 H                     0.166837
     32 H                     0.181802
  ----------------------------------------
  Sum of atomic charges =     0.000000

                    Cartesian Multipole Moments
 -----------------------------------------------------------------
    Charge (ESU x 10^10)
                -0.0000
    Dipole Moment (Debye)
         X       1.4426      Y      11.1901      Z       0.3223
       Tot      11.2873
    Quadrupole Moments (Debye-Ang)
        XX     -84.5527     XY     -11.7005     YY    -144.9218
        XZ       0.3728     YZ       0.1523     ZZ    -117.1058

 Total job time:  77.39s(wall), 577.54s(cpu)
        *  Thank you very much for using Q-Chem.  Have a nice day.  *
