 Q-Chem 5.4, Q-Chem, Inc., Pleasanton, CA (2021)
 Q-Chem 5.4.0 for Intel X86 EM64T Linux

User input:
--------------------------------------------------------------
$molecule
-2 1
C                 -0.9438970000      3.9878550000     -0.1320550000
C                 -2.1938430000      3.4058100000     -0.2194740000
C                 -2.3142080000      1.9883260000     -0.2226230000
C                  0.2464100000      3.2187530000     -0.0430600000
C                  0.1227980000      1.7698780000     -0.0559140000
C                 -1.1715530000      1.2100200000     -0.1449490000
C                  1.5249630000      3.8705770000      0.0250310000
C                  2.6407120000      2.9925410000      0.1057540000
C                  2.5116850000      1.5869230000      0.1347030000
C                  1.2793500000      0.8902060000      0.0190860000
O                  1.6982930000      5.1691360000     -0.0041330000
O                  1.1991660000     -0.3974860000     -0.0122820000
N                  3.9151310000      3.6411500000      0.1875110000
S                  3.9662990000      0.5178770000      0.2880870000
H                 -0.8235440000      5.0674310000     -0.1283210000
H                 -3.0851600000      4.0295760000     -0.2837840000
H                 -3.2958620000      1.5210620000     -0.2897280000
H                 -1.2266220000      0.1249820000     -0.1507750000
H                  3.6812960000      4.6350870000      0.0857170000
H                  4.5192590000      3.3611730000     -0.5842590000
H                  4.7744780000      1.4962850000      0.7590480000
$end
$rem
MAX_SCF_CYCLES=200
BASIS  =  6-311++G(d,p)
GUI  =  2
JOB_TYPE  =  SP
METHOD  =  B3LYP
SOLVENT_METHOD = COSMO
$end
$solvent
dielectric 37.219
opticaldielectric 1.43
$end

--------------------------------------------------------------

             Standard Nuclear Orientation (Angstroms)
    I     Atom           X                Y                Z
 ----------------------------------------------------------------
    1      C       2.5296283529    -1.0954873267     0.0308900769
    2      C       3.5915838961    -0.2117717469     0.0219087170
    3      C       3.3445354405     1.1890745725     0.0030622381
    4      C       1.1787512702    -0.6580734195     0.0225875673
    5      C       0.9274911134     0.7739604229    -0.0062451469
    6      C       2.0380510767     1.6476417834    -0.0133282874
    7      C       0.1085081256    -1.6165433451     0.0114655859
    8      C      -1.1978236783    -1.0546862191    -0.0016888452
    9      C      -1.4358100782     0.3368650731     0.0122914245
   10      C      -0.4181737992     1.3269273957    -0.0280126944
   11      O       0.2763689962    -2.9160068732    -0.0076804717
   12      O      -0.6686398164     2.5920614779    -0.0756219430
   13      N      -2.2658974116    -2.0090093282     0.0010557990
   14      S      -3.1229900749     0.9961657022     0.0444508651
   15      H       2.6900419495    -2.1697609960     0.0445534817
   16      H       4.6152331424    -0.5855637181     0.0312669301
   17      H       4.1758357594     1.8929146189    -0.0026185404
   18      H       1.8134638325     2.7104289213    -0.0337749884
   19      H      -1.7783858475    -2.9093705022    -0.0670163458
   20      H      -2.8639770692    -1.8923491737    -0.8160597531
   21      H      -3.6853724436    -0.1577650666     0.4738802847
 ----------------------------------------------------------------

   11    -988.8406371484      7.34e-06  Convergence criterion met
 Total energy in the final basis set =     -988.8406371484
    6    -989.1249929720      3.20e-06  Convergence criterion met
 Total energy in the final basis set =     -989.1249929720

                    Orbital Energies (a.u.)
 --------------------------------------------------------------

 Alpha MOs
 -- Occupied --
-88.8308 -19.0298 -19.0276 -14.2868 -10.1823 -10.1722 -10.1669 -10.1612
-10.1512 -10.1494 -10.1483 -10.1474 -10.1431 -10.1423  -7.9172  -5.8805
 -5.8772  -5.8719  -0.9470  -0.9407  -0.8727  -0.8272  -0.7746  -0.7353
 -0.7258  -0.6759  -0.6406  -0.5815  -0.5724  -0.5306  -0.5050  -0.4785
 -0.4497  -0.4404  -0.4162  -0.4070  -0.3985  -0.3817  -0.3779  -0.3696
 -0.3659  -0.3395  -0.3336  -0.3254  -0.3212  -0.3065  -0.2807  -0.2597
 -0.2328  -0.2291  -0.2149  -0.2073  -0.1865  -0.1195

          Ground-State Mulliken Net Atomic Charges

     Atom                 Charge (a.u.)
  ----------------------------------------
      1 C                     0.029069
      2 C                    -0.419083
      3 C                    -0.426207
      4 C                    -0.212199
      5 C                     0.649744
      6 C                     0.103077
      7 C                    -0.803945
      8 C                    -0.034281
      9 C                     1.437698
     10 C                    -1.098639
     11 O                    -0.766324
     12 O                    -0.671926
     13 N                    -0.472646
     14 S                    -0.645474
     15 H                     0.162371
     16 H                     0.176457
     17 H                     0.181096
     18 H                     0.150617
     19 H                     0.288797
     20 H                     0.259460
     21 H                     0.112338
  ----------------------------------------
  Sum of atomic charges =    -2.000000

                    Cartesian Multipole Moments
 -----------------------------------------------------------------
    Charge (ESU x 10^10)
                -9.6064
    Dipole Moment (Debye)
         X       1.6134      Y      -0.8569      Z      -1.0704
       Tot       2.1173
    Quadrupole Moments (Debye-Ang)
        XX    -114.0795     XY      14.7165     YY    -153.4081
        XZ       3.1268     YZ       3.1642     ZZ    -101.0413

 Total job time:  42.03s(wall), 302.09s(cpu)
        *  Thank you very much for using Q-Chem.  Have a nice day.  *
