 Gaussian 16, Revision A.03,
 Gaussian 16:  ES64L-G16RevA.03 25-Dec-2016

 ----------------------------------------------------------------
 #P UB3LYP/6-311++G(d,p) SCRF=(PCM,Solvent=n,n-DiMethylFormamide)
 ----------------------------------------------------------------

 ------------------
 Radical PCM in DMF
 ------------------
 Symbolic Z-matrix:
 Charge = -1 Multiplicity = 2

                         Standard orientation:
 ---------------------------------------------------------------------
 Center     Atomic      Atomic             Coordinates (Angstroms)
 Number     Number       Type             X           Y           Z
 ---------------------------------------------------------------------
      1         17           0       -3.416184   -0.234427   -0.000044
      2          6           0       -1.651938   -0.336068    0.000025
      3          6           0       -1.054542   -1.559963    0.000018
      4          6           0        0.383273   -1.725090    0.000063
      5          8           0        0.923253   -2.854632   -0.000023
      6          6           0        1.139143   -0.474396    0.000026
      7          6           0        0.523347    0.753719    0.000033
      8         17           0        1.452913    2.240546   -0.000031
      9          6           0       -0.931580    0.928612    0.000086
     10          8           0       -1.484437    2.044766    0.000033
     11         17           0        2.885910   -0.628008   -0.000018
     12          1           0       -1.641602   -2.469860   -0.000024
 ---------------------------------------------------------------------

 SCF Done:  E(UB3LYP) =  -1760.59402528     A.U. after   23 cycles

 The electronic state is 2-A.
 Alpha  occ. eigenvalues -- -101.56069-101.56032-101.55668 -19.09986 -19.09737
 Alpha  occ. eigenvalues --  -10.25421 -10.24899 -10.24618 -10.24389 -10.23993
 Alpha  occ. eigenvalues --  -10.18652  -9.47517  -9.47478  -9.47109  -7.23976
 Alpha  occ. eigenvalues --   -7.23932  -7.23552  -7.23036  -7.23001  -7.22937
 Alpha  occ. eigenvalues --   -7.22900  -7.22624  -7.22554  -1.03188  -1.02467
 Alpha  occ. eigenvalues --   -0.90437  -0.87862  -0.85444  -0.80850  -0.73113
 Alpha  occ. eigenvalues --   -0.69835  -0.60756  -0.58667  -0.52093  -0.48943
 Alpha  occ. eigenvalues --   -0.46344  -0.44917  -0.44321  -0.43058  -0.41489
 Alpha  occ. eigenvalues --   -0.40527  -0.40162  -0.37835  -0.34951  -0.34003
 Alpha  occ. eigenvalues --   -0.33421  -0.32075  -0.31118  -0.28840  -0.26920
 Alpha  occ. eigenvalues --   -0.26265  -0.25563  -0.18180
 Alpha virt. eigenvalues --   -0.03116  -0.01886   0.00634   0.00979   0.01022
 Alpha virt. eigenvalues --    0.02596   0.02995   0.03848   0.04999   0.05412
 Alpha virt. eigenvalues --    0.05722   0.07174   0.07759   0.07888   0.08620

  Beta  occ. eigenvalues -- -101.56065-101.56026-101.55666 -19.09301 -19.09033
  Beta  occ. eigenvalues --  -10.25290 -10.24789 -10.24510 -10.24250 -10.23879
  Beta  occ. eigenvalues --  -10.18541  -9.47513  -9.47473  -9.47107  -7.23979
  Beta  occ. eigenvalues --   -7.23936  -7.23557  -7.23015  -7.22975  -7.22935
  Beta  occ. eigenvalues --   -7.22898  -7.22608  -7.22553  -1.02033  -1.01257
  Beta  occ. eigenvalues --   -0.90131  -0.87683  -0.85319  -0.80488  -0.72850
  Beta  occ. eigenvalues --   -0.68850  -0.60343  -0.58246  -0.51869  -0.48573
  Beta  occ. eigenvalues --   -0.46065  -0.44240  -0.43423  -0.42378  -0.41007
  Beta  occ. eigenvalues --   -0.39979  -0.38327  -0.37078  -0.33834  -0.33354
  Beta  occ. eigenvalues --   -0.33147  -0.32039  -0.31076  -0.26310  -0.26273
  Beta  occ. eigenvalues --   -0.25616  -0.24888
  Beta virt. eigenvalues --   -0.11076  -0.01762  -0.01597   0.00675   0.01063
  Beta virt. eigenvalues --    0.02638   0.03036   0.03509   0.03943   0.05111
  Beta virt. eigenvalues --    0.05452   0.05790   0.07254   0.07825   0.07997

 Mulliken charges and spin densities:
               1          2
     1  Cl   0.209716   0.004050
     2  C    1.221170   0.093501
     3  C   -0.503473   0.082111
     4  C   -1.140945   0.104711
     5  O   -0.413327   0.250671
     6  C    0.435969   0.082947
     7  C    0.621675   0.059418
     8  Cl   0.304875   0.004361
     9  C   -1.897983   0.068498
    10  O   -0.352552   0.248970
    11  Cl   0.306210   0.008076
    12  H    0.208666  -0.007314
 Sum of Mulliken charges =  -1.00000   1.00000

 Dipole moment (field-independent basis, Debye):
    X=              0.3722    Y=              0.2995    Z=              0.0001  Tot=              0.4777
 Quadrupole moment (field-independent basis, Debye-Ang):
   XX=           -104.0343   YY=           -116.0905   ZZ=            -85.5093
   XY=             14.3061   XZ=              0.0001   YZ=             -0.0003

 Normal termination of Gaussian 16 at Sun Jan 21 07:12:46 2024.
