 Q-Chem 5.4, Q-Chem, Inc., Pleasanton, CA (2021)
 Q-Chem 5.4.0 for Intel X86 EM64T Linux

User input:
--------------------------------------------------------------
$molecule
-2 1
C                 -3.4874090000      0.1755940000      0.3745650000
O                 -2.6831290000      0.6385170000     -0.6989950000
C                 -1.3379860000      0.2874330000     -0.5851130000
C                 -0.3802750000      1.3079950000     -0.5223250000
Cl                -0.9552760000      3.0084140000     -0.5128490000
C                  1.0362420000      1.1183150000     -0.4858290000
O                  1.9179520000      2.0610070000     -0.4590090000
C                  1.3828240000     -0.2779320000     -0.4686680000
C                  0.4241960000     -1.2987050000     -0.5108010000
Cl                 0.9975140000     -2.9994630000     -0.4822080000
C                 -0.9900730000     -1.1085590000     -0.5975040000
O                 -1.8698210000     -2.0508350000     -0.6676500000
O                  2.7330870000     -0.6278600000     -0.4680870000
C                  3.4372450000     -0.1862240000      0.6820490000
H                 -3.2028770000      0.6723020000      1.3167920000
H                 -4.5223120000      0.4479330000      0.1314810000
H                 -3.3932330000     -0.9105460000      0.4738660000
H                  3.3329070000      0.8978020000      0.7936650000
H                  3.0702280000     -0.7012860000      1.5851060000
H                  4.4901960000     -0.4539020000      0.5274210000
$end
$rem
MAX_SCF_CYCLES=200
BASIS  =  6-311++G(d,p)
GUI  =  2
JOB_TYPE  =  SP
METHOD  =  B3LYP
SOLVENT_METHOD = PCM
$end
$pcm
theory = CPCM
$end
$solvent
dielectric 37.219
opticaldielectric 1.43
$end

--------------------------------------------------------------

             Standard Nuclear Orientation (Angstroms)
    I     Atom           X                Y                Z
 ----------------------------------------------------------------
    1      C      -3.4874090000     0.1755940000     0.3745650000
    2      O      -2.6831290000     0.6385170000    -0.6989950000
    3      C      -1.3379860000     0.2874330000    -0.5851130000
    4      C      -0.3802750000     1.3079950000    -0.5223250000
    5      Cl     -0.9552760000     3.0084140000    -0.5128490000
    6      C       1.0362420000     1.1183150000    -0.4858290000
    7      O       1.9179520000     2.0610070000    -0.4590090000
    8      C       1.3828240000    -0.2779320000    -0.4686680000
    9      C       0.4241960000    -1.2987050000    -0.5108010000
   10      Cl      0.9975140000    -2.9994630000    -0.4822080000
   11      C      -0.9900730000    -1.1085590000    -0.5975040000
   12      O      -1.8698210000    -2.0508350000    -0.6676500000
   13      O       2.7330870000    -0.6278600000    -0.4680870000
   14      C       3.4372450000    -0.1862240000     0.6820490000
   15      H      -3.2028770000     0.6723020000     1.3167920000
   16      H      -4.5223120000     0.4479330000     0.1314810000
   17      H      -3.3932330000    -0.9105460000     0.4738660000
   18      H       3.3329070000     0.8978020000     0.7936650000
   19      H       3.0702280000    -0.7012860000     1.5851060000
   20      H       4.4901960000    -0.4539020000     0.5274210000
 ----------------------------------------------------------------

    9   -1530.1975169407      3.15e-06  Convergence criterion met
 Total energy in the final basis set =    -1530.1975169407

                    Orbital Energies (a.u.)
 --------------------------------------------------------------

 Alpha MOs
 -- Occupied --
********-101.5315 -19.1231 -19.1231 -19.0299 -19.0299 -10.1960 -10.1960
-10.1932 -10.1931 -10.1929 -10.1929 -10.1925 -10.1925  -9.4458  -9.4458
 -7.2098  -7.2098  -7.2012  -7.2012  -7.2005  -7.2005  -1.0361  -1.0347
 -0.9462  -0.9445  -0.8441  -0.8341  -0.7758  -0.7167  -0.6791  -0.6627
 -0.6338  -0.5589  -0.5502  -0.4962  -0.4818  -0.4713  -0.4463  -0.4399
 -0.4309  -0.4127  -0.4049  -0.3968  -0.3789  -0.3759  -0.3535  -0.3504
 -0.3361  -0.3354  -0.3135  -0.3105  -0.2971  -0.2960  -0.2747  -0.2641
 -0.2340  -0.2124  -0.2114  -0.2018  -0.1340

          Ground-State Mulliken Net Atomic Charges

     Atom                 Charge (a.u.)
  ----------------------------------------
      1 C                    -0.293626
      2 O                    -0.198736
      3 C                    -1.823658
      4 C                     1.973400
      5 Cl                    0.155484
      6 C                    -0.588023
      7 O                    -0.673165
      8 C                    -1.827564
      9 C                     1.974598
     10 Cl                    0.155723
     11 C                    -0.590509
     12 O                    -0.672791
     13 O                    -0.198345
     14 C                    -0.294187
     15 H                     0.122786
     16 H                     0.152117
     17 H                     0.175866
     18 H                     0.175567
     19 H                     0.122993
     20 H                     0.152072
  ----------------------------------------
  Sum of atomic charges =    -2.000000

                    Cartesian Multipole Moments
 -----------------------------------------------------------------
    Charge (ESU x 10^10)
                -9.6064
    Dipole Moment (Debye)
         X      -0.3515      Y      -0.0755      Z       8.0525
       Tot       8.0606
    Quadrupole Moments (Debye-Ang)
        XX    -131.0017     XY     -16.5602     YY    -154.8921
        XZ      -1.2411     YZ      -1.2000     ZZ    -107.0848

 Total job time:  24.89s(wall), 185.99s(cpu)
        *  Thank you very much for using Q-Chem.  Have a nice day.  *
