 Q-Chem 5.4, Q-Chem, Inc., Pleasanton, CA (2021)
 Q-Chem 5.4.0 for Intel X86 EM64T Linux

User input:
--------------------------------------------------------------
$molecule
0 1
C                  0.2648120000      1.4370410000     -0.8552090000
C                 -1.0133780000      0.6595150000     -0.8552600000
C                 -0.9691690000     -0.6901470000     -0.8552820000
C                  0.3435880000     -1.4028390000     -0.8552560000
C                  1.6217780000     -0.6253130000     -0.8551900000
C                  1.5775700000      0.7243490000     -0.8551640000
O                  0.2452630000      2.6601170000     -0.8551610000
O                  0.3631370000     -2.6259150000     -0.8552550000
C                  2.7887440000      1.6115740000     -0.8550980000
C                  2.8971190000     -1.4272510000     -0.8551550000
C                 -2.2887190000      1.4614520000     -0.8552840000
C                 -2.1803430000     -1.5773730000     -0.8553340000
H                  3.7144140000      1.0392270000     -0.8550060000
H                  2.7793770000      2.2700090000      0.0180530000
H                  2.7795180000      2.2699460000     -1.7283000000
H                  2.6693430000     -2.4915690000     -0.8551840000
H                  3.5045500000     -1.2034240000      0.0264330000
H                  3.5046190000     -1.2033900000     -1.7366880000
H                 -2.0609430000      2.5257710000     -0.8552520000
H                 -2.8962140000      1.2375890000      0.0262510000
H                 -2.8961550000      1.2376290000     -1.7368700000
H                 -3.1060140000     -1.0050250000     -0.8553200000
H                 -2.1710560000     -2.2358160000      0.0178120000
H                 -2.1710380000     -2.2357370000     -1.7285410000
$end
$rem
MAX_SCF_CYCLES=200
BASIS  =  6-311++G(d,p)
GUI  =  2
JOB_TYPE  =  SP
METHOD  =  B3LYP
SOLVENT_METHOD = PCM
$end
$pcm
theory = CPCM
$end
$solvent
dielectric 37.219
opticaldielectric 1.43
$end

--------------------------------------------------------------

             Standard Nuclear Orientation (Angstroms)
    I     Atom           X                Y                Z
 ----------------------------------------------------------------
    1      C       0.2648120000     1.4370410000    -0.8552090000
    2      C      -1.0133780000     0.6595150000    -0.8552600000
    3      C      -0.9691690000    -0.6901470000    -0.8552820000
    4      C       0.3435880000    -1.4028390000    -0.8552560000
    5      C       1.6217780000    -0.6253130000    -0.8551900000
    6      C       1.5775700000     0.7243490000    -0.8551640000
    7      O       0.2452630000     2.6601170000    -0.8551610000
    8      O       0.3631370000    -2.6259150000    -0.8552550000
    9      C       2.7887440000     1.6115740000    -0.8550980000
   10      C       2.8971190000    -1.4272510000    -0.8551550000
   11      C      -2.2887190000     1.4614520000    -0.8552840000
   12      C      -2.1803430000    -1.5773730000    -0.8553340000
   13      H       3.7144140000     1.0392270000    -0.8550060000
   14      H       2.7793770000     2.2700090000     0.0180530000
   15      H       2.7795180000     2.2699460000    -1.7283000000
   16      H       2.6693430000    -2.4915690000    -0.8551840000
   17      H       3.5045500000    -1.2034240000     0.0264330000
   18      H       3.5046190000    -1.2033900000    -1.7366880000
   19      H      -2.0609430000     2.5257710000    -0.8552520000
   20      H      -2.8962140000     1.2375890000     0.0262510000
   21      H      -2.8961550000     1.2376290000    -1.7368700000
   22      H      -3.1060140000    -1.0050250000    -0.8553200000
   23      H      -2.1710560000    -2.2358160000     0.0178120000
   24      H      -2.1710380000    -2.2357370000    -1.7285410000
 ----------------------------------------------------------------

    8    -538.8919156904      3.62e-06  Convergence criterion met
 Total energy in the final basis set =     -538.8919156904

                    Orbital Energies (a.u.)
 --------------------------------------------------------------

 Alpha MOs
 -- Occupied --
-19.1336 -19.1335 -10.2771 -10.2771 -10.2065 -10.2065 -10.2057 -10.2057
-10.1695 -10.1695 -10.1677 -10.1677  -1.0667  -1.0648  -0.8630  -0.8248
 -0.7470  -0.7433  -0.7165  -0.6620  -0.6524  -0.5754  -0.5730  -0.5386
 -0.4820  -0.4655  -0.4646  -0.4389  -0.4325  -0.4289  -0.4170  -0.4149
 -0.4093  -0.4081  -0.3956  -0.3917  -0.3900  -0.3865  -0.3786  -0.3615
 -0.2897  -0.2886  -0.2692  -0.2626

          Ground-State Mulliken Net Atomic Charges

     Atom                 Charge (a.u.)
  ----------------------------------------
      1 C                    -1.058217
      2 C                     0.426775
      3 C                     0.828952
      4 C                    -1.058187
      5 C                     0.426855
      6 C                     0.828907
      7 O                    -0.284351
      8 O                    -0.284349
      9 C                    -0.487761
     10 C                    -0.558730
     11 C                    -0.558715
     12 C                    -0.487794
     13 H                     0.184218
     14 H                     0.188202
     15 H                     0.188212
     16 H                     0.197761
     17 H                     0.187454
     18 H                     0.187459
     19 H                     0.197762
     20 H                     0.187455
     21 H                     0.187458
     22 H                     0.184222
     23 H                     0.188204
     24 H                     0.188208
  ----------------------------------------
  Sum of atomic charges =     0.000000

                    Cartesian Multipole Moments
 -----------------------------------------------------------------
    Charge (ESU x 10^10)
                 0.0000
    Dipole Moment (Debye)
         X       0.0000      Y       0.0000      Z      -0.0001
       Tot       0.0001
    Quadrupole Moments (Debye-Ang)
        XX     -57.7014     XY       1.1724     YY     -91.9284
        XZ       0.0004     YZ      -0.0004     ZZ     -70.7586

 Total job time:  25.53s(wall), 158.12s(cpu)
        *  Thank you very much for using Q-Chem.  Have a nice day.  *
