 Q-Chem 5.4, Q-Chem, Inc., Pleasanton, CA (2021)
 Q-Chem 5.4.0 for Intel X86 EM64T Linux

User input:
--------------------------------------------------------------
$molecule
-2 1
C                 -0.3084750000      1.2131460000     -0.2768050000
C                 -1.3436280000      0.3181550000     -0.7311700000
C                 -1.2730880000     -1.0622790000     -0.6359620000
C                 -0.1572450000     -1.7871050000     -0.0708800000
C                  0.8716960000     -0.9288900000      0.3821830000
C                  0.8164790000      0.5023280000      0.2919830000
O                 -0.3996630000      2.4914710000     -0.3773100000
O                 -0.1348300000     -3.0874570000     -0.0022160000
C                  1.9188790000      1.2406530000      0.7853670000
N                  2.8525830000      1.8049760000      1.2062490000
H                 -2.2220940000      0.7916280000     -1.1717280000
H                 -2.1024050000     -1.6696370000     -1.0048640000
H                  1.7549120000     -1.3863200000      0.8241930000
$end
$rem
MAX_SCF_CYCLES=200
BASIS  =  6-311++G(d,p)
GUI  =  2
JOB_TYPE  =  SP
METHOD  =  B3LYP
SOLVENT_METHOD = COSMO
$end
$solvent
dielectric 37.219
opticaldielectric 1.43
$end

--------------------------------------------------------------

             Standard Nuclear Orientation (Angstroms)
    I     Atom           X                Y                Z
 ----------------------------------------------------------------
    1      C       0.7291886486    -1.1171399337     0.0000014546
    2      C      -0.5991754347    -1.6778957084    -0.0000081815
    3      C      -1.7606161308    -0.9224527969    -0.0000118149
    4      C      -1.7962094881     0.5227216253    -0.0000002815
    5      C      -0.5030898287     1.0957488463    -0.0000132578
    6      C       0.7106083672     0.3299116523     0.0000310248
    7      O       1.7909525668    -1.8418389705    -0.0000050309
    8      O      -2.9137104672     1.1915445187    -0.0000072649
    9      C       1.9386815775     1.0339525046     0.0001057843
   10      N       2.9258777490     1.6607291389    -0.0000826196
   11      H      -0.6555449699    -2.7672960121    -0.0000011285
   12      H      -2.7295870835    -1.4262726110    -0.0000213170
   13      H      -0.4302752528     2.1817431272     0.0000707812
 ----------------------------------------------------------------

   11    -473.8398871240      6.54e-06  Convergence criterion met
 Total energy in the final basis set =     -473.8398871240
    6    -474.1366094515      5.59e-06  Convergence criterion met
 Total energy in the final basis set =     -474.1366094515

                    Orbital Energies (a.u.)
 --------------------------------------------------------------

 Alpha MOs
 -- Occupied --
-19.0416 -19.0291 -14.2934 -10.2011 -10.2005 -10.1850 -10.1656 -10.1461
-10.1421 -10.1410  -0.9582  -0.9388  -0.8928  -0.7997  -0.7327  -0.6720
 -0.6062  -0.5590  -0.4777  -0.4494  -0.4408  -0.3985  -0.3856  -0.3780
 -0.3677  -0.3528  -0.3425  -0.3385  -0.3278  -0.3185  -0.2435  -0.2314
 -0.2195  -0.2109  -0.1412

          Ground-State Mulliken Net Atomic Charges

     Atom                 Charge (a.u.)
  ----------------------------------------
      1 C                    -0.961058
      2 C                     0.057065
      3 C                    -0.034473
      4 C                    -0.302323
      5 C                    -0.445790
      6 C                     1.992891
      7 O                    -0.707159
      8 O                    -0.782906
      9 C                    -0.895776
     10 N                    -0.438622
     11 H                     0.176989
     12 H                     0.175373
     13 H                     0.165789
  ----------------------------------------
  Sum of atomic charges =    -2.000000

                    Cartesian Multipole Moments
 -----------------------------------------------------------------
    Charge (ESU x 10^10)
                -9.6064
    Dipole Moment (Debye)
         X      -1.1039      Y      -2.0055      Z      -0.0001
       Tot       2.2893
    Quadrupole Moments (Debye-Ang)
        XX    -131.3675     XY      15.0996     YY     -87.4748
        XZ       0.0027     YZ      -0.0012     ZZ     -64.9983

 Total job time:  13.65s(wall), 95.77s(cpu)
        *  Thank you very much for using Q-Chem.  Have a nice day.  *
