 Q-Chem 5.4, Q-Chem, Inc., Pleasanton, CA (2021)
 Q-Chem 5.4.0 for Intel X86 EM64T Linux

User input:
--------------------------------------------------------------
$molecule
-2 1
C                  1.5166810000      0.9902200000     -3.0847590000
C                  0.2384000000      1.5525320000     -3.4357000000
C                 -0.9467230000      1.0095310000     -3.0017080000
C                 -1.0499390000     -0.1730940000     -2.1763180000
C                  0.1930740000     -0.7870960000     -1.8513170000
O                  2.6066790000      1.5826390000     -3.4002380000
O                 -2.2151290000     -0.6168710000     -1.8108570000
H                  0.2565860000      2.4591800000     -4.0393730000
C                  1.4548680000     -0.2445370000     -2.3060600000
C                  2.7151690000     -0.8605360000     -1.9697320000
C                  3.9460010000     -0.6218510000     -2.8439650000
C                  5.0951240000      0.0285270000     -2.3455760000
C                  4.0216580000     -1.2660210000     -4.0817280000
C                  6.2656520000      0.0190190000     -3.1024470000
C                  6.3345430000     -0.6298640000     -4.3405150000
C                  5.2002350000     -1.2726430000     -4.8296120000
O                  2.9277940000     -1.6671300000     -1.0340450000
C                  5.0175610000      0.7903670000     -1.0476630000
H                  3.1305910000     -1.7543430000     -4.4634900000
H                  7.1435010000      0.5405160000     -2.7231230000
H                  7.2613120000     -0.6258180000     -4.9097310000
H                  5.2281520000     -1.7757270000     -5.7932760000
C                  0.1056190000     -2.0845570000     -1.0822650000
H                 -1.8942770000      1.4750060000     -3.2768030000
H                  0.3828020000     -1.9694950000     -0.0247240000
H                  0.7793640000     -2.8503620000     -1.4810960000
H                 -0.9327820000     -2.4259850000     -1.1264400000
H                  4.2743520000      1.5882240000     -1.1520410000
H                  5.9852980000      1.2351560000     -0.7896190000
H                  4.6919610000      0.1399140000     -0.2314890000
$end
$rem
MAX_SCF_CYCLES=200
BASIS  =  6-311++G(d,p)
GUI  =  2
JOB_TYPE  =  SP
METHOD  =  B3LYP
SOLVENT_METHOD = PCM
$end
$pcm
theory = CPCM
$end
$solvent
dielectric 37.219
opticaldielectric 1.43
$end

--------------------------------------------------------------

             Standard Nuclear Orientation (Angstroms)
    I     Atom           X                Y                Z
 ----------------------------------------------------------------
    1      C       1.5166810000     0.9902200000    -3.0847590000
    2      C       0.2384000000     1.5525320000    -3.4357000000
    3      C      -0.9467230000     1.0095310000    -3.0017080000
    4      C      -1.0499390000    -0.1730940000    -2.1763180000
    5      C       0.1930740000    -0.7870960000    -1.8513170000
    6      O       2.6066790000     1.5826390000    -3.4002380000
    7      O      -2.2151290000    -0.6168710000    -1.8108570000
    8      H       0.2565860000     2.4591800000    -4.0393730000
    9      C       1.4548680000    -0.2445370000    -2.3060600000
   10      C       2.7151690000    -0.8605360000    -1.9697320000
   11      C       3.9460010000    -0.6218510000    -2.8439650000
   12      C       5.0951240000     0.0285270000    -2.3455760000
   13      C       4.0216580000    -1.2660210000    -4.0817280000
   14      C       6.2656520000     0.0190190000    -3.1024470000
   15      C       6.3345430000    -0.6298640000    -4.3405150000
   16      C       5.2002350000    -1.2726430000    -4.8296120000
   17      O       2.9277940000    -1.6671300000    -1.0340450000
   18      C       5.0175610000     0.7903670000    -1.0476630000
   19      H       3.1305910000    -1.7543430000    -4.4634900000
   20      H       7.1435010000     0.5405160000    -2.7231230000
   21      H       7.2613120000    -0.6258180000    -4.9097310000
   22      H       5.2281520000    -1.7757270000    -5.7932760000
   23      C       0.1056190000    -2.0845570000    -1.0822650000
   24      H      -1.8942770000     1.4750060000    -3.2768030000
   25      H       0.3828020000    -1.9694950000    -0.0247240000
   26      H       0.7793640000    -2.8503620000    -1.4810960000
   27      H      -0.9327820000    -2.4259850000    -1.1264400000
   28      H       4.2743520000     1.5882240000    -1.1520410000
   29      H       5.9852980000     1.2351560000    -0.7896190000
   30      H       4.6919610000     0.1399140000    -0.2314890000
 ----------------------------------------------------------------

    9    -804.9623609242      6.23e-06  Convergence criterion met
 Total energy in the final basis set =     -804.9623609242

                    Orbital Energies (a.u.)
 --------------------------------------------------------------

 Alpha MOs
 -- Occupied --
-19.0761 -19.0330 -19.0174 -10.2271 -10.1916 -10.1714 -10.1696 -10.1674
-10.1627 -10.1621 -10.1607 -10.1598 -10.1498 -10.1402 -10.1359 -10.1350
-10.1319 -10.1310  -0.9999  -0.9531  -0.9307  -0.8478  -0.7889  -0.7617
 -0.7456  -0.7317  -0.6908  -0.6719  -0.6335  -0.6131  -0.5865  -0.5703
 -0.5266  -0.5190  -0.4785  -0.4587  -0.4505  -0.4412  -0.4290  -0.4221
 -0.4085  -0.4050  -0.3964  -0.3921  -0.3787  -0.3747  -0.3660  -0.3625
 -0.3568  -0.3544  -0.3432  -0.3386  -0.3258  -0.3244  -0.3189  -0.3152
 -0.2517  -0.2402  -0.2339  -0.2221  -0.2187  -0.2009  -0.1957  -0.1284

          Ground-State Mulliken Net Atomic Charges

     Atom                 Charge (a.u.)
  ----------------------------------------
      1 C                    -0.828350
      2 C                    -0.519761
      3 C                    -0.021944
      4 C                    -0.542919
      5 C                     0.501699
      6 O                    -0.517473
      7 O                    -0.746164
      8 H                     0.160380
      9 C                     1.073263
     10 C                    -1.258955
     11 C                     0.767066
     12 C                     0.761510
     13 C                    -0.580971
     14 C                     0.038082
     15 C                    -0.328404
     16 C                    -0.455565
     17 O                    -0.410115
     18 C                    -0.418670
     19 H                     0.185192
     20 H                     0.173325
     21 H                     0.187113
     22 H                     0.196786
     23 C                    -0.550006
     24 H                     0.162261
     25 H                     0.154007
     26 H                     0.154857
     27 H                     0.140387
     28 H                     0.192250
     29 H                     0.165802
     30 H                     0.165320
  ----------------------------------------
  Sum of atomic charges =    -2.000000

                    Cartesian Multipole Moments
 -----------------------------------------------------------------
    Charge (ESU x 10^10)
                -9.6064
    Dipole Moment (Debye)
         X      -6.7369      Y       1.6560      Z      21.3824
       Tot      22.4797
    Quadrupole Moments (Debye-Ang)
        XX    -178.4855     XY      -3.4777     YY    -132.6607
        XZ      23.7227     YZ      11.4721     ZZ    -170.0508

 Total job time:  60.13s(wall), 406.98s(cpu)
        *  Thank you very much for using Q-Chem.  Have a nice day.  *
