 Q-Chem 5.4, Q-Chem, Inc., Pleasanton, CA (2021)
 Q-Chem 5.4.0 for Intel X86 EM64T Linux

User input:
--------------------------------------------------------------
$molecule
0 1
C                  3.9463310000      0.6252640000     -0.1079360000
O                  2.6685820000      1.2622590000     -0.1571790000
C                  1.5738630000      0.5016200000     -0.0961210000
C                  1.5380340000     -0.8475450000      0.0110160000
C                  0.2806700000     -1.5977610000      0.0714150000
O                  0.2811730000     -2.8174570000      0.1681890000
C                 -0.9980290000     -0.8229270000      0.0106600000
C                 -2.2185840000     -1.4968380000      0.0648060000
C                 -3.4117810000     -0.7825780000      0.0087030000
C                 -3.3927580000      0.6097860000     -0.1018650000
C                 -2.1802180000      1.2886340000     -0.1563810000
C                 -0.9783780000      0.5770140000     -0.1005070000
C                  0.3086530000      1.3236920000     -0.1604810000
O                  0.3612880000      2.5323740000     -0.2558100000
H                  4.0732810000      0.0817580000      0.8328930000
H                  4.6762160000      1.4288340000     -0.1726940000
H                  4.0712620000     -0.0602050000     -0.9512540000
H                  2.4349920000     -1.4510230000      0.0583710000
H                 -2.2097100000     -2.5764880000      0.1504900000
H                 -4.3584560000     -1.3092050000      0.0510030000
H                 -4.3238550000      1.1631390000     -0.1453500000
H                 -2.1425700000      2.3676520000     -0.2420640000
$end
$rem
MAX_SCF_CYCLES=200
BASIS  =  6-311++G(d,p)
GUI  =  2
JOB_TYPE  =  SP
METHOD  =  B3LYP
SOLVENT_METHOD = PCM
$end
$pcm
theory = CPCM
$end
$solvent
dielectric 37.219
opticaldielectric 1.43
$end

--------------------------------------------------------------

             Standard Nuclear Orientation (Angstroms)
    I     Atom           X                Y                Z
 ----------------------------------------------------------------
    1      C       3.9463310000     0.6252640000    -0.1079360000
    2      O       2.6685820000     1.2622590000    -0.1571790000
    3      C       1.5738630000     0.5016200000    -0.0961210000
    4      C       1.5380340000    -0.8475450000     0.0110160000
    5      C       0.2806700000    -1.5977610000     0.0714150000
    6      O       0.2811730000    -2.8174570000     0.1681890000
    7      C      -0.9980290000    -0.8229270000     0.0106600000
    8      C      -2.2185840000    -1.4968380000     0.0648060000
    9      C      -3.4117810000    -0.7825780000     0.0087030000
   10      C      -3.3927580000     0.6097860000    -0.1018650000
   11      C      -2.1802180000     1.2886340000    -0.1563810000
   12      C      -0.9783780000     0.5770140000    -0.1005070000
   13      C       0.3086530000     1.3236920000    -0.1604810000
   14      O       0.3612880000     2.5323740000    -0.2558100000
   15      H       4.0732810000     0.0817580000     0.8328930000
   16      H       4.6762160000     1.4288340000    -0.1726940000
   17      H       4.0712620000    -0.0602050000    -0.9512540000
   18      H       2.4349920000    -1.4510230000     0.0583710000
   19      H      -2.2097100000    -2.5764880000     0.1504900000
   20      H      -4.3584560000    -1.3092050000     0.0510030000
   21      H      -4.3238550000     1.1631390000    -0.1453500000
   22      H      -2.1425700000     2.3676520000    -0.2420640000
 ----------------------------------------------------------------

    9    -649.8366182176      4.35e-06  Convergence criterion met
 Total energy in the final basis set =     -649.8366182176

                    Orbital Energies (a.u.)
 --------------------------------------------------------------

 Alpha MOs
 -- Occupied --
-19.1886 -19.1435 -19.1288 -10.2929 -10.2814 -10.2751 -10.2291 -10.2094
-10.2078 -10.1985 -10.1974 -10.1963 -10.1961 -10.1957  -1.1109  -1.0736
 -1.0622  -0.8907  -0.8355  -0.7788  -0.7769  -0.7435  -0.6858  -0.6513
 -0.6268  -0.5937  -0.5569  -0.5480  -0.5250  -0.4973  -0.4939  -0.4741
 -0.4681  -0.4527  -0.4507  -0.4492  -0.4355  -0.4323  -0.4218  -0.3849
 -0.3843  -0.3717  -0.3628  -0.3627  -0.2934  -0.2890  -0.2800  -0.2790
 -0.2661

          Ground-State Mulliken Net Atomic Charges

     Atom                 Charge (a.u.)
  ----------------------------------------
      1 C                    -0.341835
      2 O                    -0.166200
      3 C                    -0.203218
      4 C                     0.745716
      5 C                    -0.569302
      6 O                    -0.331671
      7 C                     0.584855
      8 C                     0.143591
      9 C                    -0.403535
     10 C                    -0.489367
     11 C                     0.145784
     12 C                     0.454924
     13 C                    -0.979319
     14 O                    -0.289737
     15 H                     0.195312
     16 H                     0.214719
     17 H                     0.195266
     18 H                     0.252571
     19 H                     0.191859
     20 H                     0.227529
     21 H                     0.227495
     22 H                     0.194561
  ----------------------------------------
  Sum of atomic charges =     0.000000

                    Cartesian Multipole Moments
 -----------------------------------------------------------------
    Charge (ESU x 10^10)
                 0.0000
    Dipole Moment (Debye)
         X       0.0566      Y      -0.0717      Z       0.0041
       Tot       0.0915
    Quadrupole Moments (Debye-Ang)
        XX     -47.6708     XY      -1.7363     YY    -101.8645
        XZ       0.1130     YZ       1.6018     ZZ     -81.7640

 Total job time:  46.31s(wall), 227.97s(cpu)
        *  Thank you very much for using Q-Chem.  Have a nice day.  *
