 Gaussian 16, Revision A.03,
 Gaussian 16:  ES64L-G16RevA.03 25-Dec-2016

 ----------------------------------------------
 #P UB3LYP/6-311++G(d,p) nosym opt freq SCF=YQC
 ----------------------------------------------

 -------
 Reduced
 -------
 Symbolic Z-matrix:
 Charge = -2 Multiplicity = 1

 SCF Done:  E(UB3LYP) =  -764.132181513     a.u. after   10 cycles
 SCF Done:  E(UB3LYP) =  -764.142899524     A.U. after   33 cycles
 SCF Done:  E(UB3LYP) =  -764.142930732     a.u. after    3 cycles
 SCF Done:  E(UB3LYP) =  -764.173765013     a.u. after   19 cycles
 SCF Done:  E(UB3LYP) =  -764.174118089     A.U. after   25 cycles
 SCF Done:  E(UB3LYP) =  -764.184957268     a.u. after   26 cycles
 SCF Done:  E(UB3LYP) =  -764.185406195     A.U. after   25 cycles
 SCF Done:  E(UB3LYP) =  -764.186462860     a.u. after    9 cycles
 SCF Done:  E(UB3LYP) =  -764.186556898     A.U. after   24 cycles
 SCF Done:  E(UB3LYP) =  -764.186676165     a.u. after    7 cycles
 SCF Done:  E(UB3LYP) =  -764.186731266     a.u. after   10 cycles
 SCF Done:  E(UB3LYP) =  -764.186820861     A.U. after   24 cycles
 SCF Done:  E(UB3LYP) =  -764.186787504     a.u. after    3 cycles
 SCF Done:  E(UB3LYP) =  -764.186830296     A.U. after   24 cycles
 SCF Done:  E(UB3LYP) =  -764.186773734     a.u. after    1 cycles
 SCF Done:  E(UB3LYP) =  -764.186836749     A.U. after   23 cycles
 SCF Done:  E(UB3LYP) =  -764.186834027     a.u. after    1 cycles
 SCF Done:  E(UB3LYP) =  -764.186838144     A.U. after   25 cycles
 Optimization completed.
    -- Stationary point found.
 Normal termination of Gaussian 16 at Sat Jan  6 04:08:29 2024.

 ----------------------------------------------------------------------
 #P Geom=AllCheck Guess=TCheck SCRF=Check GenChk UB3LYP/6-311++G(d,p) F
 req
 ----------------------------------------------------------------------

 Structure from the checkpoint file:  "329-an.chk"
 -------
 Reduced
 -------
 Charge = -2 Multiplicity = 1

                          Input orientation:
 ---------------------------------------------------------------------
 Center     Atomic      Atomic             Coordinates (Angstroms)
 Number     Number       Type             X           Y           Z
 ---------------------------------------------------------------------
      1          6           0       -0.642126    2.687386   -0.953000
      2          6           0       -1.715613    2.066492   -0.364831
      3          6           0       -1.595311    0.742916    0.154425
      4          6           0        0.634256    2.039271   -1.078259
      5          6           0        0.756720    0.697968   -0.529253
      6          6           0       -0.377025    0.094332    0.067142
      7          6           0        1.745115    2.632192   -1.675521
      8          6           0        2.999979    1.985804   -1.768308
      9          6           0        3.117274    0.631352   -1.213598
     10          6           0        2.010431    0.051001   -0.622991
     11          6           0        4.118986    2.613420   -2.378936
     12          6           0        5.314700    1.843696   -2.409514
     13          6           0        5.466954    0.554007   -1.895445
     14          6           0        4.393265   -0.132736   -1.269117
     15          8           0        4.160499    3.813734   -2.915432
     16          8           0        4.485592   -1.309394   -0.782702
     17          8           0        6.354231    2.507253   -3.014856
     18          1           0       -0.744840    3.696997   -1.345072
     19          1           0       -2.672582    2.581511   -0.298119
     20          1           0       -2.453963    0.257147    0.610558
     21          1           0       -0.268246   -0.912939    0.465138
     22          1           0        1.672038    3.635751   -2.085022
     23          1           0        2.134699   -0.952378   -0.223892
     24          1           0        6.428526    0.053116   -1.970536
     25          1           0        5.878743    3.354374   -3.239118
 ---------------------------------------------------------------------

 SCF Done:  E(UB3LYP) =  -764.186838144     a.u. after    1 cycles
 SCF Done:  E(UB3LYP) =  -764.186838144     A.U. after    1 cycles

 Alpha  occ. eigenvalues --  -18.88605 -18.79585 -18.79300  -9.95932  -9.95791
 Alpha  occ. eigenvalues --   -9.95726  -9.95558  -9.95252  -9.94992  -9.94324
 Alpha  occ. eigenvalues --   -9.94227  -9.93415  -9.92800  -9.92141  -9.91868
 Alpha  occ. eigenvalues --   -9.91508  -9.89327  -0.79901  -0.71330  -0.69065
 Alpha  occ. eigenvalues --   -0.63600  -0.58423  -0.54019  -0.53500  -0.48720
 Alpha  occ. eigenvalues --   -0.48348  -0.41653  -0.39627  -0.36762  -0.36014
 Alpha  occ. eigenvalues --   -0.31509  -0.29529  -0.28482  -0.25891  -0.23090
 Alpha  occ. eigenvalues --   -0.22199  -0.20977  -0.20389  -0.19033  -0.17664
 Alpha  occ. eigenvalues --   -0.16517  -0.15401  -0.15005  -0.14827  -0.13516
 Alpha  occ. eigenvalues --   -0.12705  -0.11262  -0.11077  -0.09409  -0.08510
 Alpha  occ. eigenvalues --   -0.07533  -0.06211  -0.05157   0.00144   0.01821
 Alpha  occ. eigenvalues --    0.01983   0.02884   0.03141   0.12359
 Alpha virt. eigenvalues --    0.13753   0.15605   0.17767   0.18061   0.19095
 Alpha virt. eigenvalues --    0.19231   0.20645   0.21898   0.22272   0.22799
 Alpha virt. eigenvalues --    0.23477   0.24505   0.25254   0.25678   0.26525

  Beta  occ. eigenvalues --  -18.88605 -18.79585 -18.79300  -9.95932  -9.95791
  Beta  occ. eigenvalues --   -9.95726  -9.95558  -9.95252  -9.94992  -9.94324
  Beta  occ. eigenvalues --   -9.94227  -9.93415  -9.92800  -9.92141  -9.91868
  Beta  occ. eigenvalues --   -9.91508  -9.89327  -0.79901  -0.71330  -0.69065
  Beta  occ. eigenvalues --   -0.63600  -0.58423  -0.54019  -0.53500  -0.48720
  Beta  occ. eigenvalues --   -0.48348  -0.41653  -0.39627  -0.36762  -0.36014
  Beta  occ. eigenvalues --   -0.31509  -0.29529  -0.28482  -0.25891  -0.23090
  Beta  occ. eigenvalues --   -0.22199  -0.20977  -0.20389  -0.19033  -0.17664
  Beta  occ. eigenvalues --   -0.16517  -0.15401  -0.15005  -0.14827  -0.13516
  Beta  occ. eigenvalues --   -0.12705  -0.11262  -0.11077  -0.09409  -0.08510
  Beta  occ. eigenvalues --   -0.07533  -0.06211  -0.05157   0.00144   0.01821
  Beta  occ. eigenvalues --    0.01983   0.02884   0.03141   0.12359
  Beta virt. eigenvalues --    0.13753   0.15605   0.17767   0.18061   0.19095
  Beta virt. eigenvalues --    0.19231   0.20645   0.21898   0.22272   0.22799
  Beta virt. eigenvalues --    0.23477   0.24505   0.25254   0.25678   0.26525

 Mulliken charges and spin densities:
               1          2
     1  C   -0.387514  -0.000000
     2  C    0.145381   0.000000
     3  C    0.042635   0.000000
     4  C    0.279216  -0.000000
     5  C    0.311091   0.000000
     6  C   -0.331987   0.000000
     7  C    0.011001  -0.000000
     8  C    0.450901  -0.000000
     9  C    0.438468  -0.000000
    10  C    0.164418  -0.000000
    11  C   -1.220824  -0.000000
    12  C   -0.324866   0.000000
    13  C    0.684972  -0.000000
    14  C   -0.889306   0.000000
    15  O   -0.586154   0.000000
    16  O   -0.494929   0.000000
    17  O   -0.315198   0.000000
    18  H    0.123661   0.000000
    19  H   -0.420572  -0.000000
    20  H   -0.336449  -0.000000
    21  H    0.117690   0.000000
    22  H    0.093967   0.000000
    23  H    0.097382  -0.000000
    24  H    0.106581   0.000000
    25  H    0.240435  -0.000000
 Sum of Mulliken charges =  -2.00000  -0.00000

 Dipole moment (field-independent basis, Debye):
    X=            -26.9851    Y=            -12.9151    Z=             13.9599  Tot=             33.0133
 Quadrupole moment (field-independent basis, Debye-Ang):
   XX=           -279.7242   YY=           -166.8296   ZZ=           -146.6744
   XY=            -32.9935   XZ=             63.8869   YZ=             32.8562

  Exact polarizability:2464.077 -67.005 758.284-640.238-188.028 370.828
 Approx polarizability:5389.461  18.022 567.012********-151.478 664.722

                      1                      2                      3
                      A                      A                      A
 Frequencies --     65.9815                87.2837               131.5681
 Red. masses --      6.4767                 5.0392                 9.3658
 Frc consts  --      0.0166                 0.0226                 0.0955
 IR Inten    --      0.2825                 0.4482                 9.1754

                      4                      5                      6
                      A                      A                      A
 Frequencies --    168.5330               198.8028               244.4924
 Red. masses --      7.1298                 7.3476                 4.6933
 Frc consts  --      0.1193                 0.1711                 0.1653
 IR Inten    --      9.8311                 1.7062                19.1741

                      7                      8                      9
                      A                      A                      A
 Frequencies --    283.7916               302.0522               313.0416
 Red. masses --      5.6516                 9.8183                 5.2918
 Frc consts  --      0.2682                 0.5278                 0.3055
 IR Inten    --      4.4729                 0.9489               120.2379

                     10                     11                     12
                      A                      A                      A
 Frequencies --    332.1613               372.3394               403.2151
 Red. masses --      6.3104                 5.3448                10.6427
 Frc consts  --      0.4102                 0.4366                 1.0195
 IR Inten    --     58.4189                18.3599               574.3699

                     13                     14                     15
                      A                      A                      A
 Frequencies --    441.9117               464.0427               476.6199
 Red. masses --      3.9845                 2.8766                10.5559
 Frc consts  --      0.4585                 0.3650                 1.4128
 IR Inten    --     14.0992                41.8881              1218.6705

                     16                     17                     18
                      A                      A                      A
 Frequencies --    496.6185               520.3988               586.0221
 Red. masses --      6.6530                 4.0764                 7.1883
 Frc consts  --      0.9667                 0.6504                 1.4545
 IR Inten    --     24.4241                11.5552                29.6616

                     19                     20                     21
                      A                      A                      A
 Frequencies --    602.6822               622.7490               651.8280
 Red. masses --      3.4613                 6.7278                 6.2011
 Frc consts  --      0.7407                 1.5373                 1.5523
 IR Inten    --     27.0369                 4.0232                14.9270

                     22                     23                     24
                      A                      A                      A
 Frequencies --    703.5505               704.7601               714.9062
 Red. masses --      4.5596                 5.0834                 2.8483
 Frc consts  --      1.3297                 1.4876                 0.8577
 IR Inten    --     11.3288                 3.5411               119.4347

                     25                     26                     27
                      A                      A                      A
 Frequencies --    739.2242               748.5875               758.5637
 Red. masses --      1.6437                 2.7086                 5.1773
 Frc consts  --      0.5292                 0.8943                 1.7552
 IR Inten    --     25.8976                 0.9859               427.0885

                     28                     29                     30
                      A                      A                      A
 Frequencies --    781.5798               789.0346               794.5323
 Red. masses --      4.6963                 1.5295                 2.0809
 Frc consts  --      1.6902                 0.5610                 0.7740
 IR Inten    --     74.4217                80.3919                27.6165

                     31                     32                     33
                      A                      A                      A
 Frequencies --    829.5187               878.7557               898.3297
 Red. masses --      1.1219                 1.4654                 1.9119
 Frc consts  --      0.4548                 0.6667                 0.9090
 IR Inten    --     82.2986                 3.3962               125.3497

                     34                     35                     36
                      A                      A                      A
 Frequencies --    903.1971               934.5497               948.3205
 Red. masses --      2.0784                 1.3604                 1.3055
 Frc consts  --      0.9989                 0.7001                 0.6917
 IR Inten    --    225.8604                 2.4274                84.4403

                     37                     38                     39
                      A                      A                      A
 Frequencies --    986.6542              1005.9427              1048.4762
 Red. masses --      3.9398                 2.3195                 3.2744
 Frc consts  --      2.2597                 1.3829                 2.1208
 IR Inten    --     87.6377               327.9726                16.7544

                     40                     41                     42
                      A                      A                      A
 Frequencies --   1131.4578              1149.8649              1157.5687
 Red. masses --      1.5910                 1.5693                 1.7930
 Frc consts  --      1.2001                 1.2225                 1.4155
 IR Inten    --     45.5733               130.1963                95.7757

                     43                     44                     45
                      A                      A                      A
 Frequencies --   1189.3013              1196.3470              1208.9560
 Red. masses --      2.8026                 1.5506                 2.3934
 Frc consts  --      2.3356                 1.3076                 2.0611
 IR Inten    --     45.3049               218.1704              2755.5874

                     46                     47                     48
                      A                      A                      A
 Frequencies --   1253.5483              1273.5965              1297.4465
 Red. masses --      2.6377                 2.0682                 3.5435
 Frc consts  --      2.4421                 1.9765                 3.5145
 IR Inten    --    508.3911                23.2736               288.1818

                     49                     50                     51
                      A                      A                      A
 Frequencies --   1336.4777              1364.3884              1383.6902
 Red. masses --      2.9508                 3.7744                 3.2991
 Frc consts  --      3.1053                 4.1397                 3.7216
 IR Inten    --   3915.5890              3201.4236               813.3588

                     52                     53                     54
                      A                      A                      A
 Frequencies --   1415.1794              1425.1948              1452.6382
 Red. masses --      7.8362                 4.1662                 3.1140
 Frc consts  --      9.2466                 4.9858                 3.8715
 IR Inten    --   4730.1755              1516.1550               897.8483

                     55                     56                     57
                      A                      A                      A
 Frequencies --   1469.1666              1498.4009              1520.9146
 Red. masses --      3.0857                 3.1177                 4.9598
 Frc consts  --      3.9242                 4.1242                 6.7596
 IR Inten    --   1583.0978                58.4453               771.4604

                     58                     59                     60
                      A                      A                      A
 Frequencies --   1544.5527              1572.5666              1590.5033
 Red. masses --      5.7862                 2.6356                 6.8883
 Frc consts  --      8.1329                 3.8402                10.2668
 IR Inten    --   1694.7807              2036.2299              3504.6919

                     61                     62                     63
                      A                      A                      A
 Frequencies --   1610.5014              3098.5890              3113.0062
 Red. masses --      5.2070                 1.0829                 1.0858
 Frc consts  --      7.9571                 6.1259                 6.1996
 IR Inten    --     19.4640               288.8081               196.5928

                     64                     65                     66
                      A                      A                      A
 Frequencies --   3127.2198              3136.7821              3140.2115
 Red. masses --      1.0920                 1.0882                 1.0949
 Frc consts  --      6.2918                 6.3083                 6.3612
 IR Inten    --    182.2187               345.1528               137.1905

                     67                     68                     69
                      A                      A                      A
 Frequencies --   3143.8689              3148.5811              3233.6311
 Red. masses --      1.0884                 1.0880                 1.0637
 Frc consts  --      6.3380                 6.3551                 6.5529
 IR Inten    --     35.2399                26.1455               814.0485

 - Thermochemistry -
 -------------------
 Temperature   298.150 Kelvin.  Pressure   1.00000 Atm.
 Atom     1 has atomic number  6 and mass  12.00000

 Molecular mass:   224.04734 amu.
 Principal axes and moments of inertia in atomic units:
                           1         2         3
     Eigenvalues --  1783.758285685.288687468.99052
           X            0.94806  -0.17129   0.26803
           Y            0.05808   0.92168   0.38358
           Z           -0.31274  -0.34809   0.88376
 This molecule is an asymmetric top.
 Rotational symmetry number  1.
 Warning -- assumption of classical behavior for rotation
           may cause significant error
 Rotational temperatures (Kelvin)      0.04856     0.01523     0.01160
 Rotational constants (GHZ):           1.01176     0.31744     0.24163
 Zero-point vibrational energy     467254.0 (Joules/Mol)
                                  111.67639 (Kcal/Mol)
 Warning -- explicit consideration of  19 degrees of freedom as
           vibrations may cause significant error
 Vibrational temperatures:     94.93   125.58   189.30   242.48   286.03
          (Kelvin)            351.77   408.31   434.59   450.40   477.91
                              535.71   580.14   635.81   667.65   685.75
                              714.52   748.74   843.16   867.13   896.00
                              937.84  1012.25  1013.99  1028.59  1063.58
                             1077.05  1091.40  1124.52  1135.24  1143.15
                             1193.49  1264.33  1292.50  1299.50  1344.61
                             1364.42  1419.58  1447.33  1508.52  1627.92
                             1654.40  1665.48  1711.14  1721.28  1739.42
                             1803.58  1832.42  1866.74  1922.89  1963.05
                             1990.82  2036.13  2050.54  2090.02  2113.80
                             2155.86  2188.26  2222.27  2262.57  2288.38
                             2317.15  4458.18  4478.92  4499.37  4513.13
                             4518.06  4523.33  4530.11  4652.47

 Zero-point correction=                           0.177968 (Hartree/Particle)
 Thermal correction to Energy=                    0.190319
 Thermal correction to Enthalpy=                  0.191264
 Thermal correction to Gibbs Free Energy=         0.139536
 Sum of electronic and zero-point Energies=           -764.008870
 Sum of electronic and thermal Energies=              -763.996519
 Sum of electronic and thermal Enthalpies=            -763.995575
 Sum of electronic and thermal Free Energies=         -764.047302

                     E (Thermal)             CV                S
                      KCal/Mol        Cal/Mol-Kelvin    Cal/Mol-Kelvin
 Total                  119.427             51.119            108.871
 Electronic               0.000              0.000              0.000
 Translational            0.889              2.981             42.123
 Rotational               0.889              2.981             32.693
 Vibrational            117.650             45.157             34.055
 Vibration     1          0.597              1.970              4.270
 Vibration     2          0.601              1.958              3.720
 Vibration     3          0.612              1.922              2.923
 Vibration     4          0.625              1.881              2.452
 Vibration     5          0.637              1.842              2.144
 Vibration     6          0.660              1.772              1.770
 Vibration     7          0.682              1.704              1.511
 Vibration     8          0.694              1.670              1.406
 Vibration     9          0.701              1.649              1.346
 Vibration    10          0.714              1.611              1.250
 Vibration    11          0.744              1.529              1.070
 Vibration    12          0.769              1.463              0.951
 Vibration    13          0.802              1.379              0.821
 Vibration    14          0.822              1.330              0.754
 Vibration    15          0.833              1.302              0.719
 Vibration    16          0.852              1.258              0.667
 Vibration    17          0.875              1.205              0.609
 Vibration    18          0.943              1.062              0.474
 Vibration    19          0.961              1.026              0.445

 Optimization completed.
    -- Stationary point found.
 Normal termination of Gaussian 16 at Sat Jan  6 04:35:42 2024.
