 Q-Chem 5.4, Q-Chem, Inc., Pleasanton, CA (2021)
 Q-Chem 5.4.0 for Intel X86 EM64T Linux

User input:
--------------------------------------------------------------
$molecule
0 1
C                 -4.0181030000     -1.0125070000      0.2426710000
C                 -2.6458070000     -0.3912100000      0.2517410000
C                 -2.4780770000      0.9757790000      0.4283140000
C                 -3.6625720000      1.8878780000      0.6138450000
C                 -1.1677720000      1.5330170000      0.4433040000
O                 -1.0587590000      2.8555410000      0.6301370000
C                 -0.0391450000      0.7164720000      0.2674820000
C                  1.2916810000      1.3121980000      0.2831330000
O                  1.4590050000      2.5342050000      0.4506480000
C                  2.4626090000      0.4219690000      0.0926280000
C                  3.7507060000      0.9672580000      0.1027000000
C                  4.8568900000      0.1454050000     -0.0745750000
C                  4.6873430000     -1.2295350000     -0.2637020000
C                  3.4118650000     -1.7804770000     -0.2752040000
C                  2.2920450000     -0.9612770000     -0.0975890000
C                  0.9369920000     -1.5641620000     -0.1123950000
O                  0.8024000000     -2.7899230000     -0.2819480000
C                 -0.2120360000     -0.6863030000      0.0754660000
C                 -1.5077770000     -1.2270240000      0.0675560000
O                 -1.7236490000     -2.5374270000     -0.1116250000
H                 -3.9555300000     -2.0973320000      0.2874700000
H                 -4.5605890000     -0.7445740000     -0.6709860000
H                 -4.6156190000     -0.6583750000      1.0863620000
H                 -4.1246090000      1.7312010000      1.5950410000
H                 -3.3651930000      2.9318790000      0.5478150000
H                 -4.4311480000      1.6917660000     -0.1379220000
H                 -0.0887890000      3.0684690000      0.6074950000
H                  3.8594480000      2.0342670000      0.2506230000
H                  5.8533980000      0.5720650000     -0.0661310000
H                  5.5525170000     -1.8679440000     -0.4017140000
H                  3.2580700000     -2.8423700000     -0.4199260000
H                 -0.8319940000     -2.9621270000     -0.2178650000
$end
$rem
MAX_SCF_CYCLES=200
BASIS  =  6-311++G(d,p)
GUI  =  2
JOB_TYPE  =  SP
METHOD  =  B3LYP
SOLVENT_METHOD = PCM
$end
$pcm
theory = CPCM
$end
$solvent
dielectric 37.219
opticaldielectric 1.43
$end

--------------------------------------------------------------

             Standard Nuclear Orientation (Angstroms)
    I     Atom           X                Y                Z
 ----------------------------------------------------------------
    1      C      -4.0181030000    -1.0125070000     0.2426710000
    2      C      -2.6458070000    -0.3912100000     0.2517410000
    3      C      -2.4780770000     0.9757790000     0.4283140000
    4      C      -3.6625720000     1.8878780000     0.6138450000
    5      C      -1.1677720000     1.5330170000     0.4433040000
    6      O      -1.0587590000     2.8555410000     0.6301370000
    7      C      -0.0391450000     0.7164720000     0.2674820000
    8      C       1.2916810000     1.3121980000     0.2831330000
    9      O       1.4590050000     2.5342050000     0.4506480000
   10      C       2.4626090000     0.4219690000     0.0926280000
   11      C       3.7507060000     0.9672580000     0.1027000000
   12      C       4.8568900000     0.1454050000    -0.0745750000
   13      C       4.6873430000    -1.2295350000    -0.2637020000
   14      C       3.4118650000    -1.7804770000    -0.2752040000
   15      C       2.2920450000    -0.9612770000    -0.0975890000
   16      C       0.9369920000    -1.5641620000    -0.1123950000
   17      O       0.8024000000    -2.7899230000    -0.2819480000
   18      C      -0.2120360000    -0.6863030000     0.0754660000
   19      C      -1.5077770000    -1.2270240000     0.0675560000
   20      O      -1.7236490000    -2.5374270000    -0.1116250000
   21      H      -3.9555300000    -2.0973320000     0.2874700000
   22      H      -4.5605890000    -0.7445740000    -0.6709860000
   23      H      -4.6156190000    -0.6583750000     1.0863620000
   24      H      -4.1246090000     1.7312010000     1.5950410000
   25      H      -3.3651930000     2.9318790000     0.5478150000
   26      H      -4.4311480000     1.6917660000    -0.1379220000
   27      H      -0.0887890000     3.0684690000     0.6074950000
   28      H       3.8594480000     2.0342670000     0.2506230000
   29      H       5.8533980000     0.5720650000    -0.0661310000
   30      H       5.5525170000    -1.8679440000    -0.4017140000
   31      H       3.2580700000    -2.8423700000    -0.4199260000
   32      H      -0.8319940000    -2.9621270000    -0.2178650000
 ----------------------------------------------------------------

    9    -918.1394156310      3.58e-06  Convergence criterion met
 Total energy in the final basis set =     -918.1394156310

                    Orbital Energies (a.u.)
 --------------------------------------------------------------

 Alpha MOs
 -- Occupied --
-19.1612 -19.1611 -19.1355 -19.1355 -10.2850 -10.2850 -10.2638 -10.2638
-10.2091 -10.2086 -10.2082 -10.2076 -10.2046 -10.2042 -10.1971 -10.1969
-10.1965 -10.1962 -10.1699 -10.1699  -1.0915  -1.0899  -1.0578  -1.0566
 -0.8944  -0.8789  -0.8295  -0.7842  -0.7809  -0.7718  -0.7342  -0.7104
 -0.6778  -0.6492  -0.6460  -0.6301  -0.5992  -0.5687  -0.5538  -0.5377
 -0.5344  -0.5030  -0.4915  -0.4809  -0.4730  -0.4645  -0.4598  -0.4514
 -0.4496  -0.4437  -0.4366  -0.4313  -0.4207  -0.4110  -0.4093  -0.3928
 -0.3902  -0.3882  -0.3803  -0.3773  -0.3763  -0.3716  -0.3671  -0.3275
 -0.2972  -0.2856  -0.2801  -0.2792  -0.2665  -0.2303

          Ground-State Mulliken Net Atomic Charges

     Atom                 Charge (a.u.)
  ----------------------------------------
      1 C                    -0.560471
      2 C                     0.557635
      3 C                     0.560906
      4 C                    -0.560647
      5 C                    -0.570272
      6 O                    -0.357235
      7 C                     0.484030
      8 C                    -0.439598
      9 O                    -0.351616
     10 C                     0.103545
     11 C                     0.115180
     12 C                    -0.378114
     13 C                    -0.376462
     14 C                     0.115912
     15 C                     0.095398
     16 C                    -0.439174
     17 O                    -0.351837
     18 C                     0.485212
     19 C                    -0.568624
     20 O                    -0.357704
     21 H                     0.194212
     22 H                     0.205090
     23 H                     0.180621
     24 H                     0.204549
     25 H                     0.194697
     26 H                     0.180542
     27 H                     0.389098
     28 H                     0.204350
     29 H                     0.223577
     30 H                     0.223709
     31 H                     0.204209
     32 H                     0.389283
  ----------------------------------------
  Sum of atomic charges =     0.000000

                    Cartesian Multipole Moments
 -----------------------------------------------------------------
    Charge (ESU x 10^10)
                 0.0000
    Dipole Moment (Debye)
         X       0.6892      Y      -0.0768      Z      -0.0491
       Tot       0.6952
    Quadrupole Moments (Debye-Ang)
        XX     -81.2960     XY      -5.9032     YY    -131.3199
        XZ      -2.6421     YZ      -1.6862     ZZ    -117.5466

 Total job time:  69.64s(wall), 487.70s(cpu)
        *  Thank you very much for using Q-Chem.  Have a nice day.  *
