 Gaussian 16, Revision A.03,
 Gaussian 16:  ES64L-G16RevA.03 25-Dec-2016

 --------------------------------------
 #P UB3LYP/6-311++G(d,p) nosym opt freq
 --------------------------------------

 --------
 Oxidized
 --------
 Symbolic Z-matrix:
 Charge =  0 Multiplicity = 1

 SCF Done:  E(UB3LYP) =  -918.127415565     A.U. after   16 cycles
 SCF Done:  E(UB3LYP) =  -918.127461277     A.U. after   11 cycles
 SCF Done:  E(UB3LYP) =  -918.127452247     A.U. after   11 cycles
 SCF Done:  E(UB3LYP) =  -918.127461618     A.U. after   11 cycles
 SCF Done:  E(UB3LYP) =  -918.127463776     A.U. after   10 cycles
 SCF Done:  E(UB3LYP) =  -918.127464015     A.U. after    9 cycles
 SCF Done:  E(UB3LYP) =  -918.127464353     A.U. after    8 cycles
 SCF Done:  E(UB3LYP) =  -918.127465579     A.U. after   10 cycles
 SCF Done:  E(UB3LYP) =  -918.127467568     A.U. after   10 cycles
 SCF Done:  E(UB3LYP) =  -918.127474090     A.U. after   12 cycles
 SCF Done:  E(UB3LYP) =  -918.127591376     A.U. after   11 cycles
 SCF Done:  E(UB3LYP) =  -918.127591820     A.U. after   11 cycles
 SCF Done:  E(UB3LYP) =  -918.127593767     A.U. after   11 cycles
 SCF Done:  E(UB3LYP) =  -918.127594178     A.U. after    9 cycles
 SCF Done:  E(UB3LYP) =  -918.127594358     A.U. after    9 cycles
 SCF Done:  E(UB3LYP) =  -918.127594392     A.U. after    8 cycles
 SCF Done:  E(UB3LYP) =  -918.127594457     A.U. after    8 cycles
 SCF Done:  E(UB3LYP) =  -918.127594521     A.U. after    8 cycles
 SCF Done:  E(UB3LYP) =  -918.127594541     A.U. after    8 cycles
 Optimization completed.
    -- Stationary point found.
 Normal termination of Gaussian 16 at Mon Jan 15 23:25:21 2024.

 ----------------------------------------------------------------------
 #P Geom=AllCheck Guess=TCheck SCRF=Check GenChk UB3LYP/6-311++G(d,p) F
 req
 ----------------------------------------------------------------------

 Structure from the checkpoint file:  "197.chk"
 --------
 Oxidized
 --------
 Charge =  0 Multiplicity = 1

                          Input orientation:
 ---------------------------------------------------------------------
 Center     Atomic      Atomic             Coordinates (Angstroms)
 Number     Number       Type             X           Y           Z
 ---------------------------------------------------------------------
      1          6           0       -4.018103   -1.012507    0.242671
      2          6           0       -2.645807   -0.391210    0.251741
      3          6           0       -2.478077    0.975779    0.428314
      4          6           0       -3.662572    1.887878    0.613845
      5          6           0       -1.167772    1.533017    0.443304
      6          8           0       -1.058759    2.855541    0.630137
      7          6           0       -0.039145    0.716472    0.267482
      8          6           0        1.291681    1.312198    0.283133
      9          8           0        1.459005    2.534205    0.450648
     10          6           0        2.462609    0.421969    0.092628
     11          6           0        3.750706    0.967258    0.102700
     12          6           0        4.856890    0.145405   -0.074575
     13          6           0        4.687343   -1.229535   -0.263702
     14          6           0        3.411865   -1.780477   -0.275204
     15          6           0        2.292045   -0.961277   -0.097589
     16          6           0        0.936992   -1.564162   -0.112395
     17          8           0        0.802400   -2.789923   -0.281948
     18          6           0       -0.212036   -0.686303    0.075466
     19          6           0       -1.507777   -1.227024    0.067556
     20          8           0       -1.723649   -2.537427   -0.111625
     21          1           0       -3.955530   -2.097332    0.287470
     22          1           0       -4.560589   -0.744574   -0.670986
     23          1           0       -4.615619   -0.658375    1.086362
     24          1           0       -4.124609    1.731201    1.595041
     25          1           0       -3.365193    2.931879    0.547815
     26          1           0       -4.431148    1.691766   -0.137922
     27          1           0       -0.088789    3.068469    0.607495
     28          1           0        3.859448    2.034267    0.250623
     29          1           0        5.853398    0.572065   -0.066131
     30          1           0        5.552517   -1.867944   -0.401714
     31          1           0        3.258070   -2.842370   -0.419926
     32          1           0       -0.831994   -2.962127   -0.217865
 ---------------------------------------------------------------------

 SCF Done:  E(UB3LYP) =  -918.127594541     A.U. after    1 cycles

 Alpha  occ. eigenvalues --  -19.15764 -19.15763 -19.13326 -19.13325 -10.28353
 Alpha  occ. eigenvalues --  -10.28352 -10.26379 -10.26377 -10.21249 -10.21199
 Alpha  occ. eigenvalues --  -10.21099 -10.21042 -10.20496 -10.20490 -10.20447
 Alpha  occ. eigenvalues --  -10.20444 -10.20182 -10.20181 -10.17896 -10.17895
 Alpha  occ. eigenvalues --   -1.08867  -1.08693  -1.05500  -1.05362  -0.89737
 Alpha  occ. eigenvalues --   -0.88171  -0.83290  -0.78904  -0.78456  -0.77455
 Alpha  occ. eigenvalues --   -0.73730  -0.71564  -0.68114  -0.65437  -0.64901
 Alpha  occ. eigenvalues --   -0.62969  -0.60273  -0.57100  -0.55510  -0.53876
 Alpha  occ. eigenvalues --   -0.53508  -0.50499  -0.49343  -0.48476  -0.47419
 Alpha  occ. eigenvalues --   -0.46512  -0.46038  -0.45567  -0.45091  -0.44840
 Alpha  occ. eigenvalues --   -0.43535  -0.43063  -0.42644  -0.41560  -0.41224
 Alpha  occ. eigenvalues --   -0.39566  -0.39409  -0.39259  -0.38505  -0.37948
 Alpha  occ. eigenvalues --   -0.37823  -0.37554  -0.37040  -0.32572  -0.29427
 Alpha  occ. eigenvalues --   -0.28884  -0.28282  -0.27803  -0.27031  -0.22903
 Alpha virt. eigenvalues --   -0.12097  -0.07113  -0.04057  -0.01367  -0.01361
 Alpha virt. eigenvalues --   -0.00896   0.00944   0.01171   0.01558   0.02246
 Alpha virt. eigenvalues --    0.02995   0.03408   0.03454   0.03567   0.04245

  Beta  occ. eigenvalues --  -19.15764 -19.15763 -19.13326 -19.13325 -10.28353
  Beta  occ. eigenvalues --  -10.28352 -10.26379 -10.26377 -10.21249 -10.21199
  Beta  occ. eigenvalues --  -10.21099 -10.21042 -10.20496 -10.20490 -10.20447
  Beta  occ. eigenvalues --  -10.20444 -10.20182 -10.20181 -10.17896 -10.17895
  Beta  occ. eigenvalues --   -1.08867  -1.08693  -1.05500  -1.05362  -0.89737
  Beta  occ. eigenvalues --   -0.88171  -0.83290  -0.78904  -0.78456  -0.77455
  Beta  occ. eigenvalues --   -0.73730  -0.71564  -0.68114  -0.65437  -0.64901
  Beta  occ. eigenvalues --   -0.62969  -0.60273  -0.57100  -0.55510  -0.53876
  Beta  occ. eigenvalues --   -0.53508  -0.50499  -0.49343  -0.48476  -0.47419
  Beta  occ. eigenvalues --   -0.46512  -0.46038  -0.45567  -0.45091  -0.44840
  Beta  occ. eigenvalues --   -0.43535  -0.43063  -0.42644  -0.41560  -0.41224
  Beta  occ. eigenvalues --   -0.39566  -0.39409  -0.39259  -0.38505  -0.37948
  Beta  occ. eigenvalues --   -0.37823  -0.37554  -0.37040  -0.32572  -0.29427
  Beta  occ. eigenvalues --   -0.28884  -0.28282  -0.27803  -0.27031  -0.22903
  Beta virt. eigenvalues --   -0.12097  -0.07113  -0.04057  -0.01367  -0.01361
  Beta virt. eigenvalues --   -0.00896   0.00944   0.01171   0.01558   0.02246
  Beta virt. eigenvalues --    0.02995   0.03408   0.03454   0.03567   0.04245

 Mulliken charges and spin densities:
               1          2
     1  C   -0.507967   0.000000
     2  C    0.586241  -0.000000
     3  C    0.584708  -0.000000
     4  C   -0.507911  -0.000000
     5  C   -0.629109   0.000000
     6  O   -0.313103   0.000000
     7  C    0.453556   0.000000
     8  C   -0.514597   0.000000
     9  O   -0.292982   0.000000
    10  C    0.151511   0.000000
    11  C    0.120138   0.000000
    12  C   -0.324106   0.000000
    13  C   -0.324006  -0.000000
    14  C    0.120381   0.000000
    15  C    0.149761  -0.000000
    16  C   -0.514725  -0.000000
    17  O   -0.292992   0.000000
    18  C    0.453392  -0.000000
    19  C   -0.629132   0.000000
    20  O   -0.313096  -0.000000
    21  H    0.201359  -0.000000
    22  H    0.178386   0.000000
    23  H    0.156626  -0.000000
    24  H    0.178122  -0.000000
    25  H    0.201323  -0.000000
    26  H    0.156833  -0.000000
    27  H    0.368545  -0.000000
    28  H    0.189699  -0.000000
    29  H    0.177434   0.000000
    30  H    0.177439  -0.000000
    31  H    0.189693   0.000000
    32  H    0.368578   0.000000
 Sum of Mulliken charges =  -0.00000   0.00000

 Dipole moment (field-independent basis, Debye):
    X=              0.5928    Y=             -0.0674    Z=             -0.0429  Tot=              0.5982
 Quadrupole moment (field-independent basis, Debye-Ang):
   XX=            -90.1728   YY=           -127.8958   ZZ=           -117.6292
   XY=             -4.4548   XZ=             -1.9987   YZ=             -1.3002

  Exact polarizability: 338.928 -12.418 220.956 -14.372  18.358 103.948
 Approx polarizability: 510.017  -7.760 420.718 -19.319  38.111 171.156

                      1                      2                      3
                      A                      A                      A
 Frequencies --     42.5046                50.1925                82.3816
 Red. masses --      5.2334                 1.0927                 4.1053
 Frc consts  --      0.0056                 0.0016                 0.0164
 IR Inten    --      3.0785                 0.0144                 0.0014

                      4                      5                      6
                      A                      A                      A
 Frequencies --     85.2832               118.6605               127.7055
 Red. masses --      1.0483                 6.3881                 3.8806
 Frc consts  --      0.0045                 0.0530                 0.0373
 IR Inten    --      0.1786                 0.0076                 0.0000

                      7                      8                      9
                      A                      A                      A
 Frequencies --    158.3678               159.8756               190.3301
 Red. masses --      7.7213                 5.1651                 4.6497
 Frc consts  --      0.1141                 0.0778                 0.0992
 IR Inten    --      0.9020                 0.0018                 0.1007

                     10                     11                     12
                      A                      A                      A
 Frequencies --    226.7158               302.1508               303.9184
 Red. masses --      6.5053                 4.4564                 4.3720
 Frc consts  --      0.1970                 0.2397                 0.2379
 IR Inten    --      0.1973                 0.0903                 0.0372

                     13                     14                     15
                      A                      A                      A
 Frequencies --    312.1797               341.4188               374.0582
 Red. masses --      4.4141                 3.1719                 5.7302
 Frc consts  --      0.2535                 0.2178                 0.4724
 IR Inten    --      4.4489                 0.8741                 4.7889

                     16                     17                     18
                      A                      A                      A
 Frequencies --    390.6754               402.9911               410.7252
 Red. masses --      6.6802                 8.4832                 6.2658
 Frc consts  --      0.6007                 0.8117                 0.6228
 IR Inten    --      6.0515                 0.0237                 6.5074

                     19                     20                     21
                      A                      A                      A
 Frequencies --    429.0826               439.8447               460.6735
 Red. masses --      3.4023                 8.6512                 5.3479
 Frc consts  --      0.3691                 0.9861                 0.6687
 IR Inten    --      2.3705                19.6438                 2.9181

                     22                     23                     24
                      A                      A                      A
 Frequencies --    461.7790               517.6703               533.1441
 Red. masses --      9.3962                10.2014                 4.9637
 Frc consts  --      1.1805                 1.6107                 0.8313
 IR Inten    --     14.1145                 0.9212                 0.0931

                     25                     26                     27
                      A                      A                      A
 Frequencies --    546.6044               551.0040               650.0270
 Red. masses --      5.5873                 6.9503                 6.7789
 Frc consts  --      0.9836                 1.2433                 1.6876
 IR Inten    --      5.5022                 3.6603                 9.2898

                     28                     29                     30
                      A                      A                      A
 Frequencies --    659.3144               678.8761               700.3303
 Red. masses --      5.9634                 5.0904                 4.7672
 Frc consts  --      1.5273                 1.3822                 1.3776
 IR Inten    --      2.1722                 0.0453                 8.1528

                     31                     32                     33
                      A                      A                      A
 Frequencies --    714.8871               742.3740               743.3868
 Red. masses --      6.1647                 2.2827                 5.2622
 Frc consts  --      1.8563                 0.7412                 1.7134
 IR Inten    --      0.2160                41.4668                 4.5878

                     34                     35                     36
                      A                      A                      A
 Frequencies --    767.5842               779.1050               812.1123
 Red. masses --      5.7512                 5.9148                 1.9595
 Frc consts  --      1.9965                 2.1154                 0.7614
 IR Inten    --      0.6358                 0.0004                33.6128

                     37                     38                     39
                      A                      A                      A
 Frequencies --    845.8171               848.4548               883.5008
 Red. masses --      1.0681                 1.1075                 4.7172
 Frc consts  --      0.4502                 0.4697                 2.1694
 IR Inten    --     10.5214               162.5539                 0.1612

                     40                     41                     42
                      A                      A                      A
 Frequencies --    914.1825               946.8971               978.2079
 Red. masses --      1.3637                 4.8779                 2.4641
 Frc consts  --      0.6715                 2.5769                 1.3892
 IR Inten    --      0.0000                11.3990                55.5339

                     43                     44                     45
                      A                      A                      A
 Frequencies --   1002.1980              1018.0641              1031.1309
 Red. masses --      1.3798                 1.3254                 1.4355
 Frc consts  --      0.8166                 0.8093                 0.8992
 IR Inten    --      1.4488                 0.0000                 1.6822

                     46                     47                     48
                      A                      A                      A
 Frequencies --   1036.1858              1061.8157              1064.2123
 Red. masses --      2.2783                 1.6446                 1.7990
 Frc consts  --      1.4412                 1.0924                 1.2004
 IR Inten    --     32.1391                 1.2416                 4.3399

                     49                     50                     51
                      A                      A                      A
 Frequencies --   1088.2107              1116.6299              1124.4473
 Red. masses --      5.7278                 2.0374                 2.1605
 Frc consts  --      3.9964                 1.4968                 1.6095
 IR Inten    --     32.2841                28.4302                 5.3406

                     52                     53                     54
                      A                      A                      A
 Frequencies --   1162.9117              1185.9763              1229.8163
 Red. masses --      3.3360                 1.2299                 2.3090
 Frc consts  --      2.6581                 1.0192                 2.0576
 IR Inten    --      8.6281                12.1673                22.0875

                     55                     56                     57
                      A                      A                      A
 Frequencies --   1271.3750              1292.9401              1299.8602
 Red. masses --      3.4939                 1.9716                 9.8982
 Frc consts  --      3.3275                 1.9419                 9.8537
 IR Inten    --    286.8850                56.9615               336.9026

                     58                     59                     60
                      A                      A                      A
 Frequencies --   1355.4803              1355.8887              1381.8915
 Red. masses --      6.7752                 2.3496                 3.5836
 Frc consts  --      7.3343                 2.5450                 4.0320
 IR Inten    --     27.5333                65.0870               404.1111

                     61                     62                     63
                      A                      A                      A
 Frequencies --   1400.8571              1408.0872              1416.5107
 Red. masses --      3.6742                 1.4170                 1.2226
 Frc consts  --      4.2482                 1.6554                 1.4454
 IR Inten    --     77.5980               165.9978                 8.7662

                     64                     65                     66
                      A                      A                      A
 Frequencies --   1427.6893              1442.9990              1484.7615
 Red. masses --      3.0507                 4.2628                 1.5191
 Frc consts  --      3.6637                 5.2297                 1.9731
 IR Inten    --    235.5165                67.6156                58.3847

                     67                     68                     69
                      A                      A                      A
 Frequencies --   1486.3617              1488.3112              1495.4855
 Red. masses --      1.2364                 1.6351                 1.1070
 Frc consts  --      1.6093                 2.1339                 1.4586
 IR Inten    --      1.8259                67.4256                 0.9457

                     70                     71                     72
                      A                      A                      A
 Frequencies --   1503.3805              1504.0767              1507.8994
 Red. masses --      1.0540                 2.4436                 2.9903
 Frc consts  --      1.4036                 3.2570                 4.0060
 IR Inten    --     33.5032                27.4740                 8.1339

                     73                     74                     75
                      A                      A                      A
 Frequencies --   1602.5276              1609.5722              1619.9429
 Red. masses --      3.7781                 5.2423                 3.8587
 Frc consts  --      5.7166                 8.0020                 5.9661
 IR Inten    --     70.4074                37.3941               194.2302

                     76                     77                     78
                      A                      A                      A
 Frequencies --   1621.1723              1659.9894              1668.4924
 Red. masses --      3.9211                 8.9956                 8.2100
 Frc consts  --      6.0717                14.6047                13.4661
 IR Inten    --     55.6339               207.2263                18.8968

                     79                     80                     81
                      A                      A                      A
 Frequencies --   3024.5447              3025.6356              3074.0676
 Red. masses --      1.0458                 1.0465                 1.0937
 Frc consts  --      5.6365                 5.6445                 6.0896
 IR Inten    --     38.1146                 3.3396                21.5597

                     82                     83                     84
                      A                      A                      A
 Frequencies --   3079.9839              3148.5898              3148.9822
 Red. masses --      1.0936                 1.0966                 1.0965
 Frc consts  --      6.1121                 6.4049                 6.4064
 IR Inten    --      7.8608                 5.5173                 0.9086

                     85                     86                     87
                      A                      A                      A
 Frequencies --   3171.1706              3185.6401              3203.1456
 Red. masses --      1.0871                 1.0922                 1.0925
 Frc consts  --      6.4412                 6.5303                 6.6041
 IR Inten    --      3.5054                14.2323                 0.0841

                     88                     89                     90
                      A                      A                      A
 Frequencies --   3205.4425              3218.1219              3221.7347
 Red. masses --      1.0946                 1.0709                 1.0695
 Frc consts  --      6.6264                 6.5341                 6.5402
 IR Inten    --     10.2926               299.1100                36.1360

 - Thermochemistry -
 -------------------
 Temperature   298.150 Kelvin.  Pressure   1.00000 Atm.
 Atom     1 has atomic number  6 and mass  12.00000

 Molecular mass:   268.07356 amu.
 Principal axes and moments of inertia in atomic units:
                           1         2         3
     Eigenvalues --  2773.155376740.490209491.34057
           X            0.99124   0.12121   0.05249
           Y           -0.11277   0.98350  -0.14147
           Z           -0.06877   0.13431   0.98855
 This molecule is an asymmetric top.
 Rotational symmetry number  1.
 Warning -- assumption of classical behavior for rotation
           may cause significant error
 Rotational temperatures (Kelvin)      0.03123     0.01285     0.00913
 Rotational constants (GHZ):           0.65079     0.26775     0.19015
 Zero-point vibrational energy     638920.7 (Joules/Mol)
                                  152.70572 (Kcal/Mol)
 Warning -- explicit consideration of  26 degrees of freedom as
           vibrations may cause significant error
 Vibrational temperatures:     61.15    72.22   118.53   122.70   170.73
          (Kelvin)            183.74   227.86   230.03   273.84   326.19
                              434.73   437.27   449.16   491.23   538.19
                              562.09   579.81   590.94   617.35   632.84
                              662.81   664.40   744.81   767.08   786.44
                              792.77   935.24   948.61   976.75  1007.62
                             1028.56  1068.11  1069.57  1104.38  1120.96
                             1168.45  1216.94  1220.74  1271.16  1315.30
                             1362.37  1407.42  1441.94  1464.77  1483.57
                             1490.84  1527.72  1531.16  1565.69  1606.58
                             1617.83  1673.17  1706.36  1769.43  1829.23
                             1860.25  1870.21  1950.23  1950.82  1988.23
                             2015.52  2025.92  2038.04  2054.13  2076.15
                             2136.24  2138.54  2141.35  2151.67  2163.03
                             2164.03  2169.53  2305.68  2315.82  2330.74
                             2332.51  2388.35  2400.59  4351.65  4353.21
                             4422.90  4431.41  4530.12  4530.68  4562.61
                             4583.43  4608.61  4611.92  4630.16  4635.36

 Zero-point correction=                           0.243352 (Hartree/Particle)
 Thermal correction to Energy=                    0.259697
 Thermal correction to Enthalpy=                  0.260642
 Thermal correction to Gibbs Free Energy=         0.199482
 Sum of electronic and zero-point Energies=           -917.884242
 Sum of electronic and thermal Energies=              -917.867897
 Sum of electronic and thermal Enthalpies=            -917.866953
 Sum of electronic and thermal Free Energies=         -917.928112

                     E (Thermal)             CV                S
                      KCal/Mol        Cal/Mol-Kelvin    Cal/Mol-Kelvin
 Total                  162.963             64.256            128.721
 Electronic               0.000              0.000              0.000
 Translational            0.889              2.981             42.657
 Rotational               0.889              2.981             33.539
 Vibrational            161.185             58.295             52.524
 Vibration     1          0.595              1.980              5.139
 Vibration     2          0.595              1.978              4.810
 Vibration     3          0.600              1.961              3.833
 Vibration     4          0.601              1.959              3.765
 Vibration     5          0.609              1.934              3.122
 Vibration     6          0.611              1.925              2.980
 Vibration     7          0.621              1.893              2.569
 Vibration     8          0.622              1.892              2.551
 Vibration     9          0.634              1.853              2.225
 Vibration    10          0.650              1.800              1.905
 Vibration    11          0.694              1.670              1.405
 Vibration    12          0.695              1.666              1.395
 Vibration    13          0.701              1.650              1.351
 Vibration    14          0.721              1.593              1.206
 Vibration    15          0.745              1.525              1.063
 Vibration    16          0.758              1.490              0.998
 Vibration    17          0.768              1.464              0.952
 Vibration    18          0.775              1.447              0.924
 Vibration    19          0.790              1.407              0.862
 Vibration    20          0.800              1.383              0.827
 Vibration    21          0.818              1.337              0.764
 Vibration    22          0.820              1.335              0.761
 Vibration    23          0.873              1.211              0.615
 Vibration    24          0.888              1.177              0.580
 Vibration    25          0.902              1.147              0.551
 Vibration    26          0.906              1.137              0.542

 Optimization completed.
    -- Stationary point found.
 Normal termination of Gaussian 16 at Tue Jan 16 00:09:02 2024.
