 Q-Chem 5.4, Q-Chem, Inc., Pleasanton, CA (2021)
 Q-Chem 5.4.0 for Intel X86 EM64T Linux

User input:
--------------------------------------------------------------
$molecule
-2 1
C                 -1.7712170000      2.7400560000     -0.8177360000
C                 -2.8779010000      1.9345400000     -0.6288520000
C                 -2.7004430000      0.6002000000     -0.1793580000
C                 -0.4483310000      2.2870010000     -0.5969310000
C                 -0.2637620000      0.9021490000     -0.1971580000
C                 -1.4202650000      0.1150230000      0.0286740000
C                  0.6536400000      3.2206890000     -0.7939250000
C                  2.0302010000      2.6795370000     -0.5760320000
C                  2.1351190000      1.2914860000     -0.2006090000
C                  1.0705510000      0.4185170000     -0.0220760000
O                  0.4570540000      4.4195290000     -1.1441340000
O                  3.0606990000      3.3950290000     -0.7307140000
H                 -1.8752470000      3.7705130000     -1.1431930000
H                 -3.8785330000      2.3228300000     -0.8076150000
H                 -3.5595820000     -0.0405320000      0.0049460000
H                 -1.3177470000     -0.9024820000      0.3979820000
H                  3.1549890000      0.9394340000     -0.0804180000
N                  1.2602600000     -0.9226520000      0.4150460000
C                  2.5378340000     -1.5917160000      0.2329170000
C                  2.4904300000     -3.0180150000      0.7831770000
H                  0.5046910000     -1.5158440000      0.1041740000
H                  3.3084370000     -1.0224480000      0.7571280000
H                  2.8448080000     -1.6222930000     -0.8313600000
H                  2.2445350000     -3.0248020000      1.8497040000
H                  3.4530290000     -3.5234520000      0.6493000000
H                  1.7402620000     -3.6286180000      0.2654130000
$end

$rem
BASIS  =  6-311++G(d,p)
GUI  =  2
JOB_TYPE  =  SP
METHOD  =  B3LYP
SCF_CONVERGENCE  = 8
SOLVENT_METHOD = sm12
$end

$smx
solvent dimethylformamide
charges CM5
$end

--------------------------------------------------------------

             Standard Nuclear Orientation (Angstroms)
    I     Atom           X                Y                Z
 ----------------------------------------------------------------
    1      C      -1.7712170000     2.7400560000    -0.8177360000
    2      C      -2.8779010000     1.9345400000    -0.6288520000
    3      C      -2.7004430000     0.6002000000    -0.1793580000
    4      C      -0.4483310000     2.2870010000    -0.5969310000
    5      C      -0.2637620000     0.9021490000    -0.1971580000
    6      C      -1.4202650000     0.1150230000     0.0286740000
    7      C       0.6536400000     3.2206890000    -0.7939250000
    8      C       2.0302010000     2.6795370000    -0.5760320000
    9      C       2.1351190000     1.2914860000    -0.2006090000
   10      C       1.0705510000     0.4185170000    -0.0220760000
   11      O       0.4570540000     4.4195290000    -1.1441340000
   12      O       3.0606990000     3.3950290000    -0.7307140000
   13      H      -1.8752470000     3.7705130000    -1.1431930000
   14      H      -3.8785330000     2.3228300000    -0.8076150000
   15      H      -3.5595820000    -0.0405320000     0.0049460000
   16      H      -1.3177470000    -0.9024820000     0.3979820000
   17      H       3.1549890000     0.9394340000    -0.0804180000
   18      N       1.2602600000    -0.9226520000     0.4150460000
   19      C       2.5378340000    -1.5917160000     0.2329170000
   20      C       2.4904300000    -3.0180150000     0.7831770000
   21      H       0.5046910000    -1.5158440000     0.1041740000
   22      H       3.3084370000    -1.0224480000     0.7571280000
   23      H       2.8448080000    -1.6222930000    -0.8313600000
   24      H       2.2445350000    -3.0248020000     1.8497040000
   25      H       3.4530290000    -3.5234520000     0.6493000000
   26      H       1.7402620000    -3.6286180000     0.2654130000
 ----------------------------------------------------------------

   19    -669.2110475026      8.25e-09  Convergence criterion met
 Total energy in the final basis set =     -669.5186181813

                    Orbital Energies (a.u.)
 --------------------------------------------------------------

 Alpha MOs
 -- Occupied --
-19.0263 -19.0214 -14.3160 -10.2053 -10.1857 -10.1813 -10.1786 -10.1747
-10.1713 -10.1707 -10.1699 -10.1663 -10.1589 -10.1451 -10.1388  -0.9577
 -0.9310  -0.9256  -0.8451  -0.7869  -0.7506  -0.7377  -0.7109  -0.6549
 -0.6247  -0.6039  -0.5836  -0.5523  -0.5148  -0.4901  -0.4836  -0.4695
 -0.4460  -0.4345  -0.4219  -0.4154  -0.4001  -0.3947  -0.3837  -0.3757
 -0.3689  -0.3659  -0.3551  -0.3445  -0.3356  -0.3269  -0.3170  -0.2881
 -0.2507  -0.2404  -0.2108  -0.1975  -0.1821  -0.1136

          Ground-State Mulliken Net Atomic Charges

     Atom                 Charge (a.u.)
  ----------------------------------------
      1 C                    -1.001571
      2 C                     1.224536
      3 C                     1.763303
      4 C                    -2.251279
      5 C                    -0.342262
      6 C                     1.148582
      7 C                    -1.969565
      8 C                    -2.177377
      9 C                    -1.450407
     10 C                     0.150580
     11 O                    -0.392934
     12 O                    -0.389759
     13 H                     0.024176
     14 H                     0.327724
     15 H                     0.403108
     16 H                     0.301146
     17 H                    -0.070156
     18 N                     0.423391
     19 C                     0.046903
     20 C                     0.888144
     21 H                     0.386698
     22 H                     0.171479
     23 H                     0.063011
     24 H                     0.203654
     25 H                     0.331293
     26 H                     0.187583
  ----------------------------------------
  Sum of atomic charges =    -2.000000

                    Cartesian Multipole Moments
 -----------------------------------------------------------------
    Charge (ESU x 10^10)
                -9.6064
    Dipole Moment (Debye)
         X      -7.0260      Y     -27.9167      Z       6.0473
       Tot      29.4156
    Quadrupole Moments (Debye-Ang)
        XX    -144.3611     XY     -33.0154     YY    -200.4332
        XZ       6.1603     YZ      25.1378     ZZ    -110.5912

 Total job time:  587.24s(wall), 4237.62s(cpu)
        *  Thank you very much for using Q-Chem.  Have a nice day.  *
