 Gaussian 16, Revision A.03,
 Gaussian 16:  ES64L-G16RevA.03 25-Dec-2016

 --------------------------------------
 #P UB3LYP/6-311++G(d,p) nosym opt freq
 --------------------------------------

 --------
 Oxidized
 --------
 Symbolic Z-matrix:
 Charge = -1 Multiplicity = 1

 SCF Done:  E(UB3LYP) =  -1312.24498748     A.U. after   24 cycles
 SCF Done:  E(UB3LYP) =  -1312.28915961     A.U. after   18 cycles
 SCF Done:  E(UB3LYP) =  -1312.31041292     A.U. after   16 cycles
 SCF Done:  E(UB3LYP) =  -1312.31616179     A.U. after   15 cycles
 SCF Done:  E(UB3LYP) =  -1312.31677237     A.U. after   15 cycles
 SCF Done:  E(UB3LYP) =  -1312.31691382     A.U. after   13 cycles
 SCF Done:  E(UB3LYP) =  -1312.31695724     A.U. after   13 cycles
 SCF Done:  E(UB3LYP) =  -1312.31696842     A.U. after   11 cycles
 SCF Done:  E(UB3LYP) =  -1312.31697684     A.U. after   11 cycles
 SCF Done:  E(UB3LYP) =  -1312.31697910     A.U. after   12 cycles
 SCF Done:  E(UB3LYP) =  -1312.31781693     A.U. after   17 cycles
 SCF Done:  E(UB3LYP) =  -1312.26548827     A.U. after   17 cycles
 SCF Done:  E(UB3LYP) =  -1312.31790913     A.U. after   15 cycles
 SCF Done:  E(UB3LYP) =  -1312.31797456     A.U. after   15 cycles
 SCF Done:  E(UB3LYP) =  -1312.31799155     A.U. after   13 cycles
 SCF Done:  E(UB3LYP) =  -1312.31800228     A.U. after   13 cycles
 SCF Done:  E(UB3LYP) =  -1312.31800574     A.U. after   13 cycles
 SCF Done:  E(UB3LYP) =  -1312.31800728     A.U. after   12 cycles
 SCF Done:  E(UB3LYP) =  -1312.31800737     A.U. after   12 cycles
 Optimization completed.
    -- Stationary point found.
 Normal termination of Gaussian 16 at Fri Dec 22 02:30:53 2023.

 ----------------------------------------------------------------------
 #P Geom=AllCheck Guess=TCheck SCRF=Check GenChk UB3LYP/6-311++G(d,p) F
 req
 ----------------------------------------------------------------------

 Structure from the checkpoint file:  "222.chk"
 --------
 Oxidized
 --------
 Charge = -1 Multiplicity = 1

                          Input orientation:
 ---------------------------------------------------------------------
 Center     Atomic      Atomic             Coordinates (Angstroms)
 Number     Number       Type             X           Y           Z
 ---------------------------------------------------------------------
      1          8           0       -1.748318   -2.738890   -1.465859
      2         16           0       -2.829354   -2.315386   -0.549259
      3          8           0       -2.969910   -3.092002    0.699129
      4          8           0       -4.122875   -2.045407   -1.231924
      5          6           0       -2.323109   -0.600181   -0.015294
      6          6           0       -3.354748    0.340376    0.008027
      7          6           0       -3.109733    1.684881    0.279632
      8          6           0       -1.809002    2.125780    0.472904
      9          6           0       -0.753153    1.210246    0.434686
     10          6           0        0.629807    1.756430    0.531750
     11          8           0        0.844491    2.938654    0.772228
     12          6           0        1.757168    0.819467    0.261698
     13          6           0        3.058054    1.312808    0.108068
     14          6           0        4.104937    0.438522   -0.154613
     15          6           0        3.862250   -0.936832   -0.245433
     16          6           0        2.576989   -1.434353   -0.065441
     17          6           0        1.516576   -0.557050    0.176888
     18          6           0        0.142534   -1.115103    0.416445
     19          8           0        0.021683   -2.257541    0.800222
     20          6           0       -1.007592   -0.172284    0.247340
     21          1           0       -4.351984   -0.011585   -0.225947
     22          1           0       -3.934219    2.390152    0.303191
     23          1           0       -1.578559    3.171410    0.634650
     24          1           0        3.219647    2.380381    0.196475
     25          1           0        5.111258    0.821351   -0.287371
     26          1           0        4.680729   -1.617919   -0.453258
     27          1           0        2.366433   -2.495926   -0.111075
 ---------------------------------------------------------------------

 SCF Done:  E(UB3LYP) =  -1312.31800737     A.U. after    2 cycles

 Alpha  occ. eigenvalues --  -88.89885 -19.03175 -19.01770 -18.93935 -18.93914
 Alpha  occ. eigenvalues --  -18.93814 -10.18440 -10.17039 -10.11629 -10.11576
 Alpha  occ. eigenvalues --  -10.11572 -10.11439 -10.11232 -10.10798 -10.10711
 Alpha  occ. eigenvalues --  -10.10537 -10.09718 -10.09512 -10.09453 -10.08605
 Alpha  occ. eigenvalues --   -7.95694  -5.91972  -5.91932  -5.91914  -0.96455
 Alpha  occ. eigenvalues --   -0.96085  -0.95281  -0.82423  -0.82138  -0.80087
 Alpha  occ. eigenvalues --   -0.77999  -0.71632  -0.68925  -0.67279  -0.67195
 Alpha  occ. eigenvalues --   -0.59040  -0.57323  -0.54551  -0.52564  -0.49638
 Alpha  occ. eigenvalues --   -0.46476  -0.46343  -0.42851  -0.40653  -0.39494
 Alpha  occ. eigenvalues --   -0.39065  -0.38437  -0.36390  -0.35590  -0.35154
 Alpha  occ. eigenvalues --   -0.34764  -0.34531  -0.33582  -0.31132  -0.30452
 Alpha  occ. eigenvalues --   -0.30189  -0.29575  -0.29397  -0.28866  -0.27957
 Alpha  occ. eigenvalues --   -0.27226  -0.26524  -0.19529  -0.19153  -0.18855
 Alpha  occ. eigenvalues --   -0.18297  -0.18130  -0.17809  -0.17229  -0.16193
 Alpha  occ. eigenvalues --   -0.14845  -0.14004  -0.13260  -0.10020
 Alpha virt. eigenvalues --   -0.01244   0.02453   0.05680   0.06037   0.06873
 Alpha virt. eigenvalues --    0.07617   0.08013   0.09409   0.10869   0.11864
 Alpha virt. eigenvalues --    0.12120   0.12457   0.12772   0.13152   0.13410

  Beta  occ. eigenvalues --  -88.89885 -19.03175 -19.01770 -18.93935 -18.93914
  Beta  occ. eigenvalues --  -18.93814 -10.18440 -10.17039 -10.11629 -10.11576
  Beta  occ. eigenvalues --  -10.11572 -10.11439 -10.11232 -10.10798 -10.10711
  Beta  occ. eigenvalues --  -10.10537 -10.09718 -10.09512 -10.09453 -10.08605
  Beta  occ. eigenvalues --   -7.95694  -5.91972  -5.91932  -5.91914  -0.96455
  Beta  occ. eigenvalues --   -0.96085  -0.95281  -0.82423  -0.82138  -0.80087
  Beta  occ. eigenvalues --   -0.77999  -0.71632  -0.68925  -0.67279  -0.67195
  Beta  occ. eigenvalues --   -0.59040  -0.57323  -0.54551  -0.52564  -0.49638
  Beta  occ. eigenvalues --   -0.46476  -0.46343  -0.42851  -0.40653  -0.39494
  Beta  occ. eigenvalues --   -0.39065  -0.38437  -0.36390  -0.35590  -0.35154
  Beta  occ. eigenvalues --   -0.34764  -0.34531  -0.33582  -0.31132  -0.30452
  Beta  occ. eigenvalues --   -0.30189  -0.29575  -0.29397  -0.28866  -0.27957
  Beta  occ. eigenvalues --   -0.27226  -0.26524  -0.19529  -0.19153  -0.18855
  Beta  occ. eigenvalues --   -0.18297  -0.18130  -0.17809  -0.17229  -0.16193
  Beta  occ. eigenvalues --   -0.14845  -0.14004  -0.13260  -0.10020
  Beta virt. eigenvalues --   -0.01244   0.02453   0.05680   0.06037   0.06873
  Beta virt. eigenvalues --    0.07617   0.08013   0.09409   0.10869   0.11864
  Beta virt. eigenvalues --    0.12120   0.12457   0.12772   0.13152   0.13410

 Mulliken charges and spin densities:
               1          2
     1  O   -0.319169   0.000000
     2  S    0.365914   0.000000
     3  O   -0.252168   0.000000
     4  O   -0.297620   0.000000
     5  C   -1.017671  -0.000000
     6  C    0.398505   0.000000
     7  C   -0.391438  -0.000000
     8  C   -0.350067  -0.000000
     9  C    0.912098   0.000000
    10  C   -0.404010   0.000000
    11  O   -0.248053   0.000000
    12  C    0.425464  -0.000000
    13  C    0.260044   0.000000
    14  C   -0.404267  -0.000000
    15  C   -0.365445   0.000000
    16  C    0.048440   0.000000
    17  C    0.241065   0.000000
    18  C   -1.037608  -0.000000
    19  O   -0.124512   0.000000
    20  C    0.320406  -0.000000
    21  H    0.241615   0.000000
    22  H    0.155673  -0.000000
    23  H    0.160919  -0.000000
    24  H    0.175351  -0.000000
    25  H    0.148487  -0.000000
    26  H    0.160835  -0.000000
    27  H    0.197212   0.000000
 Sum of Mulliken charges =  -1.00000  -0.00000

 Dipole moment (field-independent basis, Debye):
    X=             11.4698    Y=             10.2912    Z=              1.3005  Tot=             15.4647
 Quadrupole moment (field-independent basis, Debye-Ang):
   XX=           -155.2802   YY=           -169.6306   ZZ=           -136.7494
   XY=            -40.2380   XZ=            -10.5337   YZ=             -6.4973

  Exact polarizability: 281.319   6.729 230.531  -0.816  14.514 116.603
 Approx polarizability: 414.125   6.062 417.360  -3.973  18.600 195.282

                      1                      2                      3
                      A                      A                      A
 Frequencies --     27.1087                46.4349                68.2572
 Red. masses --     10.3927                 7.8685                11.3727
 Frc consts  --      0.0045                 0.0100                 0.0312
 IR Inten    --      1.2340                 6.9654                 0.6445

                      4                      5                      6
                      A                      A                      A
 Frequencies --    107.1445               132.2211               149.4479
 Red. masses --      4.8978                 8.4764                 7.1833
 Frc consts  --      0.0331                 0.0873                 0.0945
 IR Inten    --      1.3357                 1.7409                 0.7079

                      7                      8                      9
                      A                      A                      A
 Frequencies --    150.1305               198.6787               219.7608
 Red. masses --      8.9448                 7.4273                 6.4278
 Frc consts  --      0.1188                 0.1727                 0.1829
 IR Inten    --      1.1291                 0.1527                 0.2977

                     10                     11                     12
                      A                      A                      A
 Frequencies --    256.8432               271.3341               302.8230
 Red. masses --     10.0104                 7.4646                 7.3182
 Frc consts  --      0.3891                 0.3238                 0.3954
 IR Inten    --      1.5926                 0.2988                 1.1603

                     13                     14                     15
                      A                      A                      A
 Frequencies --    335.7463               380.6193               386.2062
 Red. masses --      6.4682                 8.1094                 7.8997
 Frc consts  --      0.4296                 0.6922                 0.6942
 IR Inten    --      0.5555                 4.3279                17.8869

                     16                     17                     18
                      A                      A                      A
 Frequencies --    416.8494               430.8439               436.9462
 Red. masses --      5.6517                 4.4055                 7.2466
 Frc consts  --      0.5786                 0.4818                 0.8152
 IR Inten    --      1.4171                 0.9740                 4.9592

                     19                     20                     21
                      A                      A                      A
 Frequencies --    481.0268               492.7656               501.1299
 Red. masses --      8.9524                 7.2288                 5.3332
 Frc consts  --      1.2205                 1.0342                 0.7891
 IR Inten    --      4.8642                 2.6473                 3.7199

                     22                     23                     24
                      A                      A                      A
 Frequencies --    519.1916               562.6188               597.9204
 Red. masses --     12.5844                 6.8086                16.2850
 Frc consts  --      1.9987                 1.2698                 3.4302
 IR Inten    --      7.7827                18.5451               191.2726

                     25                     26                     27
                      A                      A                      A
 Frequencies --    622.6445               660.6366               682.9678
 Red. masses --      5.4686                 6.9469                 5.4244
 Frc consts  --      1.2491                 1.7863                 1.4907
 IR Inten    --      5.5265                15.4584                 8.2035

                     28                     29                     30
                      A                      A                      A
 Frequencies --    689.6334               722.8735               745.6411
 Red. masses --      6.3511                 2.3521                 3.5053
 Frc consts  --      1.7797                 0.7242                 1.1482
 IR Inten    --      0.1173                65.4210                 8.4225

                     31                     32                     33
                      A                      A                      A
 Frequencies --    747.7788               792.0853               812.2922
 Red. masses --      6.6207                 1.5917                 3.5367
 Frc consts  --      2.1812                 0.5884                 1.3749
 IR Inten    --      8.9816                 0.8956                15.6712

                     34                     35                     36
                      A                      A                      A
 Frequencies --    819.8624               842.2157               906.8656
 Red. masses --      3.1711                 3.1307                 1.5375
 Frc consts  --      1.2559                 1.3084                 0.7450
 IR Inten    --     15.1860                 5.3886                 0.9543

                     37                     38                     39
                      A                      A                      A
 Frequencies --    926.8795               960.8800               961.8828
 Red. masses --      6.4626                 1.4930                 5.2945
 Frc consts  --      3.2712                 0.8122                 2.8862
 IR Inten    --     20.3546                 4.3729                74.4123

                     40                     41                     42
                      A                      A                      A
 Frequencies --    980.0240               989.0078              1002.4820
 Red. masses --     12.0331                 1.4046                 1.3121
 Frc consts  --      6.8093                 0.8095                 0.7769
 IR Inten    --    198.0748                 5.1026                 0.3222

                     43                     44                     45
                      A                      A                      A
 Frequencies --   1004.6179              1052.2506              1088.5549
 Red. masses --      1.3405                 2.1004                 2.1415
 Frc consts  --      0.7971                 1.3702                 1.4951
 IR Inten    --      2.8553                 1.4219                11.7022

                     46                     47                     48
                      A                      A                      A
 Frequencies --   1109.3047              1142.8554              1162.2909
 Red. masses --      2.2739                 3.2617                 6.4168
 Frc consts  --      1.6486                 2.5100                 5.1074
 IR Inten    --      0.1972                 4.7553               181.5634

                     49                     50                     51
                      A                      A                      A
 Frequencies --   1172.3988              1178.2930              1193.5011
 Red. masses --      1.6964                 1.4114                 1.7963
 Frc consts  --      1.3738                 1.1546                 1.5076
 IR Inten    --     36.5130                20.2028                 3.9068

                     52                     53                     54
                      A                      A                      A
 Frequencies --   1195.6108              1205.5152              1256.6098
 Red. masses --     19.4401                 1.7208                 2.1654
 Frc consts  --     16.3730                 1.4735                 2.0146
 IR Inten    --    278.4609                22.3194                59.6771

                     55                     56                     57
                      A                      A                      A
 Frequencies --   1286.5360              1317.3637              1340.3148
 Red. masses --      3.1412                 2.6734                 8.1213
 Frc consts  --      3.0633                 2.7335                 8.5958
 IR Inten    --    373.6542               136.5772                42.4502

                     58                     59                     60
                      A                      A                      A
 Frequencies --   1355.1463              1436.4533              1465.8874
 Red. masses --      7.9059                 3.6055                 2.3020
 Frc consts  --      8.5540                 4.3833                 2.9144
 IR Inten    --      1.4463                 5.2875                 1.8674

                     61                     62                     63
                      A                      A                      A
 Frequencies --   1479.7861              1503.3197              1587.4041
 Red. masses --      2.4630                 2.5662                 6.1199
 Frc consts  --      3.1777                 3.4170                 9.0859
 IR Inten    --      2.7942                 1.2636                 1.0521

                     64                     65                     66
                      A                      A                      A
 Frequencies --   1604.6524              1617.0293              1632.7032
 Red. masses --      5.8184                 7.2253                 5.9376
 Frc consts  --      8.8271                11.1313                 9.3256
 IR Inten    --     86.8318                 1.1191                33.2531

                     67                     68                     69
                      A                      A                      A
 Frequencies --   1702.9050              1753.2256              3155.9130
 Red. masses --     12.0145                12.8907                 1.0861
 Frc consts  --     20.5275                23.3454                 6.3734
 IR Inten    --    199.8202               146.4267                 6.5579

                     70                     71                     72
                      A                      A                      A
 Frequencies --   3157.5482              3172.6478              3193.3361
 Red. masses --      1.0883                 1.0920                 1.0926
 Frc consts  --      6.3928                 6.4760                 6.5647
 IR Inten    --     25.5204                28.5278                 9.8355

                     73                     74                     75
                      A                      A                      A
 Frequencies --   3194.8951              3197.1712              3197.9883
 Red. masses --      1.0902                 1.0938                 1.0936
 Frc consts  --      6.5567                 6.5878                 6.5897
 IR Inten    --      2.2883                15.6339                 8.8560

 - Thermochemistry -
 -------------------
 Temperature   298.150 Kelvin.  Pressure   1.00000 Atm.
 Atom     1 has atomic number  8 and mass  15.99491

 Molecular mass:   287.00142 amu.
 Principal axes and moments of inertia in atomic units:
                           1         2         3
     Eigenvalues --  3097.298467268.656609791.45883
           X            0.91786  -0.39602  -0.02652
           Y            0.38622   0.90656  -0.17026
           Z            0.09147   0.14603   0.98504
 This molecule is an asymmetric top.
 Rotational symmetry number  1.
 Warning -- assumption of classical behavior for rotation
           may cause significant error
 Rotational temperatures (Kelvin)      0.02796     0.01192     0.00885
 Rotational constants (GHZ):           0.58268     0.24829     0.18432
 Zero-point vibrational energy     475232.9 (Joules/Mol)
                                  113.58338 (Kcal/Mol)
 Warning -- explicit consideration of  24 degrees of freedom as
           vibrations may cause significant error
 Vibrational temperatures:     39.00    66.81    98.21   154.16   190.24
          (Kelvin)            215.02   216.00   285.85   316.19   369.54
                              390.39   435.69   483.06   547.63   555.66
                              599.75   619.89   628.67   692.09   708.98
                              721.01   747.00   809.48   860.27   895.85
                              950.51   982.64   992.23  1040.05  1072.81
                             1075.89  1139.63  1168.71  1179.60  1211.76
                             1304.78  1333.57  1382.49  1383.93  1410.04
                             1422.96  1442.35  1445.42  1513.95  1566.19
                             1596.04  1644.31  1672.28  1686.82  1695.30
                             1717.18  1720.22  1734.47  1807.98  1851.04
                             1895.39  1928.41  1949.75  2066.74  2109.09
                             2129.08  2162.94  2283.92  2308.74  2326.54
                             2349.10  2450.10  2522.50  4540.65  4543.01
                             4564.73  4594.50  4596.74  4600.02  4601.19

 Zero-point correction=                           0.181007 (Hartree/Particle)
 Thermal correction to Energy=                    0.196355
 Thermal correction to Enthalpy=                  0.197299
 Thermal correction to Gibbs Free Energy=         0.137307
 Sum of electronic and zero-point Energies=          -1312.137001
 Sum of electronic and thermal Energies=             -1312.121653
 Sum of electronic and thermal Enthalpies=           -1312.120708
 Sum of electronic and thermal Free Energies=        -1312.180701

                     E (Thermal)             CV                S
                      KCal/Mol        Cal/Mol-Kelvin    Cal/Mol-Kelvin
 Total                  123.214             59.813            126.265
 Electronic               0.000              0.000              0.000
 Translational            0.889              2.981             42.861
 Rotational               0.889              2.981             33.755
 Vibrational            121.437             53.851             49.649
 Vibration     1          0.593              1.984              6.030
 Vibration     2          0.595              1.979              4.964
 Vibration     3          0.598              1.969              4.203
 Vibration     4          0.606              1.944              3.320
 Vibration     5          0.612              1.921              2.913
 Vibration     6          0.618              1.903              2.679
 Vibration     7          0.618              1.903              2.671
 Vibration     8          0.637              1.842              2.145
 Vibration     9          0.647              1.811              1.961
 Vibration    10          0.666              1.751              1.683
 Vibration    11          0.675              1.726              1.588
 Vibration    12          0.694              1.668              1.401
 Vibration    13          0.717              1.604              1.232
 Vibration    14          0.750              1.511              1.037
 Vibration    15          0.755              1.500              1.015
 Vibration    16          0.780              1.434              0.903
 Vibration    17          0.792              1.403              0.856
 Vibration    18          0.797              1.390              0.836
 Vibration    19          0.837              1.292              0.707
 Vibration    20          0.848              1.266              0.676
 Vibration    21          0.857              1.248              0.655
 Vibration    22          0.874              1.207              0.612
 Vibration    23          0.918              1.112              0.519
 Vibration    24          0.956              1.036              0.453

 Optimization completed.
    -- Stationary point found.
 Normal termination of Gaussian 16 at Fri Dec 22 03:40:54 2023.
