 Gaussian 16, Revision A.03,
 Gaussian 16:  ES64L-G16RevA.03 25-Dec-2016

 ----------------------------------------------------------------
 #P UB3LYP/6-311++G(d,p) SCRF=(PCM,Solvent=n,n-DiMethylFormamide)
 ----------------------------------------------------------------

 ------------------
 Quinone PCM in DMF
 ------------------
 Symbolic Z-matrix:
 Charge =  0 Multiplicity = 1

                         Standard orientation:
 ---------------------------------------------------------------------
 Center     Atomic      Atomic             Coordinates (Angstroms)
 Number     Number       Type             X           Y           Z
 ---------------------------------------------------------------------
      1          6           0        2.965578   -1.477351   -0.001139
      2          6           0        1.692409   -0.678079   -0.000535
      3          6           0        1.692389    0.678124    0.000232
      4          6           0        2.965596    1.477325    0.000429
      5          6           0        0.414113    1.453418    0.000212
      6          8           0        0.425485    2.675148    0.000456
      7          6           0       -0.872059    0.700907   -0.000052
      8          6           0       -2.083132    1.397330   -0.000394
      9          6           0       -3.285952    0.698535   -0.000453
     10          6           0       -3.285916   -0.698603   -0.000128
     11          6           0       -2.083071   -1.397345    0.000203
     12          6           0       -0.872019   -0.700877    0.000205
     13          6           0        0.414138   -1.453381    0.000252
     14          8           0        0.425508   -2.675115    0.000820
     15          1           0        3.580487   -1.232416   -0.872972
     16          1           0        3.567585   -1.253323    0.885454
     17          1           0        2.746739   -2.543248   -0.014332
     18          1           0        2.746880    2.543273    0.011897
     19          1           0        3.568231    1.251796   -0.885340
     20          1           0        3.579842    1.233753    0.873125
     21          1           0       -2.060097    2.480018   -0.000568
     22          1           0       -4.225074    1.240116   -0.000746
     23          1           0       -4.225016   -1.240224   -0.000131
     24          1           0       -2.059974   -2.480032    0.000410
 ---------------------------------------------------------------------

 SCF Done:  E(UB3LYP) =  -613.926110575     A.U. after   14 cycles

 The electronic state is 1-A.
 Alpha  occ. eigenvalues --  -19.13428 -19.13427 -10.28244 -10.28243 -10.21343
 Alpha  occ. eigenvalues --  -10.21271 -10.20748 -10.20696 -10.19860 -10.19824
 Alpha  occ. eigenvalues --  -10.19784 -10.19767 -10.17351 -10.17351  -1.06849
 Alpha  occ. eigenvalues --   -1.06668  -0.89080  -0.85224  -0.78927  -0.77848
 Alpha  occ. eigenvalues --   -0.74957  -0.70227  -0.67853  -0.63315  -0.61401
 Alpha  occ. eigenvalues --   -0.58542  -0.55089  -0.52042  -0.50111  -0.47526
 Alpha  occ. eigenvalues --   -0.46553  -0.46151  -0.45685  -0.45222  -0.42615
 Alpha  occ. eigenvalues --   -0.42604  -0.41972  -0.41446  -0.40037  -0.39848
 Alpha  occ. eigenvalues --   -0.38861  -0.37819  -0.37126  -0.36866  -0.29135
 Alpha  occ. eigenvalues --   -0.29107  -0.27919  -0.27447  -0.27253
 Alpha virt. eigenvalues --   -0.12401  -0.05612  -0.03118  -0.00907   0.00101
 Alpha virt. eigenvalues --    0.01113   0.02303   0.02329   0.02430   0.03328
 Alpha virt. eigenvalues --    0.03605   0.04835   0.05073   0.05215   0.05581

  Beta  occ. eigenvalues --  -19.13428 -19.13427 -10.28244 -10.28243 -10.21343
  Beta  occ. eigenvalues --  -10.21271 -10.20748 -10.20696 -10.19860 -10.19824
  Beta  occ. eigenvalues --  -10.19784 -10.19767 -10.17351 -10.17351  -1.06849
  Beta  occ. eigenvalues --   -1.06668  -0.89080  -0.85224  -0.78927  -0.77848
  Beta  occ. eigenvalues --   -0.74957  -0.70227  -0.67853  -0.63315  -0.61401
  Beta  occ. eigenvalues --   -0.58542  -0.55089  -0.52042  -0.50111  -0.47526
  Beta  occ. eigenvalues --   -0.46553  -0.46151  -0.45685  -0.45222  -0.42615
  Beta  occ. eigenvalues --   -0.42604  -0.41972  -0.41446  -0.40037  -0.39848
  Beta  occ. eigenvalues --   -0.38861  -0.37819  -0.37126  -0.36866  -0.29135
  Beta  occ. eigenvalues --   -0.29107  -0.27919  -0.27447  -0.27253
  Beta virt. eigenvalues --   -0.12401  -0.05612  -0.03118  -0.00907   0.00101
  Beta virt. eigenvalues --    0.01113   0.02303   0.02329   0.02430   0.03328
  Beta virt. eigenvalues --    0.03605   0.04835   0.05073   0.05215   0.05581

 Mulliken charges and spin densities:
               1          2
     1  C   -0.416687  -0.000000
     2  C    0.901936  -0.000000
     3  C    0.902272   0.000000
     4  C   -0.416873   0.000000
     5  C   -1.211532  -0.000000
     6  O   -0.280596   0.000000
     7  C    0.541956   0.000000
     8  C   -0.039470  -0.000000
     9  C   -0.440368   0.000000
    10  C   -0.440445   0.000000
    11  C   -0.039377  -0.000000
    12  C    0.541238   0.000000
    13  C   -1.211322   0.000000
    14  O   -0.280598  -0.000000
    15  H    0.174990  -0.000000
    16  H    0.177521  -0.000000
    17  H    0.197057   0.000000
    18  H    0.197049   0.000000
    19  H    0.177329   0.000000
    20  H    0.175186   0.000000
    21  H    0.188051  -0.000000
    22  H    0.207315   0.000000
    23  H    0.207310   0.000000
    24  H    0.188058  -0.000000
 Sum of Mulliken charges =  -0.00000  -0.00000

 Dipole moment (field-independent basis, Debye):
    X=             -0.4871    Y=             -0.0000    Z=             -0.0024  Tot=              0.4871
 Quadrupole moment (field-independent basis, Debye-Ang):
   XX=            -59.8244   YY=            -98.4561   ZZ=            -82.6718
   XY=             -0.0001   XZ=              0.0009   YZ=             -0.0040

 Normal termination of Gaussian 16 at Sun Jan 21 07:53:34 2024.
