 Gaussian 16, Revision A.03,
 Gaussian 16:  ES64L-G16RevA.03 25-Dec-2016

 --------------------------------------
 #P UB3LYP/6-311++G(d,p) nosym opt freq
 --------------------------------------

 --------
 Oxidized
 --------
 Symbolic Z-matrix:
 Charge =  0 Multiplicity = 1

 SCF Done:  E(UB3LYP) =  -613.918008763     A.U. after   15 cycles
 Optimization completed.
    -- Stationary point found.
 Normal termination of Gaussian 16 at Sun Jan  7 20:15:10 2024.

 ----------------------------------------------------------------------
 #P Geom=AllCheck Guess=TCheck SCRF=Check GenChk UB3LYP/6-311++G(d,p) F
 req
 ----------------------------------------------------------------------

 Structure from the checkpoint file:  "241.chk"
 --------
 Oxidized
 --------
 Charge =  0 Multiplicity = 1

                          Input orientation:
 ---------------------------------------------------------------------
 Center     Atomic      Atomic             Coordinates (Angstroms)
 Number     Number       Type             X           Y           Z
 ---------------------------------------------------------------------
      1          6           0       -2.434647    1.920813   -0.022187
      2          6           0       -1.316215    0.916600   -0.000692
      3          6           0       -1.543749   -0.413332    0.136403
      4          6           0       -2.930428   -0.976628    0.276393
      5          6           0       -0.416308   -1.394971    0.154629
      6          8           0       -0.632515   -2.591104    0.278218
      7          6           0        0.975286   -0.879715    0.018661
      8          6           0        2.049829   -1.772400    0.031777
      9          6           0        3.350421   -1.295372   -0.094696
     10          6           0        3.584878    0.074807   -0.234819
     11          6           0        2.518818    0.968342   -0.248564
     12          6           0        1.210515    0.495015   -0.121997
     13          6           0        0.071498    1.455671   -0.137538
     14          8           0        0.265383    2.655820   -0.259258
     15          1           0       -3.135792    1.707689   -0.835312
     16          1           0       -3.008460    1.886079    0.909575
     17          1           0       -2.041307    2.927024   -0.152668
     18          1           0       -2.893423   -2.058804    0.384732
     19          1           0       -3.541425   -0.731772   -0.598449
     20          1           0       -3.438686   -0.551943    1.147909
     21          1           0        1.845457   -2.830197    0.141518
     22          1           0        4.183411   -1.989117   -0.084398
     23          1           0        4.599651    0.443365   -0.333122
     24          1           0        2.677808    2.034127   -0.356117
 ---------------------------------------------------------------------

 SCF Done:  E(UB3LYP) =  -613.918008763     A.U. after    1 cycles

 Alpha  occ. eigenvalues --  -19.12951 -19.12951 -10.27844 -10.27843 -10.21450
 Alpha  occ. eigenvalues --  -10.21378 -10.20759 -10.20707 -10.20184 -10.20131
 Alpha  occ. eigenvalues --  -10.19892 -10.19891 -10.17847 -10.17846  -1.06324
 Alpha  occ. eigenvalues --   -1.06129  -0.89139  -0.85401  -0.79125  -0.77906
 Alpha  occ. eigenvalues --   -0.75243  -0.70538  -0.67878  -0.63532  -0.61554
 Alpha  occ. eigenvalues --   -0.58524  -0.55101  -0.52205  -0.49899  -0.47835
 Alpha  occ. eigenvalues --   -0.46696  -0.45528  -0.45502  -0.45184  -0.42814
 Alpha  occ. eigenvalues --   -0.42560  -0.42229  -0.41657  -0.40217  -0.40196
 Alpha  occ. eigenvalues --   -0.39076  -0.37759  -0.37347  -0.36959  -0.29043
 Alpha  occ. eigenvalues --   -0.28550  -0.27928  -0.27509  -0.27013
 Alpha virt. eigenvalues --   -0.12154  -0.05627  -0.03341  -0.01332  -0.00662
 Alpha virt. eigenvalues --    0.01203   0.01967   0.01990   0.02123   0.03130
 Alpha virt. eigenvalues --    0.03652   0.04808   0.04819   0.05035   0.05629

  Beta  occ. eigenvalues --  -19.12951 -19.12951 -10.27844 -10.27843 -10.21450
  Beta  occ. eigenvalues --  -10.21378 -10.20759 -10.20707 -10.20184 -10.20131
  Beta  occ. eigenvalues --  -10.19892 -10.19891 -10.17847 -10.17846  -1.06324
  Beta  occ. eigenvalues --   -1.06129  -0.89139  -0.85401  -0.79125  -0.77906
  Beta  occ. eigenvalues --   -0.75243  -0.70538  -0.67878  -0.63532  -0.61554
  Beta  occ. eigenvalues --   -0.58524  -0.55101  -0.52205  -0.49899  -0.47835
  Beta  occ. eigenvalues --   -0.46696  -0.45528  -0.45502  -0.45184  -0.42814
  Beta  occ. eigenvalues --   -0.42560  -0.42229  -0.41657  -0.40217  -0.40196
  Beta  occ. eigenvalues --   -0.39076  -0.37759  -0.37347  -0.36959  -0.29043
  Beta  occ. eigenvalues --   -0.28550  -0.27928  -0.27509  -0.27013
  Beta virt. eigenvalues --   -0.12154  -0.05627  -0.03341  -0.01332  -0.00662
  Beta virt. eigenvalues --    0.01203   0.01967   0.01990   0.02123   0.03130
  Beta virt. eigenvalues --    0.03652   0.04808   0.04819   0.05035   0.05629

 Mulliken charges and spin densities:
               1          2
     1  C   -0.400934   0.000000
     2  C    0.879916  -0.000000
     3  C    0.880249  -0.000000
     4  C   -0.401053  -0.000000
     5  C   -1.275219   0.000000
     6  O   -0.221862   0.000000
     7  C    0.560681  -0.000000
     8  C   -0.059395   0.000000
     9  C   -0.376692  -0.000000
    10  C   -0.376747  -0.000000
    11  C   -0.059287   0.000000
    12  C    0.559858  -0.000000
    13  C   -1.275094   0.000000
    14  O   -0.221862  -0.000000
    15  H    0.157630   0.000000
    16  H    0.159960   0.000000
    17  H    0.212931  -0.000000
    18  H    0.212923  -0.000000
    19  H    0.159778  -0.000000
    20  H    0.157822  -0.000000
    21  H    0.186729   0.000000
    22  H    0.176468  -0.000000
    23  H    0.176467  -0.000000
    24  H    0.186733  -0.000000
 Sum of Mulliken charges =  -0.00000  -0.00000

 Dipole moment (field-independent basis, Debye):
    X=              0.3548    Y=             -0.0626    Z=             -0.0187  Tot=              0.3607
 Quadrupole moment (field-independent basis, Debye-Ang):
   XX=            -65.1662   YY=            -94.2427   ZZ=            -82.9320
   XY=             -5.2192   XZ=             -0.6471   YZ=              1.3776

  Exact polarizability: 187.546  -3.256 172.202  -6.664  -8.377  79.254
 Approx polarizability: 262.624  12.446 337.075  -9.913 -20.163 127.137

                      1                      2                      3
                      A                      A                      A
 Frequencies --     29.9760                50.4912                90.2721
 Red. masses --      1.0408                 5.6725                 1.0679
 Frc consts  --      0.0006                 0.0085                 0.0051
 IR Inten    --      0.0085                 8.5139                 0.0254

                      4                      5                      6
                      A                      A                      A
 Frequencies --    101.6390               117.3079               167.1633
 Red. masses --      3.1436                 5.0802                 5.2457
 Frc consts  --      0.0191                 0.0412                 0.0864
 IR Inten    --      0.0000                 0.0000                 0.6084

                      7                      8                      9
                      A                      A                      A
 Frequencies --    251.4474               278.3306               312.8264
 Red. masses --      4.3291                 3.6616                 2.5962
 Frc consts  --      0.1613                 0.1671                 0.1497
 IR Inten    --      0.9181                 0.0321                 0.0119

                     10                     11                     12
                      A                      A                      A
 Frequencies --    346.6663               389.6857               420.0073
 Red. masses --      4.3734                 7.9856                 6.3529
 Frc consts  --      0.3097                 0.7145                 0.6603
 IR Inten    --      0.5128                 3.7843                 0.0115

                     13                     14                     15
                      A                      A                      A
 Frequencies --    426.6745               427.5039               428.3669
 Red. masses --      7.9121                 3.2807                 4.6286
 Frc consts  --      0.8487                 0.3533                 0.5004
 IR Inten    --     27.9797                 0.4004                 0.1778

                     16                     17                     18
                      A                      A                      A
 Frequencies --    506.7089               519.9611               622.3995
 Red. masses --      9.1212                 3.5969                 5.6612
 Frc consts  --      1.3798                 0.5730                 1.2921
 IR Inten    --      0.1911                 0.0010                 3.0995

                     19                     20                     21
                      A                      A                      A
 Frequencies --    671.2243               691.0495               698.9487
 Red. masses --      6.3355                 4.4369                 4.6123
 Frc consts  --      1.6818                 1.2484                 1.3276
 IR Inten    --      2.7112                 0.0023                 0.0002

                     22                     23                     24
                      A                      A                      A
 Frequencies --    717.1641               790.8833               801.9940
 Red. masses --      2.6001                 5.7065                 1.6025
 Frc consts  --      0.7879                 2.1030                 0.6073
 IR Inten    --     61.1790                 0.0004                22.7119

                     25                     26                     27
                      A                      A                      A
 Frequencies --    816.7379               912.9796               915.1124
 Red. masses --      3.6175                 3.6719                 1.3629
 Frc consts  --      1.4218                 1.8033                 0.6724
 IR Inten    --      0.1123                26.1535                 0.0011

                     28                     29                     30
                      A                      A                      A
 Frequencies --    966.8433              1000.0997              1017.1548
 Red. masses --      4.4361                 1.3685                 1.3203
 Frc consts  --      2.4432                 0.8065                 0.8048
 IR Inten    --      1.8542                 1.4710                 0.0000

                     31                     32                     33
                      A                      A                      A
 Frequencies --   1022.5000              1022.8191              1056.8325
 Red. masses --      1.4786                 1.7374                 1.8408
 Frc consts  --      0.9108                 1.0709                 1.2114
 IR Inten    --      5.0267                71.4527                 2.8284

                     34                     35                     36
                      A                      A                      A
 Frequencies --   1057.0635              1105.2305              1130.2966
 Red. masses --      1.5794                 2.4537                 2.0423
 Frc consts  --      1.0398                 1.7660                 1.5373
 IR Inten    --      0.3501                 0.0010                 1.6998

                     37                     38                     39
                      A                      A                      A
 Frequencies --   1161.1582              1185.3481              1207.9298
 Red. masses --      2.8112                 1.2253                 2.3783
 Frc consts  --      2.2332                 1.0143                 2.0445
 IR Inten    --      9.2298                 0.6822                17.1065

                     40                     41                     42
                      A                      A                      A
 Frequencies --   1282.1392              1304.3659              1331.4941
 Red. masses --      1.8548                 6.1191                 3.1576
 Frc consts  --      1.7965                 6.1338                 3.2983
 IR Inten    --     23.3753               338.7446                19.2219

                     43                     44                     45
                      A                      A                      A
 Frequencies --   1360.4623              1401.5642              1407.5137
 Red. masses --      7.5038                 1.3172                 1.2089
 Frc consts  --      8.1828                 1.5246                 1.4111
 IR Inten    --     10.0333                15.3169                22.7045

                     46                     47                     48
                      A                      A                      A
 Frequencies --   1476.6854              1478.6063              1486.4932
 Red. masses --      1.3613                 1.0663                 1.6915
 Frc consts  --      1.7490                 1.3736                 2.2021
 IR Inten    --     22.1143                 0.2965                19.4172

                     49                     50                     51
                      A                      A                      A
 Frequencies --   1488.0147              1502.4235              1508.4146
 Red. masses --      1.0449                 1.0450                 2.6277
 Frc consts  --      1.3631                 1.3898                 3.5227
 IR Inten    --      0.0043                23.2626                 2.4323

                     52                     53                     54
                      A                      A                      A
 Frequencies --   1615.1391              1628.9907              1657.2844
 Red. masses --      6.9749                 5.8852                 9.0381
 Frc consts  --     10.7204                 9.2013                14.6258
 IR Inten    --      2.7430                68.6275                42.4866

                     55                     56                     57
                      A                      A                      A
 Frequencies --   1707.9257              1713.2022              3023.3818
 Red. masses --     12.3519                12.2260                 1.0399
 Frc consts  --     21.2286                21.1422                 5.6006
 IR Inten    --      7.5718               393.4244                32.5231

                     58                     59                     60
                      A                      A                      A
 Frequencies --   3026.4109              3065.0551              3072.2438
 Red. masses --      1.0410                 1.0990                 1.0992
 Frc consts  --      5.6177                 6.0831                 6.1129
 IR Inten    --      0.3142                23.8873                 0.0325

                     61                     62                     63
                      A                      A                      A
 Frequencies --   3141.5062              3142.0804              3169.9382
 Red. masses --      1.0966                 1.0970                 1.0870
 Frc consts  --      6.3762                 6.3810                 6.4353
 IR Inten    --      3.2409                 4.7699                 3.3986

                     64                     65                     66
                      A                      A                      A
 Frequencies --   3184.3640              3200.2054              3202.7377
 Red. masses --      1.0918                 1.0925                 1.0949
 Frc consts  --      6.5232                 6.5923                 6.6171
 IR Inten    --      9.9550                 0.4551                 9.7261

 - Thermochemistry -
 -------------------
 Temperature   298.150 Kelvin.  Pressure   1.00000 Atm.
 Atom     1 has atomic number  6 and mass  12.00000

 Molecular mass:   186.06808 amu.
 Principal axes and moments of inertia in atomic units:
                           1         2         3
     Eigenvalues --  1611.568662804.470884393.77842
           X            0.98379   0.16782   0.06320
           Y           -0.17314   0.98068   0.09106
           Z           -0.04670  -0.10053   0.99384
 This molecule is an asymmetric top.
 Rotational symmetry number  1.
 Warning -- assumption of classical behavior for rotation
           may cause significant error
 Rotational temperatures (Kelvin)      0.05375     0.03088     0.01971
 Rotational constants (GHZ):           1.11987     0.64352     0.41075
 Zero-point vibrational energy     490561.3 (Joules/Mol)
                                  117.24696 (Kcal/Mol)
 Warning -- explicit consideration of  17 degrees of freedom as
           vibrations may cause significant error
 Vibrational temperatures:     43.13    72.65   129.88   146.24   168.78
          (Kelvin)            240.51   361.78   400.46   450.09   498.78
                              560.67   604.30   613.89   615.08   616.32
                              729.04   748.11   895.49   965.74   994.27
                             1005.63  1031.84  1137.90  1153.89  1175.10
                             1313.57  1316.64  1391.07  1438.92  1463.46
                             1471.15  1471.61  1520.55  1520.88  1590.18
                             1626.24  1670.65  1705.45  1737.94  1844.71
                             1876.69  1915.72  1957.40  2016.54  2025.10
                             2124.62  2127.38  2138.73  2140.92  2161.65
                             2170.27  2323.82  2343.75  2384.46  2457.32
                             2464.92  4349.97  4354.33  4409.93  4420.27
                             4519.93  4520.75  4560.83  4581.59  4604.38
                             4608.03

 Zero-point correction=                           0.186845 (Hartree/Particle)
 Thermal correction to Energy=                    0.199163
 Thermal correction to Enthalpy=                  0.200108
 Thermal correction to Gibbs Free Energy=         0.147165
 Sum of electronic and zero-point Energies=           -613.731164
 Sum of electronic and thermal Energies=              -613.718845
 Sum of electronic and thermal Enthalpies=            -613.717901
 Sum of electronic and thermal Free Energies=         -613.770844

                     E (Thermal)             CV                S
                      KCal/Mol        Cal/Mol-Kelvin    Cal/Mol-Kelvin
 Total                  124.977             46.299            111.427
 Electronic               0.000              0.000              0.000
 Translational            0.889              2.981             41.569
 Rotational               0.889              2.981             31.363
 Vibrational            123.200             40.337             38.495
 Vibration     1          0.594              1.984              5.831
 Vibration     2          0.595              1.977              4.798
 Vibration     3          0.602              1.956              3.654
 Vibration     4          0.604              1.948              3.423
 Vibration     5          0.608              1.935              3.144
 Vibration     6          0.624              1.883              2.467
 Vibration     7          0.663              1.760              1.720
 Vibration     8          0.679              1.714              1.544
 Vibration     9          0.701              1.649              1.347
 Vibration    10          0.725              1.582              1.181
 Vibration    11          0.758              1.492              1.001
 Vibration    12          0.783              1.427              0.892
 Vibration    13          0.788              1.412              0.870
 Vibration    14          0.789              1.410              0.867
 Vibration    15          0.790              1.408              0.864
 Vibration    16          0.862              1.235              0.642
 Vibration    17          0.875              1.206              0.610

 Optimization completed.
    -- Stationary point found.
 Normal termination of Gaussian 16 at Sun Jan  7 20:49:47 2024.
