 Gaussian 16, Revision A.03,
 Gaussian 16:  ES64L-G16RevA.03 25-Dec-2016

 --------------------------------------
 #P UB3LYP/6-311++G(d,p) nosym opt freq
 --------------------------------------

 -------
 Reduced
 -------
 Symbolic Z-matrix:
 Charge = -2 Multiplicity = 1

 SCF Done:  E(UB3LYP) =  -535.417994648     A.U. after   34 cycles
 SCF Done:  E(UB3LYP) =  -535.440976733     A.U. after   31 cycles
 SCF Done:  E(UB3LYP) =  -535.447210410     A.U. after   26 cycles
 SCF Done:  E(UB3LYP) =  -535.447971820     A.U. after   24 cycles
 SCF Done:  E(UB3LYP) =  -535.448688497     A.U. after   23 cycles
 SCF Done:  E(UB3LYP) =  -535.449116434     A.U. after   23 cycles
 SCF Done:  E(UB3LYP) =  -535.449954889     A.U. after   22 cycles
 SCF Done:  E(UB3LYP) =  -535.450157835     A.U. after   20 cycles
 SCF Done:  E(UB3LYP) =  -535.450234734     A.U. after   20 cycles
 SCF Done:  E(UB3LYP) =  -535.450248059     A.U. after   19 cycles
 SCF Done:  E(UB3LYP) =  -535.450255853     A.U. after   19 cycles
 SCF Done:  E(UB3LYP) =  -535.450261620     A.U. after   19 cycles
 SCF Done:  E(UB3LYP) =  -535.450262756     A.U. after   19 cycles
 SCF Done:  E(UB3LYP) =  -535.450263317     A.U. after   18 cycles
 SCF Done:  E(UB3LYP) =  -535.450263546     A.U. after   17 cycles
 Optimization completed.
    -- Stationary point found.
 Normal termination of Gaussian 16 at Wed Dec 20 02:07:47 2023.

 ----------------------------------------------------------------------
 #P Geom=AllCheck Guess=TCheck SCRF=Check GenChk UB3LYP/6-311++G(d,p) F
 req
 ----------------------------------------------------------------------

 Structure from the checkpoint file:  "095-an.chk"
 -------
 Reduced
 -------
 Charge = -2 Multiplicity = 1

                          Input orientation:
 ---------------------------------------------------------------------
 Center     Atomic      Atomic             Coordinates (Angstroms)
 Number     Number       Type             X           Y           Z
 ---------------------------------------------------------------------
      1          6           0        2.147782    3.732890    5.623921
      2          6           0        3.023035    3.084152    4.717430
      3          6           0        2.582321    2.263262    3.675868
      4          6           0        1.196386    1.994963    3.428785
      5          6           0        0.325510    2.652510    4.358089
      6          6           0        0.753525    3.477047    5.413633
      7          8           0        2.590459    4.528479    6.596167
      8          8           0        0.774770    1.233553    2.462459
      9          6           0       -0.246303    4.222587    6.299860
     10          6           0       -1.580473    3.500654    6.524850
     11          8           0        0.292287    4.521855    7.585797
     12          1           0        4.090752    3.258895    4.859926
     13          1           0        3.306654    1.795064    3.007214
     14          1           0       -0.737441    2.473254    4.207178
     15          1           0       -0.492904    5.185179    5.793538
     16          1           0       -2.134301    3.361838    5.591784
     17          1           0       -2.194294    4.096908    7.211433
     18          1           0       -1.403168    2.518889    6.976591
     19          1           0        1.297162    4.623211    7.384485
 ---------------------------------------------------------------------

 SCF Done:  E(UB3LYP) =  -535.450263546     A.U. after    2 cycles

 Alpha  occ. eigenvalues --  -18.81419 -18.76043 -18.74103  -9.95233  -9.91510
 Alpha  occ. eigenvalues --   -9.90677  -9.90330  -9.87274  -9.86609  -9.86263
 Alpha  occ. eigenvalues --   -9.85810  -0.72299  -0.65800  -0.64894  -0.52338
 Alpha  occ. eigenvalues --   -0.48772  -0.43585  -0.38807  -0.34082  -0.29236
 Alpha  occ. eigenvalues --   -0.26769  -0.21223  -0.18825  -0.17270  -0.16809
 Alpha  occ. eigenvalues --   -0.14534  -0.12429  -0.12030  -0.10529  -0.09077
 Alpha  occ. eigenvalues --   -0.08324  -0.07206  -0.05449  -0.04741  -0.03657
 Alpha  occ. eigenvalues --    0.01217   0.04448   0.05212   0.06256   0.08232
 Alpha  occ. eigenvalues --    0.14646
 Alpha virt. eigenvalues --    0.17241   0.19843   0.20701   0.20953   0.21626
 Alpha virt. eigenvalues --    0.22700   0.23949   0.24939   0.27594   0.27838
 Alpha virt. eigenvalues --    0.28492   0.29153   0.30508   0.30657   0.31024

  Beta  occ. eigenvalues --  -18.81419 -18.76043 -18.74103  -9.95233  -9.91510
  Beta  occ. eigenvalues --   -9.90677  -9.90330  -9.87274  -9.86609  -9.86263
  Beta  occ. eigenvalues --   -9.85810  -0.72299  -0.65800  -0.64894  -0.52338
  Beta  occ. eigenvalues --   -0.48772  -0.43585  -0.38807  -0.34082  -0.29236
  Beta  occ. eigenvalues --   -0.26769  -0.21223  -0.18825  -0.17270  -0.16809
  Beta  occ. eigenvalues --   -0.14534  -0.12429  -0.12030  -0.10529  -0.09077
  Beta  occ. eigenvalues --   -0.08324  -0.07206  -0.05449  -0.04741  -0.03657
  Beta  occ. eigenvalues --    0.01217   0.04448   0.05212   0.06256   0.08232
  Beta  occ. eigenvalues --    0.14646
  Beta virt. eigenvalues --    0.17241   0.19843   0.20701   0.20953   0.21626
  Beta virt. eigenvalues --    0.22700   0.23949   0.24939   0.27594   0.27838
  Beta virt. eigenvalues --    0.28492   0.29153   0.30508   0.30657   0.31024

 Mulliken charges and spin densities:
               1          2
     1  C   -1.048932   0.000000
     2  C    0.336902  -0.000000
     3  C    0.194156   0.000000
     4  C   -0.816121  -0.000000
     5  C   -0.882386   0.000000
     6  C    2.016721   0.000000
     7  O   -0.589042   0.000000
     8  O   -0.585834   0.000000
     9  C   -0.599283  -0.000000
    10  C   -0.092947   0.000000
    11  O   -0.370984  -0.000000
    12  H    0.057102   0.000000
    13  H    0.038360   0.000000
    14  H    0.041800  -0.000000
    15  H   -0.036408  -0.000000
    16  H    0.039532  -0.000000
    17  H   -0.129223  -0.000000
    18  H    0.096429  -0.000000
    19  H    0.330159   0.000000
 Sum of Mulliken charges =  -2.00000  -0.00000

 Dipole moment (field-independent basis, Debye):
    X=            -11.2745    Y=            -29.4438    Z=            -47.6549  Tot=             57.1405
 Quadrupole moment (field-independent basis, Debye-Ang):
   XX=           -110.9369   YY=           -190.8457   ZZ=           -359.7433
   XY=            -37.5609   XZ=            -55.6405   YZ=           -177.5224

  Exact polarizability: 748.332-176.890 228.856-288.305 117.341 315.785
 Approx polarizability: 695.199-149.519 275.951-196.506 125.017 329.135

                      1                      2                      3
                      A                      A                      A
 Frequencies --     34.4499               123.9091               154.3506
 Red. masses --      4.1013                 5.3211                 5.2534
 Frc consts  --      0.0029                 0.0481                 0.0737
 IR Inten    --      1.4521                 7.6612                 4.2974

                      4                      5                      6
                      A                      A                      A
 Frequencies --    220.7075               254.7711               339.2752
 Red. masses --      3.2917                 1.2344                 6.7856
 Frc consts  --      0.0945                 0.0472                 0.4602
 IR Inten    --      1.0355                18.9674                 1.5206

                      7                      8                      9
                      A                      A                      A
 Frequencies --    356.2673               381.0208               413.1732
 Red. masses --      4.7914                 5.3448                 7.0688
 Frc consts  --      0.3583                 0.4572                 0.7110
 IR Inten    --     96.1183                32.9046                51.0216

                     10                     11                     12
                      A                      A                      A
 Frequencies --    434.3651               449.1423               483.6283
 Red. masses --      3.3511                 6.1242                 4.0967
 Frc consts  --      0.3725                 0.7279                 0.5646
 IR Inten    --      8.6837               249.8441               198.5248

                     13                     14                     15
                      A                      A                      A
 Frequencies --    531.7425               585.5459               663.1464
 Red. masses --      2.7811                 3.1892                 3.7146
 Frc consts  --      0.4633                 0.6442                 0.9625
 IR Inten    --     22.4127                23.0892                 8.0922

                     16                     17                     18
                      A                      A                      A
 Frequencies --    708.5363               735.7897               791.9582
 Red. masses --      4.1402                 2.1471                 2.1916
 Frc consts  --      1.2246                 0.6849                 0.8099
 IR Inten    --      3.7115                 2.4649                17.8689

                     19                     20                     21
                      A                      A                      A
 Frequencies --    800.4482               826.6152               861.2648
 Red. masses --      6.1083                 1.9704                 1.3083
 Frc consts  --      2.3059                 0.7932                 0.5718
 IR Inten    --    103.8539                53.6261                14.2319

                     22                     23                     24
                      A                      A                      A
 Frequencies --    872.7460               925.5838              1006.9117
 Red. masses --      2.8515                 2.6010                 2.0264
 Frc consts  --      1.2797                 1.3129                 1.2105
 IR Inten    --     30.6954                 6.0340                 2.9042

                     25                     26                     27
                      A                      A                      A
 Frequencies --   1046.8736              1078.6227              1097.4304
 Red. masses --      1.1297                 1.6739                 1.6640
 Frc consts  --      0.7295                 1.1474                 1.1807
 IR Inten    --     84.9455               186.4268                15.4239

                     28                     29                     30
                      A                      A                      A
 Frequencies --   1103.8929              1145.6021              1198.4513
 Red. masses --      2.8348                 2.1863                 5.6193
 Frc consts  --      2.0353                 1.6906                 4.7553
 IR Inten    --    116.4487               629.4492               150.6630

                     31                     32                     33
                      A                      A                      A
 Frequencies --   1235.0160              1245.9307              1307.2863
 Red. masses --      1.7271                 2.2245                 1.5449
 Frc consts  --      1.5520                 2.0345                 1.5556
 IR Inten    --     94.3212               767.0527               238.1969

                     34                     35                     36
                      A                      A                      A
 Frequencies --   1322.1573              1336.4352              1363.8044
 Red. masses --      2.1583                 1.6225                 1.2902
 Frc consts  --      2.2229                 1.7073                 1.4138
 IR Inten    --    538.9447               191.0717                34.0668

                     37                     38                     39
                      A                      A                      A
 Frequencies --   1402.9149              1450.1031              1477.8781
 Red. masses --      4.6901                 2.5184                 1.1209
 Frc consts  --      5.4387                 3.1201                 1.4424
 IR Inten    --    191.2693               791.2192                64.7201

                     40                     41                     42
                      A                      A                      A
 Frequencies --   1479.7003              1493.6292              1570.0209
 Red. masses --      1.1288                 4.1197                 2.9912
 Frc consts  --      1.4562                 5.4151                 4.3441
 IR Inten    --      1.0028               275.7280              1484.3040

                     43                     44                     45
                      A                      A                      A
 Frequencies --   1631.9097              2548.9785              2765.9885
 Red. masses --      1.5241                 1.0871                 1.0786
 Frc consts  --      2.3914                 4.1617                 4.8620
 IR Inten    --    267.9107               727.4084               331.3998

                     46                     47                     48
                      A                      A                      A
 Frequencies --   2992.5654              3051.4551              3064.0678
 Red. masses --      1.0368                 1.0974                 1.0829
 Frc consts  --      5.4704                 6.0205                 5.9899
 IR Inten    --      8.9676                55.6910                70.5565

                     49                     50                     51
                      A                      A                      A
 Frequencies --   3075.1043              3092.9561              3114.0909
 Red. masses --      1.1002                 1.0917                 1.0857
 Frc consts  --      6.1295                 6.1530                 6.2034
 IR Inten    --     39.7167               479.4857               110.8791

 - Thermochemistry -
 -------------------
 Temperature   298.150 Kelvin.  Pressure   1.00000 Atm.
 Atom     1 has atomic number  6 and mass  12.00000

 Molecular mass:   152.04734 amu.
 Principal axes and moments of inertia in atomic units:
                           1         2         3
     Eigenvalues --  1005.198042051.173953004.78937
           X           -0.29523   0.94703  -0.12636
           Y            0.51882   0.26997   0.81114
           Z            0.80229   0.17392  -0.57104
 This molecule is an asymmetric top.
 Rotational symmetry number  1.
 Warning -- assumption of classical behavior for rotation
           may cause significant error
 Rotational temperatures (Kelvin)      0.08617     0.04223     0.02883
 Rotational constants (GHZ):           1.79541     0.87986     0.60062
 Zero-point vibrational energy     368738.2 (Joules/Mol)
                                   88.13055 (Kcal/Mol)
 Warning -- explicit consideration of  14 degrees of freedom as
           vibrations may cause significant error
 Vibrational temperatures:     49.57   178.28   222.08   317.55   366.56
          (Kelvin)            488.14   512.59   548.20   594.46   624.95
                              646.22   695.83   765.06   842.47   954.12
                             1019.43  1058.64  1139.45  1151.67  1189.31
                             1239.17  1255.69  1331.71  1448.72  1506.22
                             1551.90  1578.96  1588.26  1648.27  1724.30
                             1776.91  1792.62  1880.89  1902.29  1922.83
                             1962.21  2018.48  2086.37  2126.34  2128.96
                             2149.00  2258.91  2347.95  3667.41  3979.64
                             4305.63  4390.36  4408.51  4424.39  4450.07
                             4480.48

 Zero-point correction=                           0.140445 (Hartree/Particle)
 Thermal correction to Energy=                    0.150004
 Thermal correction to Enthalpy=                  0.150948
 Thermal correction to Gibbs Free Energy=         0.105138
 Sum of electronic and zero-point Energies=           -535.309819
 Sum of electronic and thermal Energies=              -535.300260
 Sum of electronic and thermal Enthalpies=            -535.299316
 Sum of electronic and thermal Free Energies=         -535.345125

                     E (Thermal)             CV                S
                      KCal/Mol        Cal/Mol-Kelvin    Cal/Mol-Kelvin
 Total                   94.129             37.130             96.414
 Electronic               0.000              0.000              0.000
 Translational            0.889              2.981             40.967
 Rotational               0.889              2.981             30.206
 Vibrational             92.351             31.168             25.241
 Vibration     1          0.594              1.983              5.555
 Vibration     2          0.610              1.929              3.038
 Vibration     3          0.620              1.898              2.618
 Vibration     4          0.647              1.810              1.953
 Vibration     5          0.665              1.755              1.697
 Vibration     6          0.719              1.597              1.216
 Vibration     7          0.732              1.562              1.138
 Vibration     8          0.751              1.511              1.035
 Vibration     9          0.777              1.442              0.915
 Vibration    10          0.795              1.395              0.845
 Vibration    11          0.808              1.363              0.798
 Vibration    12          0.840              1.286              0.700
 Vibration    13          0.887              1.180              0.583
 Vibration    14          0.943              1.063              0.475

                           ! Non-Optimized Parameters !
 Normal termination of Gaussian 16 at Wed Dec 20 02:17:37 2023.
