 Q-Chem 5.4, Q-Chem, Inc., Pleasanton, CA (2021)
 Q-Chem 5.4.0 for Intel X86 EM64T Linux

User input:
--------------------------------------------------------------
$molecule
-1 2
C                  0.0947190000     -0.6311830000      2.1770150000
C                 -0.4043370000     -1.1279270000      0.9079570000
C                 -0.2272290000     -0.4390520000     -0.2551190000
C                  0.4550690000      0.8416690000     -0.3264760000
C                  0.9393480000      1.3671320000      0.9472030000
C                  0.7869120000      0.6326630000      2.1109320000
O                 -0.0653170000     -1.2632360000      3.2601070000
O                  0.6334980000      1.4162770000     -1.4364310000
H                 -0.9226470000     -2.0829020000      0.9252280000
H                 -0.5883560000     -0.8292780000     -1.2026470000
C                  1.6746260000      2.6671690000      1.0779230000
C                  1.1781420000      3.9860350000      0.4081000000
C                 -0.3255380000      3.9709530000      0.0801550000
C                  1.4605210000      5.1421130000      1.3905380000
C                  2.0029360000      4.2078370000     -0.8802410000
O                  2.6658550000      2.7277730000      1.7931670000
H                 -0.5570520000      3.2308590000     -0.6842270000
H                 -0.6254980000      4.9573860000     -0.2930050000
H                 -0.9227240000      3.7564340000      0.9719550000
H                  0.8833510000      5.0270880000      2.3138180000
H                  1.1752540000      6.0935720000      0.9285660000
H                  2.5165140000      5.1803710000      1.6594940000
H                  1.8284420000      3.3938190000     -1.5846700000
H                  3.0702470000      4.2593450000     -0.6448340000
H                  1.7088190000      5.1559810000     -1.3466280000
H                  1.1900650000      1.0177200000      3.0414590000
$end
$rem
MAX_SCF_CYCLES=200
BASIS  =  6-311++G(d,p)
GUI  =  2
JOB_TYPE  =  SP
METHOD  =  B3LYP
SOLVENT_METHOD = PCM
$end
$pcm
theory = CPCM
$end
$solvent
dielectric 37.219
opticaldielectric 1.43
$end

--------------------------------------------------------------

             Standard Nuclear Orientation (Angstroms)
    I     Atom           X                Y                Z
 ----------------------------------------------------------------
    1      C       0.0947190000    -0.6311830000     2.1770150000
    2      C      -0.4043370000    -1.1279270000     0.9079570000
    3      C      -0.2272290000    -0.4390520000    -0.2551190000
    4      C       0.4550690000     0.8416690000    -0.3264760000
    5      C       0.9393480000     1.3671320000     0.9472030000
    6      C       0.7869120000     0.6326630000     2.1109320000
    7      O      -0.0653170000    -1.2632360000     3.2601070000
    8      O       0.6334980000     1.4162770000    -1.4364310000
    9      H      -0.9226470000    -2.0829020000     0.9252280000
   10      H      -0.5883560000    -0.8292780000    -1.2026470000
   11      C       1.6746260000     2.6671690000     1.0779230000
   12      C       1.1781420000     3.9860350000     0.4081000000
   13      C      -0.3255380000     3.9709530000     0.0801550000
   14      C       1.4605210000     5.1421130000     1.3905380000
   15      C       2.0029360000     4.2078370000    -0.8802410000
   16      O       2.6658550000     2.7277730000     1.7931670000
   17      H      -0.5570520000     3.2308590000    -0.6842270000
   18      H      -0.6254980000     4.9573860000    -0.2930050000
   19      H      -0.9227240000     3.7564340000     0.9719550000
   20      H       0.8833510000     5.0270880000     2.3138180000
   21      H       1.1752540000     6.0935720000     0.9285660000
   22      H       2.5165140000     5.1803710000     1.6594940000
   23      H       1.8284420000     3.3938190000    -1.5846700000
   24      H       3.0702470000     4.2593450000    -0.6448340000
   25      H       1.7088190000     5.1559810000    -1.3466280000
   26      H       1.1900650000     1.0177200000     3.0414590000
 ----------------------------------------------------------------

    9    -652.3860868508      4.22e-06  Convergence criterion met
 Total energy in the final basis set =     -652.3860868508

                    Orbital Energies (a.u.)
 --------------------------------------------------------------

 Alpha MOs
 -- Occupied --
-19.1133 -19.0862 -19.0847 -10.2610 -10.2332 -10.2265 -10.1854 -10.1800
-10.1740 -10.1710 -10.1702 -10.1500 -10.1496 -10.1471  -1.0467  -1.0088
 -1.0057  -0.8318  -0.8092  -0.7599  -0.6953  -0.6791  -0.6772  -0.6391
 -0.5921  -0.5806  -0.5068  -0.4864  -0.4769  -0.4658  -0.4536  -0.4382
 -0.4302  -0.4221  -0.4196  -0.4123  -0.3991  -0.3874  -0.3829  -0.3728
 -0.3684  -0.3653  -0.3614  -0.3551  -0.3243  -0.3206  -0.2887  -0.2693
 -0.2578  -0.2500  -0.2405  -0.1731

 Beta MOs
 -- Occupied --
-19.1130 -19.0788 -19.0782 -10.2610 -10.2321 -10.2253 -10.1854 -10.1790
-10.1720 -10.1703 -10.1693 -10.1500 -10.1496 -10.1471  -1.0461  -0.9975
 -0.9928  -0.8256  -0.8089  -0.7572  -0.6860  -0.6791  -0.6761  -0.6361
 -0.5887  -0.5780  -0.5044  -0.4845  -0.4736  -0.4641  -0.4517  -0.4372
 -0.4283  -0.4212  -0.4095  -0.4063  -0.3906  -0.3807  -0.3767  -0.3664
 -0.3641  -0.3618  -0.3596  -0.3463  -0.3240  -0.3198  -0.2635  -0.2571
 -0.2515  -0.2436  -0.2359

          Ground-State Mulliken Net Atomic Charges

     Atom                 Charge (a.u.)    Spin (a.u.)
  --------------------------------------------------------
      1 C                    -0.375749       0.116597
      2 C                     0.021989       0.065173
      3 C                    -0.330101       0.045394
      4 C                    -0.784915       0.092900
      5 C                     1.746106       0.061272
      6 C                    -0.054108       0.123943
      7 O                    -0.512098       0.259300
      8 O                    -0.444407       0.232417
      9 H                     0.207445      -0.004085
     10 H                     0.210503      -0.007700
     11 C                    -1.055543       0.010248
     12 C                     0.911419       0.000712
     13 C                    -0.743761      -0.000521
     14 C                    -0.591736      -0.000423
     15 C                    -0.577959       0.008254
     16 O                    -0.292149       0.008793
     17 H                     0.137082       0.000113
     18 H                     0.158373      -0.000147
     19 H                     0.140034      -0.000309
     20 H                     0.163652      -0.000030
     21 H                     0.154638       0.000299
     22 H                     0.170784      -0.000026
     23 H                     0.188711      -0.002297
     24 H                     0.161792       0.000258
     25 H                     0.164017       0.000283
     26 H                     0.225979      -0.010418
  --------------------------------------------------------
  Sum of atomic charges =    -1.000000

                    Cartesian Multipole Moments
 -----------------------------------------------------------------
    Charge (ESU x 10^10)
                -4.8032
    Dipole Moment (Debye)
         X      -4.9948      Y      -1.6279      Z      -7.0423
       Tot       8.7859
    Quadrupole Moments (Debye-Ang)
        XX    -101.0018     XY     -10.7638     YY     -96.6619
        XZ      -5.1404     YZ      10.0811     ZZ    -125.0266

 Total job time:  42.03s(wall), 294.73s(cpu)
        *  Thank you very much for using Q-Chem.  Have a nice day.  *
