 Q-Chem 5.4, Q-Chem, Inc., Pleasanton, CA (2021)
 Q-Chem 5.4.0 for Intel X86 EM64T Linux

User input:
--------------------------------------------------------------
$molecule
-2 1
C                  4.2342530000     -0.0282110000     -0.0472460000
S                  3.0226430000     -1.3299990000     -0.4799080000
C                  1.4449140000     -0.4840880000     -0.2430110000
C                  1.3294620000      0.9070300000     -0.0699660000
C                  0.0895350000      1.5818000000      0.1032330000
O                 -0.0094590000      2.8553000000      0.2759600000
C                 -1.0773950000      0.7020020000      0.0851100000
C                 -2.3696250000      1.2443010000      0.2583030000
C                 -3.5080630000      0.4564080000      0.2492510000
C                 -3.3851990000     -0.9444270000      0.0571700000
C                 -2.1332500000     -1.5048110000     -0.1180800000
C                 -0.9514990000     -0.7245670000     -0.1084690000
C                  0.3348590000     -1.3773620000     -0.2990890000
O                  0.4607420000     -2.6414890000     -0.5109120000
H                  4.2047760000      0.8129230000     -0.7430130000
H                  5.2251970000     -0.4882060000     -0.1036000000
H                  4.0726010000      0.3470070000      0.9687200000
H                  2.2120930000      1.5371050000     -0.0337780000
H                 -2.4253730000      2.3197450000      0.4009450000
H                 -4.4903230000      0.9062630000      0.3862720000
H                 -4.2738170000     -1.5742120000      0.0454930000
H                 -2.0070720000     -2.5725100000     -0.2715190000
$end
$rem
MAX_SCF_CYCLES=200
BASIS  =  6-311++G(d,p)
GUI  =  2
JOB_TYPE  =  SP
METHOD  =  B3LYP
SOLVENT_METHOD = COSMO
$end
$solvent
dielectric 37.219
opticaldielectric 1.43
$end

--------------------------------------------------------------

             Standard Nuclear Orientation (Angstroms)
    I     Atom           X                Y                Z
 ----------------------------------------------------------------
    1      C       3.9845698075    -0.7580787445    -0.2293573084
    2      S       3.0005245568     0.7540442727     0.0788408755
    3      C       1.3072529514     0.1275810508     0.0429311601
    4      C       0.9864703712    -1.2416376524     0.0715965634
    5      C      -0.3447389237    -1.7420547634     0.0575987048
    6      O      -0.6327966704    -2.9983674015     0.0693446940
    7      C      -1.3729486267    -0.7043458791     0.0123917718
    8      C      -2.7372899962    -1.0671510417    -0.0173980784
    9      C      -3.7508522060    -0.1249427264    -0.0602178804
   10      C      -3.4200456812     1.2551886033    -0.0717905294
   11      C      -2.0928136065     1.6419583424    -0.0404332743
   12      C      -1.0354431068     0.7007592483    -0.0014411154
   13      C       0.3397814415     1.1750299211     0.0304802156
   14      O       0.6558470778     2.4232743087     0.0573325441
   15      H       3.8869805492    -1.4874643405     0.5774512233
   16      H       5.0315830924    -0.4465777419    -0.2882766689
   17      H       3.7006785336    -1.2345847965    -1.1735260204
   18      H       1.7675367503    -1.9947826861     0.0786271338
   19      H      -2.9528146542    -2.1317856940    -0.0057123704
   20      H      -4.7935688697    -0.4383197844    -0.0829282681
   21      H      -4.2087970779     2.0057366473    -0.1027148970
   22      H      -1.8080490397     2.6899766242    -0.0439534216
 ----------------------------------------------------------------

   13    -972.7795868244      9.56e-06  Convergence criterion met
 Total energy in the final basis set =     -972.7795868244
    6    -973.0677148999      4.24e-06  Convergence criterion met
 Total energy in the final basis set =     -973.0677148999

                    Orbital Energies (a.u.)
 --------------------------------------------------------------

 Alpha MOs
 -- Occupied --
-88.8290 -19.0264 -19.0258 -10.1788 -10.1767 -10.1766 -10.1589 -10.1524
-10.1510 -10.1486 -10.1481 -10.1436 -10.1415 -10.1264  -7.9143  -5.8781
 -5.8742  -5.8687  -0.9452  -0.9411  -0.8288  -0.7915  -0.7502  -0.7259
 -0.7028  -0.6571  -0.6205  -0.5879  -0.5615  -0.5276  -0.4782  -0.4679
 -0.4403  -0.4269  -0.4120  -0.4092  -0.4025  -0.3813  -0.3791  -0.3710
 -0.3612  -0.3543  -0.3309  -0.3242  -0.3194  -0.3131  -0.3011  -0.2575
 -0.2337  -0.2292  -0.2092  -0.2036  -0.1960  -0.1178

          Ground-State Mulliken Net Atomic Charges

     Atom                 Charge (a.u.)
  ----------------------------------------
      1 C                    -0.555271
      2 S                    -0.628324
      3 C                     0.926625
      4 C                     0.286663
      5 C                    -0.513741
      6 O                    -0.739701
      7 C                     0.345031
      8 C                     0.112717
      9 C                    -0.442475
     10 C                    -0.482494
     11 C                     0.194408
     12 C                     0.099650
     13 C                    -1.316886
     14 O                    -0.681030
     15 H                     0.187477
     16 H                     0.188847
     17 H                     0.191461
     18 H                     0.150785
     19 H                     0.153731
     20 H                     0.181981
     21 H                     0.178572
     22 H                     0.161971
  ----------------------------------------
  Sum of atomic charges =    -2.000000

                    Cartesian Multipole Moments
 -----------------------------------------------------------------
    Charge (ESU x 10^10)
                -9.6064
    Dipole Moment (Debye)
         X       0.7773      Y       0.4562      Z      -0.8277
       Tot       1.2238
    Quadrupole Moments (Debye-Ang)
        XX    -107.4742     XY     -19.5856     YY    -155.0504
        XZ      -1.4434     YZ       0.4335     ZZ    -101.6312

 Total job time:  45.89s(wall), 349.64s(cpu)
        *  Thank you very much for using Q-Chem.  Have a nice day.  *
