 Q-Chem 5.4, Q-Chem, Inc., Pleasanton, CA (2021)
 Q-Chem 5.4.0 for Intel X86 EM64T Linux

User input:
--------------------------------------------------------------
$molecule
-1 2
C                 -1.4090370000      0.2450410000     -0.1991740000
C                 -0.9546180000     -1.0432780000     -0.3424880000
C                  0.4234470000     -1.3918150000     -0.0218640000
C                  1.3243140000     -0.3091630000      0.3517780000
C                  0.9122000000      1.0004070000      0.3061610000
C                 -0.4871750000      1.3382280000      0.0806760000
O                 -0.8885340000      2.5410660000      0.1261250000
O                  0.8245620000     -2.5947630000     -0.0664710000
C                  1.8787580000      2.1539730000      0.4654580000
C                  2.7140070000     -0.6997520000      0.8061610000
C                  3.6649480000      0.4665930000      0.9804000000
C                  3.2715690000      1.7463580000      0.9000450000
C                 -2.8773110000      0.5964420000     -0.3033800000
C                 -3.7564630000     -0.5335990000     -0.7983990000
C                 -3.3057860000     -1.7846770000     -0.9737270000
C                 -1.8421980000     -2.1570640000     -0.8543850000
H                  1.4617610000      2.8468940000      1.2097340000
C                  1.9644190000      2.9555190000     -0.8642290000
H                  3.1326350000     -1.3928050000      0.0629320000
C                  2.6267430000     -1.5005560000      2.1360920000
C                  5.0966590000      0.0817760000      1.3058100000
C                  4.2139580000      2.8997040000      1.1919170000
C                 -5.2078200000     -0.1583740000     -1.0356890000
C                 -4.2273180000     -2.9274600000     -1.3591030000
C                 -1.3200860000     -2.6542170000     -2.2320640000
H                  2.3835160000      2.3238480000     -1.6541680000
H                  2.6016170000      3.8398950000     -0.7585030000
H                  0.9667690000      3.2831820000     -1.1547580000
H                  2.2221910000     -0.8635010000      2.9292870000
H                  3.6118280000     -1.8587600000      2.4533180000
H                  1.9752630000     -2.3628270000      1.9977170000
H                  5.3356830000     -0.8936380000      0.8706660000
H                  5.2721700000     -0.0033540000      2.3860630000
H                  5.8179320000      0.8022520000      0.9136000000
H                  4.9497540000      2.6487010000      1.9591780000
H                  3.6512770000      3.7687710000      1.5469950000
H                  4.7666200000      3.2245850000      0.3008480000
H                 -5.2858380000      0.8965560000     -1.3167260000
H                 -5.8269000000     -0.2924080000     -0.1391630000
H                 -5.6612900000     -0.7463800000     -1.8367650000
H                 -5.2292870000     -2.8100650000     -0.9403110000
H                 -3.8266130000     -3.8779270000     -0.9930300000
H                 -4.3359350000     -3.0291410000     -2.4466900000
C                 -3.3981550000      1.0927650000      1.0750640000
H                 -2.9748920000      1.4501820000     -0.9886230000
H                 -1.7464370000     -3.0107790000     -0.1688370000
H                 -1.3948340000     -1.8501780000     -2.9713850000
H                 -1.9002570000     -3.5089930000     -2.5955450000
H                 -0.2790630000     -2.9609630000     -2.1358970000
H                 -3.3372080000      0.2836110000      1.8100680000
H                 -4.4406660000      1.4226980000      1.0143280000
H                 -2.7906520000      1.9325120000      1.4110200000
$end

$rem
BASIS  =  6-311++G(d,p)
GUI  =  2
JOB_TYPE  =  SP
METHOD  =  B3LYP
SCF_CONVERGENCE  = 8
SOLVENT_METHOD = sm12
$end

$smx
solvent dimethylformamide
charges CM5
$end

--------------------------------------------------------------

             Standard Nuclear Orientation (Angstroms)
    I     Atom           X                Y                Z
 ----------------------------------------------------------------
    1      C      -1.4090370000     0.2450410000    -0.1991740000
    2      C      -0.9546180000    -1.0432780000    -0.3424880000
    3      C       0.4234470000    -1.3918150000    -0.0218640000
    4      C       1.3243140000    -0.3091630000     0.3517780000
    5      C       0.9122000000     1.0004070000     0.3061610000
    6      C      -0.4871750000     1.3382280000     0.0806760000
    7      O      -0.8885340000     2.5410660000     0.1261250000
    8      O       0.8245620000    -2.5947630000    -0.0664710000
    9      C       1.8787580000     2.1539730000     0.4654580000
   10      C       2.7140070000    -0.6997520000     0.8061610000
   11      C       3.6649480000     0.4665930000     0.9804000000
   12      C       3.2715690000     1.7463580000     0.9000450000
   13      C      -2.8773110000     0.5964420000    -0.3033800000
   14      C      -3.7564630000    -0.5335990000    -0.7983990000
   15      C      -3.3057860000    -1.7846770000    -0.9737270000
   16      C      -1.8421980000    -2.1570640000    -0.8543850000
   17      H       1.4617610000     2.8468940000     1.2097340000
   18      C       1.9644190000     2.9555190000    -0.8642290000
   19      H       3.1326350000    -1.3928050000     0.0629320000
   20      C       2.6267430000    -1.5005560000     2.1360920000
   21      C       5.0966590000     0.0817760000     1.3058100000
   22      C       4.2139580000     2.8997040000     1.1919170000
   23      C      -5.2078200000    -0.1583740000    -1.0356890000
   24      C      -4.2273180000    -2.9274600000    -1.3591030000
   25      C      -1.3200860000    -2.6542170000    -2.2320640000
   26      H       2.3835160000     2.3238480000    -1.6541680000
   27      H       2.6016170000     3.8398950000    -0.7585030000
   28      H       0.9667690000     3.2831820000    -1.1547580000
   29      H       2.2221910000    -0.8635010000     2.9292870000
   30      H       3.6118280000    -1.8587600000     2.4533180000
   31      H       1.9752630000    -2.3628270000     1.9977170000
   32      H       5.3356830000    -0.8936380000     0.8706660000
   33      H       5.2721700000    -0.0033540000     2.3860630000
   34      H       5.8179320000     0.8022520000     0.9136000000
   35      H       4.9497540000     2.6487010000     1.9591780000
   36      H       3.6512770000     3.7687710000     1.5469950000
   37      H       4.7666200000     3.2245850000     0.3008480000
   38      H      -5.2858380000     0.8965560000    -1.3167260000
   39      H      -5.8269000000    -0.2924080000    -0.1391630000
   40      H      -5.6612900000    -0.7463800000    -1.8367650000
   41      H      -5.2292870000    -2.8100650000    -0.9403110000
   42      H      -3.8266130000    -3.8779270000    -0.9930300000
   43      H      -4.3359350000    -3.0291410000    -2.4466900000
   44      C      -3.3981550000     1.0927650000     1.0750640000
   45      H      -2.9748920000     1.4501820000    -0.9886230000
   46      H      -1.7464370000    -3.0107790000    -0.1688370000
   47      H      -1.3948340000    -1.8501780000    -2.9713850000
   48      H      -1.9002570000    -3.5089930000    -2.5955450000
   49      H      -0.2790630000    -2.9609630000    -2.1358970000
   50      H      -3.3372080000     0.2836110000     1.8100680000
   51      H      -4.4406660000     1.4226980000     1.0143280000
   52      H      -2.7906520000     1.9325120000     1.4110200000
 ----------------------------------------------------------------

   15   -1005.9631484020      5.63e-09  Convergence criterion met
 Total energy in the final basis set =    -1006.0452628241

                    Orbital Energies (a.u.)
 --------------------------------------------------------------

 Alpha MOs
 -- Occupied --
-19.0668 -19.0668 -10.2105 -10.2104 -10.1777 -10.1777 -10.1775 -10.1775
-10.1701 -10.1698 -10.1693 -10.1690 -10.1651 -10.1651 -10.1649 -10.1649
-10.1637 -10.1637 -10.1631 -10.1630 -10.1578 -10.1578 -10.1577 -10.1577
 -0.9906  -0.9882  -0.8549  -0.8499  -0.8030  -0.7888  -0.7867  -0.7713
 -0.7308  -0.7116  -0.7108  -0.7037  -0.6731  -0.6700  -0.6613  -0.6446
 -0.6140  -0.6033  -0.5828  -0.5703  -0.5430  -0.5033  -0.4976  -0.4823
 -0.4694  -0.4612  -0.4580  -0.4501  -0.4437  -0.4284  -0.4268  -0.4241
 -0.4110  -0.4106  -0.4097  -0.4055  -0.4035  -0.4032  -0.3987  -0.3942
 -0.3912  -0.3911  -0.3885  -0.3828  -0.3737  -0.3728  -0.3721  -0.3649
 -0.3590  -0.3524  -0.3519  -0.3513  -0.3440  -0.3422  -0.3287  -0.3214
 -0.3201  -0.3070  -0.2665  -0.2423  -0.2350  -0.2310  -0.2244  -0.2208
 -0.1521

 Beta MOs
 -- Occupied --
-19.0600 -19.0600 -10.2090 -10.2089 -10.1778 -10.1778 -10.1776 -10.1776
-10.1700 -10.1698 -10.1693 -10.1690 -10.1651 -10.1651 -10.1649 -10.1649
-10.1627 -10.1626 -10.1620 -10.1620 -10.1578 -10.1578 -10.1576 -10.1576
 -0.9790  -0.9761  -0.8528  -0.8494  -0.7995  -0.7884  -0.7858  -0.7702
 -0.7299  -0.7107  -0.7106  -0.7029  -0.6726  -0.6634  -0.6608  -0.6435
 -0.6110  -0.6026  -0.5826  -0.5682  -0.5397  -0.5021  -0.4964  -0.4811
 -0.4682  -0.4605  -0.4572  -0.4480  -0.4413  -0.4266  -0.4264  -0.4232
 -0.4105  -0.4102  -0.4048  -0.4040  -0.4035  -0.3999  -0.3965  -0.3906
 -0.3905  -0.3881  -0.3867  -0.3814  -0.3731  -0.3718  -0.3695  -0.3642
 -0.3527  -0.3517  -0.3509  -0.3497  -0.3367  -0.3345  -0.3199  -0.3198
 -0.3174  -0.3052  -0.2381  -0.2369  -0.2299  -0.2288  -0.2214  -0.2151

          Ground-State Mulliken Net Atomic Charges

     Atom                 Charge (a.u.)    Spin (a.u.)
  --------------------------------------------------------
      1 C                    -1.250054       0.066608
      2 C                    -1.262255       0.066617
      3 C                    -1.142377       0.084905
      4 C                    -1.255187       0.066923
      5 C                    -1.254852       0.066987
      6 C                    -1.144082       0.084805
      7 O                    -0.241139       0.257605
      8 O                    -0.241269       0.257414
      9 C                    -0.521212      -0.006771
     10 C                    -0.521878      -0.006885
     11 C                     0.577563       0.004550
     12 C                     0.584258       0.004330
     13 C                    -0.522451      -0.006831
     14 C                     0.584832       0.004511
     15 C                     0.588137       0.004372
     16 C                    -0.521364      -0.006756
     17 H                     0.070858       0.002814
     18 C                    -0.571268       0.011758
     19 H                     0.069807       0.002848
     20 C                    -0.568775       0.011712
     21 C                     0.887926       0.000654
     22 C                     0.886717       0.000732
     23 C                     0.889535       0.000700
     24 C                     0.887821       0.000654
     25 C                    -0.569042       0.011892
     26 H                     0.098982      -0.000461
     27 H                     0.259515       0.002273
     28 H                     0.102674      -0.002621
     29 H                     0.098481      -0.000431
     30 H                     0.259327       0.002233
     31 H                     0.103333      -0.002616
     32 H                     0.269544      -0.000295
     33 H                     0.246954       0.000256
     34 H                     0.270307      -0.000044
     35 H                     0.270655      -0.000043
     36 H                     0.269208      -0.000277
     37 H                     0.246216       0.000256
     38 H                     0.269388      -0.000305
     39 H                     0.246497       0.000255
     40 H                     0.270612      -0.000044
     41 H                     0.270653      -0.000050
     42 H                     0.269264      -0.000290
     43 H                     0.246422       0.000259
     44 C                    -0.568627       0.011736
     45 H                     0.069530       0.002902
     46 H                     0.069991       0.002788
     47 H                     0.098283      -0.000497
     48 H                     0.260152       0.002273
     49 H                     0.101717      -0.002613
     50 H                     0.098178      -0.000473
     51 H                     0.259687       0.002307
     52 H                     0.102807      -0.002629
  --------------------------------------------------------
  Sum of atomic charges =    -1.000000

                    Cartesian Multipole Moments
 -----------------------------------------------------------------
    Charge (ESU x 10^10)
                -4.8032
    Dipole Moment (Debye)
         X       0.1435      Y       0.1272      Z      -0.1487
       Tot       0.2426
    Quadrupole Moments (Debye-Ang)
        XX    -161.2023     XY       8.1933     YY    -183.0101
        XZ       0.0559     YZ      -1.0472     ZZ    -157.4158

 Total job time:  3516.86s(wall), 22699.32s(cpu)
        *  Thank you very much for using Q-Chem.  Have a nice day.  *
