 Q-Chem 5.4, Q-Chem, Inc., Pleasanton, CA (2021)
 Q-Chem 5.4.0 for Intel X86 EM64T Linux

User input:
--------------------------------------------------------------
$molecule
-1 2
C                  3.4627750000      2.7240000000      0.3548920000
C                  2.7733010000      1.3960090000      0.2019860000
C                  1.4049950000      1.2874100000      0.1469050000
C                  0.7214610000      0.0417300000      0.0243960000
C                  1.5517480000     -1.1157160000     -0.0455400000
C                  2.9239320000     -1.0645500000     -0.0054400000
C                  3.7718110000     -2.3028850000     -0.1049690000
C                  3.6154170000      0.2104370000      0.1249120000
O                  4.8714130000      0.2836360000      0.1685450000
C                 -0.7213780000     -0.0422740000     -0.0255720000
C                 -1.4165420000     -1.2738360000      0.1586270000
C                 -2.7855630000     -1.3812850000      0.1220940000
C                 -3.4892780000     -2.6919940000      0.3435990000
C                 -3.6154810000     -0.2102390000     -0.1243240000
O                 -4.8714920000     -0.2831030000     -0.1669720000
C                 -2.9116390000      1.0497660000     -0.3187180000
C                 -1.5400770000      1.1013300000     -0.2618230000
C                 -3.7453490000      2.2712480000     -0.5928030000
H                  4.0853520000      2.7411740000      1.2558580000
H                  2.7387180000      3.5418350000      0.4100630000
H                  4.1436040000      2.9104010000     -0.4826050000
H                  0.8218040000      2.1980890000      0.2333190000
H                  1.0855940000     -2.0875770000     -0.1684270000
H                  3.1531790000     -3.1990160000     -0.2069210000
H                  4.4530740000     -2.2439380000     -0.9605640000
H                  4.4100100000     -2.4124660000      0.7784190000
H                 -0.8446270000     -2.1710670000      0.3702830000
H                 -4.1764070000     -2.6293530000      1.1942380000
H                 -4.1074650000     -2.9555490000     -0.5213060000
H                 -2.7742770000     -3.4993230000      0.5256690000
H                 -1.0625830000      2.0594050000     -0.4378850000
H                 -3.1176140000      3.1563370000     -0.7296170000
H                 -4.3616230000      2.1327470000     -1.4876070000
H                 -4.4467920000      2.4586170000      0.2272880000
$end
$rem
MAX_SCF_CYCLES=200
BASIS  =  6-311++G(d,p)
GUI  =  2
JOB_TYPE  =  SP
METHOD  =  B3LYP
SOLVENT_METHOD = PCM
$end
$pcm
theory = CPCM
$end
$solvent
dielectric 37.219
opticaldielectric 1.43
$end

--------------------------------------------------------------

             Standard Nuclear Orientation (Angstroms)
    I     Atom           X                Y                Z
 ----------------------------------------------------------------
    1      C       3.4627750000     2.7240000000     0.3548920000
    2      C       2.7733010000     1.3960090000     0.2019860000
    3      C       1.4049950000     1.2874100000     0.1469050000
    4      C       0.7214610000     0.0417300000     0.0243960000
    5      C       1.5517480000    -1.1157160000    -0.0455400000
    6      C       2.9239320000    -1.0645500000    -0.0054400000
    7      C       3.7718110000    -2.3028850000    -0.1049690000
    8      C       3.6154170000     0.2104370000     0.1249120000
    9      O       4.8714130000     0.2836360000     0.1685450000
   10      C      -0.7213780000    -0.0422740000    -0.0255720000
   11      C      -1.4165420000    -1.2738360000     0.1586270000
   12      C      -2.7855630000    -1.3812850000     0.1220940000
   13      C      -3.4892780000    -2.6919940000     0.3435990000
   14      C      -3.6154810000    -0.2102390000    -0.1243240000
   15      O      -4.8714920000    -0.2831030000    -0.1669720000
   16      C      -2.9116390000     1.0497660000    -0.3187180000
   17      C      -1.5400770000     1.1013300000    -0.2618230000
   18      C      -3.7453490000     2.2712480000    -0.5928030000
   19      H       4.0853520000     2.7411740000     1.2558580000
   20      H       2.7387180000     3.5418350000     0.4100630000
   21      H       4.1436040000     2.9104010000    -0.4826050000
   22      H       0.8218040000     2.1980890000     0.2333190000
   23      H       1.0855940000    -2.0875770000    -0.1684270000
   24      H       3.1531790000    -3.1990160000    -0.2069210000
   25      H       4.4530740000    -2.2439380000    -0.9605640000
   26      H       4.4100100000    -2.4124660000     0.7784190000
   27      H      -0.8446270000    -2.1710670000     0.3702830000
   28      H      -4.1764070000    -2.6293530000     1.1942380000
   29      H      -4.1074650000    -2.9555490000    -0.5213060000
   30      H      -2.7742770000    -3.4993230000     0.5256690000
   31      H      -1.0625830000     2.0594050000    -0.4378850000
   32      H      -3.1176140000     3.1563370000    -0.7296170000
   33      H      -4.3616230000     2.1327470000    -1.4876070000
   34      H      -4.4467920000     2.4586170000     0.2272880000
 ----------------------------------------------------------------

    8    -770.1488839766      7.44e-06  Convergence criterion met
 Total energy in the final basis set =     -770.1488839766

                    Orbital Energies (a.u.)
 --------------------------------------------------------------

 Alpha MOs
 -- Occupied --
-19.0756 -19.0756 -10.2189 -10.2189 -10.1810 -10.1806 -10.1684 -10.1684
-10.1684 -10.1684 -10.1650 -10.1650 -10.1650 -10.1650 -10.1551 -10.1551
-10.1551 -10.1551  -1.0001  -1.0001  -0.8591  -0.8319  -0.7794  -0.7761
 -0.7666  -0.7177  -0.6842  -0.6769  -0.6673  -0.6543  -0.5965  -0.5773
 -0.5559  -0.5480  -0.4956  -0.4926  -0.4572  -0.4492  -0.4422  -0.4294
 -0.4264  -0.4081  -0.4078  -0.4063  -0.4033  -0.4032  -0.3954  -0.3947
 -0.3915  -0.3737  -0.3685  -0.3626  -0.3621  -0.3606  -0.3517  -0.3482
 -0.3415  -0.3280  -0.3052  -0.2472  -0.2414  -0.2399  -0.2363  -0.2181
 -0.1633

 Beta MOs
 -- Occupied --
-19.0714 -19.0714 -10.2181 -10.2181 -10.1792 -10.1788 -10.1674 -10.1674
-10.1674 -10.1674 -10.1649 -10.1649 -10.1649 -10.1649 -10.1552 -10.1552
-10.1552 -10.1552  -0.9926  -0.9926  -0.8551  -0.8283  -0.7779  -0.7746
 -0.7624  -0.7150  -0.6834  -0.6751  -0.6667  -0.6491  -0.5939  -0.5751
 -0.5534  -0.5455  -0.4939  -0.4913  -0.4556  -0.4461  -0.4401  -0.4230
 -0.4204  -0.4076  -0.4067  -0.4037  -0.4022  -0.4021  -0.3941  -0.3935
 -0.3910  -0.3732  -0.3629  -0.3608  -0.3601  -0.3499  -0.3470  -0.3403
 -0.3354  -0.3262  -0.2899  -0.2435  -0.2373  -0.2359  -0.2324  -0.1940

          Ground-State Mulliken Net Atomic Charges

     Atom                 Charge (a.u.)    Spin (a.u.)
  --------------------------------------------------------
      1 C                    -0.338520      -0.000256
      2 C                     0.534081       0.073422
      3 C                    -0.569223      -0.007403
      4 C                     1.158779       0.172704
      5 C                    -0.567575      -0.007569
      6 C                     0.540175       0.073479
      7 C                    -0.335595      -0.000258
      8 C                    -1.605698       0.020720
      9 O                    -0.492312       0.163523
     10 C                     1.168781       0.172946
     11 C                    -0.568486      -0.007435
     12 C                     0.536885       0.073574
     13 C                    -0.335815      -0.000272
     14 C                    -1.608428       0.020524
     15 O                    -0.491784       0.163640
     16 C                     0.536771       0.073556
     17 C                    -0.569333      -0.007589
     18 C                    -0.336118      -0.000255
     19 H                     0.170517       0.003636
     20 H                     0.157319      -0.000306
     21 H                     0.173358       0.004155
     22 H                     0.084574      -0.001741
     23 H                     0.084265      -0.001767
     24 H                     0.157282      -0.000306
     25 H                     0.170619       0.003630
     26 H                     0.173204       0.004171
     27 H                     0.084732      -0.001735
     28 H                     0.170762       0.003639
     29 H                     0.173212       0.004164
     30 H                     0.157224      -0.000306
     31 H                     0.085198      -0.001778
     32 H                     0.157313      -0.000308
     33 H                     0.170718       0.003638
     34 H                     0.173121       0.004165
  --------------------------------------------------------
  Sum of atomic charges =    -1.000000

                    Cartesian Multipole Moments
 -----------------------------------------------------------------
    Charge (ESU x 10^10)
                -4.8032
    Dipole Moment (Debye)
         X      -0.0062      Y      -0.0026      Z      -0.0040
       Tot       0.0078
    Quadrupole Moments (Debye-Ang)
        XX    -227.3071     XY      -7.2895     YY    -102.1787
        XZ      -3.8751     YZ      -0.8074     ZZ    -113.9717

 Total job time:  92.55s(wall), 484.48s(cpu)
        *  Thank you very much for using Q-Chem.  Have a nice day.  *
