 Q-Chem 5.4, Q-Chem, Inc., Pleasanton, CA (2021)
 Q-Chem 5.4.0 for Intel X86 EM64T Linux

User input:
--------------------------------------------------------------
$molecule
-1 2
O                  0.0972680000      2.9570470000      0.8939730000
C                  0.0577590000      1.7507730000      0.5292690000
C                  1.1876510000      0.8434790000      0.3184560000
C                  2.5660370000      1.0632080000      0.4600950000
C                  3.4551670000      0.0271460000      0.1974970000
C                  2.9869140000     -1.2413020000     -0.2093760000
C                  1.6173450000     -1.4740860000     -0.3544750000
C                  0.7125120000     -0.4442550000     -0.0946180000
C                 -0.7392260000     -0.3790530000     -0.1545830000
C                 -1.7090920000     -1.3234090000     -0.4916000000
C                 -3.0596150000     -0.9667390000     -0.4582230000
C                 -3.4433480000      0.3395730000     -0.0863910000
C                 -2.4882600000      1.2923230000      0.2522440000
C                 -1.1290970000      0.9484300000      0.2231290000
H                  2.9207380000      2.0403480000      0.7732140000
H                  4.5241920000      0.1902340000      0.3051680000
H                  3.6961270000     -2.0387390000     -0.4100750000
H                  1.2646380000     -2.4534100000     -0.6680910000
H                 -1.4232060000     -2.3319400000     -0.7791880000
H                 -3.8188140000     -1.6978820000     -0.7195720000
H                 -4.4982420000      0.5995760000     -0.0658650000
H                 -2.7774490000      2.2986770000      0.5390110000
$end
$rem
MAX_SCF_CYCLES=200
BASIS  =  6-311++G(d,p)
GUI  =  2
JOB_TYPE  =  SP
METHOD  =  B3LYP
SOLVENT_METHOD = COSMO
$end
$solvent
dielectric 37.219
opticaldielectric 1.43
$end

--------------------------------------------------------------

             Standard Nuclear Orientation (Angstroms)
    I     Atom           X                Y                Z
 ----------------------------------------------------------------
    1      O      -0.0000215304    -2.8363544524    -0.0000906072
    2      C      -0.0001712978    -1.5755345172    -0.0000721562
    3      C      -1.1603340249    -0.6820565367    -0.0000817180
    4      C      -2.5320231434    -0.9766059547     0.0000048342
    5      C      -3.4555713946     0.0626211396     0.0000969678
    6      C      -3.0288585444     1.4086088743     0.0001194574
    7      C      -1.6664183687     1.7163719532     0.0000145806
    8      C      -0.7273657263     0.6843930620    -0.0000852137
    9      C       0.7270722841     0.6850216551    -0.0001211063
   10      C       1.6662517148     1.7165112409    -0.0001709391
   11      C       3.0290142124     1.4080987910    -0.0000216703
   12      C       3.4558475757     0.0628202599     0.0001943916
   13      C       2.5317317731    -0.9767033306     0.0001530000
   14      C       1.1607483179    -0.6820196606    -0.0000455780
   15      H      -2.8547223719    -2.0131984952     0.0000034878
   16      H      -4.5196444138    -0.1581814703     0.0001859544
   17      H      -3.7645743791     2.2072897444     0.0002434091
   18      H      -1.3457877926     2.7551350405     0.0000639328
   19      H       1.3470921769     2.7556020051    -0.0002889058
   20      H       3.7644567675     2.2070861226    -0.0000290838
   21      H       4.5196886014    -0.1586892772     0.0003523623
   22      H       2.8541233867    -2.0133699083     0.0002846009
 ----------------------------------------------------------------

   11    -575.6250383951      5.75e-06  Convergence criterion met
 Total energy in the final basis set =     -575.6250383951
    4    -575.7094109440      8.74e-06  Convergence criterion met
 Total energy in the final basis set =     -575.7094109440

                    Orbital Energies (a.u.)
 --------------------------------------------------------------

 Alpha MOs
 -- Occupied --
-19.0708 -10.2039 -10.1664 -10.1664 -10.1648 -10.1645 -10.1633 -10.1633
-10.1627 -10.1627 -10.1624 -10.1624 -10.1533 -10.1533  -0.9893  -0.8699
 -0.8335  -0.7838  -0.7498  -0.7340  -0.7024  -0.6517  -0.6168  -0.5779
 -0.5625  -0.5433  -0.4967  -0.4869  -0.4613  -0.4343  -0.4336  -0.4198
 -0.4137  -0.4110  -0.4055  -0.3955  -0.3557  -0.3542  -0.3520  -0.3511
 -0.3277  -0.3226  -0.2855  -0.2583  -0.2499  -0.2334  -0.2106  -0.1279

 Beta MOs
 -- Occupied --
-19.0640 -10.2005 -10.1670 -10.1670 -10.1633 -10.1633 -10.1633 -10.1629
-10.1619 -10.1619 -10.1609 -10.1609 -10.1528 -10.1528  -0.9768  -0.8660
 -0.8317  -0.7797  -0.7468  -0.7320  -0.7007  -0.6445  -0.6150  -0.5749
 -0.5613  -0.5401  -0.4933  -0.4857  -0.4592  -0.4321  -0.4318  -0.4189
 -0.4119  -0.4043  -0.3959  -0.3918  -0.3542  -0.3522  -0.3461  -0.3286
 -0.3271  -0.3211  -0.2754  -0.2437  -0.2418  -0.2275  -0.2058

          Ground-State Mulliken Net Atomic Charges

     Atom                 Charge (a.u.)    Spin (a.u.)
  --------------------------------------------------------
      1 O                    -0.591864       0.236533
      2 C                    -0.181207       0.228539
      3 C                     0.658489       0.030255
      4 C                    -0.231143       0.092296
      5 C                    -0.366711      -0.020481
      6 C                    -0.361657       0.136939
      7 C                    -0.503930      -0.055814
      8 C                    -0.004682       0.095989
      9 C                    -0.006806       0.095353
     10 C                    -0.504527      -0.055434
     11 C                    -0.361385       0.136293
     12 C                    -0.365837      -0.020188
     13 C                    -0.229016       0.092121
     14 C                     0.660893       0.030405
     15 H                     0.165107      -0.004865
     16 H                     0.187381      -0.000257
     17 H                     0.197043      -0.009728
     18 H                     0.145020       0.003440
     19 H                     0.145307       0.003421
     20 H                     0.196981      -0.009685
     21 H                     0.187475      -0.000281
     22 H                     0.165071      -0.004853
  --------------------------------------------------------
  Sum of atomic charges =    -1.000000

                    Cartesian Multipole Moments
 -----------------------------------------------------------------
    Charge (ESU x 10^10)
                -4.8032
    Dipole Moment (Debye)
         X      -0.0036      Y       7.9621      Z       0.0008
       Tot       7.9621
    Quadrupole Moments (Debye-Ang)
        XX     -87.2681     XY      -0.0026     YY    -104.5529
        XZ       0.0003     YZ      -0.0005     ZZ     -90.9288

 Total job time:  53.11s(wall), 389.20s(cpu)
        *  Thank you very much for using Q-Chem.  Have a nice day.  *
