 Gaussian 16, Revision A.03,
 Gaussian 16:  ES64L-G16RevA.03 25-Dec-2016

 --------------------------------------
 #P UB3LYP/6-311++G(d,p) nosym opt freq
 --------------------------------------

 -------
 Radical
 -------
 Symbolic Z-matrix:
 Charge = -2 Multiplicity = 2

 SCF Done:  E(UB3LYP) =  -1312.28363182     A.U. after   25 cycles
 SCF Done:  E(UB3LYP) =  -1312.28363161     A.U. after   12 cycles
 SCF Done:  E(UB3LYP) =  -1312.28363178     A.U. after   11 cycles
 Optimization completed.
    -- Stationary point found.
 Normal termination of Gaussian 16 at Sun Jan  7 07:08:48 2024.

 ----------------------------------------------------------------------
 #P Geom=AllCheck Guess=TCheck SCRF=Check GenChk UB3LYP/6-311++G(d,p) F
 req
 ----------------------------------------------------------------------

 Structure from the checkpoint file:  "222-rad.chk"
 -------
 Radical
 -------
 Charge = -2 Multiplicity = 2

                          Input orientation:
 ---------------------------------------------------------------------
 Center     Atomic      Atomic             Coordinates (Angstroms)
 Number     Number       Type             X           Y           Z
 ---------------------------------------------------------------------
      1          8           0       -2.496297   -2.790602   -1.661790
      2         16           0       -2.998901   -2.350574   -0.337953
      3          8           0       -2.573429   -3.154603    0.833165
      4          8           0       -4.484424   -2.136362   -0.352447
      5          6           0       -2.332542   -0.612018   -0.064851
      6          6           0       -3.346674    0.326747    0.054517
      7          6           0       -3.072204    1.688803    0.258380
      8          6           0       -1.769125    2.120267    0.341109
      9          6           0       -0.699181    1.207613    0.225685
     10          6           0        0.650879    1.781648    0.326660
     11          8           0        0.835624    3.022600    0.506997
     12          6           0        1.760435    0.857016    0.207483
     13          6           0        3.093102    1.331235    0.288957
     14          6           0        4.166609    0.471703    0.179126
     15          6           0        3.943088   -0.912392   -0.018534
     16          6           0        2.648265   -1.391984   -0.099595
     17          6           0        1.534479   -0.534084    0.009037
     18          6           0        0.181344   -1.123480   -0.086708
     19          8           0        0.054902   -2.345864   -0.247525
     20          6           0       -0.963246   -0.192747    0.021267
     21          1           0       -4.365232   -0.031179   -0.017478
     22          1           0       -3.894998    2.395090    0.347865
     23          1           0       -1.512333    3.161755    0.495288
     24          1           0        3.230582    2.396315    0.441064
     25          1           0        5.182637    0.854805    0.243975
     26          1           0        4.785628   -1.593855   -0.105981
     27          1           0        2.441015   -2.445856   -0.249851
 ---------------------------------------------------------------------

 SCF Done:  E(UB3LYP) =  -1312.28363178     A.U. after    2 cycles

 Alpha  occ. eigenvalues --  -88.78132 -18.85112 -18.84520 -18.82199 -18.82139
 Alpha  occ. eigenvalues --  -18.82136 -10.00043  -9.99972  -9.97542  -9.97263
 Alpha  occ. eigenvalues --   -9.96638  -9.96625  -9.96350  -9.96182  -9.95904
 Alpha  occ. eigenvalues --   -9.95749  -9.95699  -9.95554  -9.95194  -9.94556
 Alpha  occ. eigenvalues --   -7.83929  -5.80188  -5.80168  -5.80165  -0.83860
 Alpha  occ. eigenvalues --   -0.77892  -0.77306  -0.70479  -0.69889  -0.64832
 Alpha  occ. eigenvalues --   -0.63356  -0.56946  -0.54240  -0.53185  -0.52436
 Alpha  occ. eigenvalues --   -0.44876  -0.42696  -0.40299  -0.38377  -0.35269
 Alpha  occ. eigenvalues --   -0.32340  -0.31894  -0.29372  -0.25890  -0.25049
 Alpha  occ. eigenvalues --   -0.24464  -0.24204  -0.22048  -0.21697  -0.20060
 Alpha  occ. eigenvalues --   -0.19459  -0.18825  -0.18477  -0.18127  -0.17491
 Alpha  occ. eigenvalues --   -0.16385  -0.15412  -0.15274  -0.14592  -0.12954
 Alpha  occ. eigenvalues --   -0.12348  -0.12209  -0.06608  -0.06002  -0.05352
 Alpha  occ. eigenvalues --   -0.05008  -0.04574  -0.03424  -0.03293  -0.02635
 Alpha  occ. eigenvalues --   -0.01744  -0.01340   0.00134   0.01684   0.08127
 Alpha virt. eigenvalues --    0.14176   0.16012   0.16165   0.16313   0.18318
 Alpha virt. eigenvalues --    0.18824   0.19581   0.20557   0.20879   0.21508
 Alpha virt. eigenvalues --    0.22719   0.24077   0.24321   0.25551   0.25654

  Beta  occ. eigenvalues --  -88.78132 -18.84515 -18.83916 -18.82192 -18.82139
  Beta  occ. eigenvalues --  -18.82135 -10.00015  -9.99761  -9.97524  -9.97147
  Beta  occ. eigenvalues --   -9.96656  -9.96623  -9.96412  -9.96065  -9.95903
  Beta  occ. eigenvalues --   -9.95653  -9.95542  -9.95525  -9.95169  -9.94477
  Beta  occ. eigenvalues --   -7.83929  -5.80188  -5.80168  -5.80164  -0.83855
  Beta  occ. eigenvalues --   -0.76888  -0.76245  -0.70478  -0.69878  -0.64590
  Beta  occ. eigenvalues --   -0.63222  -0.56523  -0.54055  -0.53031  -0.52235
  Beta  occ. eigenvalues --   -0.44142  -0.42549  -0.40044  -0.38311  -0.35114
  Beta  occ. eigenvalues --   -0.32149  -0.31740  -0.29257  -0.25663  -0.24886
  Beta  occ. eigenvalues --   -0.24324  -0.24113  -0.22019  -0.21671  -0.19325
  Beta  occ. eigenvalues --   -0.18946  -0.18595  -0.18110  -0.18049  -0.17246
  Beta  occ. eigenvalues --   -0.16154  -0.14977  -0.14549  -0.13081  -0.12809
  Beta  occ. eigenvalues --   -0.12128  -0.11112  -0.06576  -0.05982  -0.05123
  Beta  occ. eigenvalues --   -0.03914  -0.03366  -0.03051  -0.02499  -0.02205
  Beta  occ. eigenvalues --   -0.01273  -0.00979   0.00591   0.01723
  Beta virt. eigenvalues --    0.14107   0.14158   0.16154   0.16302   0.16739
  Beta virt. eigenvalues --    0.18303   0.19566   0.19887   0.20790   0.20857
  Beta virt. eigenvalues --    0.21504   0.22753   0.24084   0.24415   0.25556

 Mulliken charges and spin densities:
               1          2
     1  O   -0.332483   0.001006
     2  S    0.499316   0.002456
     3  O   -0.330344   0.000959
     4  O   -0.363074   0.000834
     5  C   -0.842917  -0.012245
     6  C    0.612339   0.059402
     7  C   -0.262833  -0.000398
     8  C   -0.440173   0.047547
     9  C    0.770440  -0.001361
    10  C   -0.733996   0.119723
    11  O   -0.404018   0.223232
    12  C    0.111518   0.022364
    13  C    0.015564   0.045902
    14  C   -0.414015   0.014247
    15  C   -0.484594   0.093753
    16  C    0.140318  -0.024255
    17  C    0.427441   0.107639
    18  C   -1.034955  -0.009945
    19  O   -0.212736   0.228172
    20  C    0.329914   0.100345
    21  H    0.226757  -0.004429
    22  H    0.111890  -0.000455
    23  H    0.126534  -0.003526
    24  H    0.138744  -0.002807
    25  H    0.095494  -0.001723
    26  H    0.100368  -0.007385
    27  H    0.149499   0.000951
 Sum of Mulliken charges =  -2.00000   1.00000

 Dipole moment (field-independent basis, Debye):
    X=             11.0056    Y=              9.6671    Z=              1.0322  Tot=             14.6848
 Quadrupole moment (field-independent basis, Debye-Ang):
   XX=           -206.0054   YY=           -200.2040   ZZ=           -141.1061
   XY=            -46.8890   XZ=             -7.3594   YZ=             -8.9101

  Exact polarizability: 366.247   3.226 264.771   3.835  19.960 128.177
 Approx polarizability: 538.498  -9.843 477.568   2.969  38.427 209.706

                      1                      2                      3
                      A                      A                      A
 Frequencies --      8.3163                47.3943                86.7664
 Red. masses --     11.1961                 7.3739                 9.3143
 Frc consts  --      0.0005                 0.0098                 0.0413
 IR Inten    --      0.0185                 6.4801                 0.1698

                      4                      5                      6
                      A                      A                      A
 Frequencies --    120.4295               123.0720               161.2732
 Red. masses --      4.5893                10.0786                 7.0134
 Frc consts  --      0.0392                 0.0899                 0.1075
 IR Inten    --      0.1453                 2.9201                 1.3361

                      7                      8                      9
                      A                      A                      A
 Frequencies --    172.1395               204.1993               222.6099
 Red. masses --      8.5064                10.5829                 5.3491
 Frc consts  --      0.1485                 0.2600                 0.1562
 IR Inten    --      0.6984                 0.1710                 0.0206

                     10                     11                     12
                      A                      A                      A
 Frequencies --    277.6004               290.5393               304.0809
 Red. masses --     10.0741                 8.2879                 6.7923
 Frc consts  --      0.4574                 0.4122                 0.3700
 IR Inten    --      0.5770                 1.1584                 0.1098

                     13                     14                     15
                      A                      A                      A
 Frequencies --    344.0792               380.8854               394.6081
 Red. masses --      6.2613                10.4072                 9.6624
 Frc consts  --      0.4368                 0.8896                 0.8865
 IR Inten    --      2.8330                 2.4737                 4.2328

                     16                     17                     18
                      A                      A                      A
 Frequencies --    408.5573               436.8676               447.9249
 Red. masses --      6.5445                 3.4974                 8.6516
 Frc consts  --      0.6436                 0.3933                 1.0227
 IR Inten    --      0.0287                 1.9465                 6.4306

                     19                     20                     21
                      A                      A                      A
 Frequencies --    490.9870               493.1826               497.6237
 Red. masses --     12.6874                 8.0384                 4.5839
 Frc consts  --      1.8020                 1.1520                 0.6688
 IR Inten    --      1.7303                 7.5237                 0.3346

                     22                     23                     24
                      A                      A                      A
 Frequencies --    513.3424               567.3711               599.2088
 Red. masses --     13.5332                 6.0494                15.5579
 Frc consts  --      2.1012                 1.1473                 3.2912
 IR Inten    --     10.5721                20.7919               209.7570

                     25                     26                     27
                      A                      A                      A
 Frequencies --    617.7663               646.8263               653.2531
 Red. masses --      6.5596                 5.2362                 7.3434
 Frc consts  --      1.4749                 1.2907                 1.8463
 IR Inten    --     10.6132                 4.7660                15.3709

                     28                     29                     30
                      A                      A                      A
 Frequencies --    692.4969               694.2752               729.5614
 Red. masses --      7.0967                 2.1330                 3.5405
 Frc consts  --      2.0051                 0.6058                 1.1103
 IR Inten    --      0.6687                71.9359                 0.4289

                     31                     32                     33
                      A                      A                      A
 Frequencies --    737.9633               758.2936               783.8142
 Red. masses --      7.6222                 1.8075                 2.5617
 Frc consts  --      2.4457                 0.6124                 0.9273
 IR Inten    --      2.8977                 3.3801                24.7325

                     34                     35                     36
                      A                      A                      A
 Frequencies --    810.9835               814.6788               837.4285
 Red. masses --      2.2090                 6.9043                 1.6146
 Frc consts  --      0.8560                 2.6999                 0.6671
 IR Inten    --     12.4777                 0.4190                 0.8660

                     37                     38                     39
                      A                      A                      A
 Frequencies --    928.5018               936.3971               943.2768
 Red. masses --      6.9973                 1.3337                 8.3238
 Frc consts  --      3.5543                 0.6890                 4.3637
 IR Inten    --     32.3603                 0.3648                22.5153

                     40                     41                     42
                      A                      A                      A
 Frequencies --    960.9666               968.9362               975.0253
 Red. masses --      1.2615                12.2825                 1.3070
 Frc consts  --      0.6864                 6.7940                 0.7321
 IR Inten    --      0.7205               247.1362                 0.5314

                     43                     44                     45
                      A                      A                      A
 Frequencies --    977.1831              1028.3769              1079.6641
 Red. masses --      1.2993                 2.0459                 2.5483
 Frc consts  --      0.7310                 1.2748                 1.7502
 IR Inten    --      3.8450                33.6596                89.2590

                     46                     47                     48
                      A                      A                      A
 Frequencies --   1104.1125              1118.1192              1120.5492
 Red. masses --      2.0541                 6.7514                 2.7157
 Frc consts  --      1.4753                 4.9730                 2.0090
 IR Inten    --      2.7057               127.8749                45.1098

                     49                     50                     51
                      A                      A                      A
 Frequencies --   1136.4324              1163.2470              1176.8250
 Red. masses --      1.5274                 2.2659                20.6632
 Frc consts  --      1.1622                 1.8065                16.8606
 IR Inten    --     48.7368                14.6095               309.4328

                     52                     53                     54
                      A                      A                      A
 Frequencies --   1185.3940              1194.1936              1226.3128
 Red. masses --      1.6321                 2.1250                 2.3641
 Frc consts  --      1.3512                 1.7855                 2.0947
 IR Inten    --     20.8866                14.0003                40.7000

                     55                     56                     57
                      A                      A                      A
 Frequencies --   1244.0082              1303.3588              1340.2117
 Red. masses --      2.0483                 5.6704                 3.1276
 Frc consts  --      1.8676                 5.6753                 3.3098
 IR Inten    --     79.9817                19.8604                28.0454

                     58                     59                     60
                      A                      A                      A
 Frequencies --   1364.0817              1382.9895              1430.3182
 Red. masses --      9.5297                 3.2310                 2.4576
 Frc consts  --     10.4474                 3.6410                 2.9623
 IR Inten    --     71.8658               196.2814               132.4124

                     61                     62                     63
                      A                      A                      A
 Frequencies --   1466.5559              1474.3264              1505.6191
 Red. masses --      3.2091                 2.5154                 4.9325
 Frc consts  --      4.0666                 3.2214                 6.5878
 IR Inten    --     61.1810                17.1799               318.1600

                     64                     65                     66
                      A                      A                      A
 Frequencies --   1550.9559              1561.0345              1594.8209
 Red. masses --      5.9512                 6.3951                 6.8847
 Frc consts  --      8.4344                 9.1817                10.3172
 IR Inten    --    135.5729                86.2761                12.2239

                     67                     68                     69
                      A                      A                      A
 Frequencies --   1606.8420              1634.6968              3111.3147
 Red. masses --      5.7483                 8.3209                 1.0837
 Frc consts  --      8.7445                13.1008                 6.1810
 IR Inten    --      3.5880                47.0947                33.5005

                     70                     71                     72
                      A                      A                      A
 Frequencies --   3115.7762              3134.5140              3171.9358
 Red. masses --      1.0873                 1.0909                 1.0910
 Frc consts  --      6.2190                 6.3152                 6.4675
 IR Inten    --     79.5452                83.9401                24.9588

                     73                     74                     75
                      A                      A                      A
 Frequencies --   3176.5013              3180.1460              3195.1816
 Red. masses --      1.0916                 1.0911                 1.0900
 Frc consts  --      6.4893                 6.5015                 6.5565
 IR Inten    --     32.6173                18.9474                 8.1747

 - Thermochemistry -
 -------------------
 Temperature   298.150 Kelvin.  Pressure   1.00000 Atm.
 Atom     1 has atomic number  8 and mass  15.99491

 Molecular mass:   287.00142 amu.
 Principal axes and moments of inertia in atomic units:
                           1         2         3
     Eigenvalues --  3000.371717616.34934**********
           X            0.91602  -0.40082  -0.01580
           Y            0.39465   0.90759  -0.14330
           Z            0.07177   0.12503   0.98955
 This molecule is an asymmetric top.
 Rotational symmetry number  1.
 Warning -- assumption of classical behavior for rotation
           may cause significant error
 Rotational temperatures (Kelvin)      0.02887     0.01137     0.00845
 Rotational constants (GHZ):           0.60151     0.23696     0.17602
 Zero-point vibrational energy     467375.6 (Joules/Mol)
                                  111.70546 (Kcal/Mol)
 Warning -- explicit consideration of  25 degrees of freedom as
           vibrations may cause significant error
 Vibrational temperatures:     11.97    68.19   124.84   173.27   177.07
          (Kelvin)            232.04   247.67   293.80   320.29   399.41
                              418.02   437.50   495.05   548.01   567.75
                              587.82   628.56   644.46   706.42   709.58
                              715.97   738.59   816.32   862.13   888.83
                              930.64   939.89   996.35   998.91  1049.68
                             1061.76  1091.02  1127.73  1166.82  1172.14
                             1204.87  1335.91  1347.27  1357.16  1382.62
                             1394.08  1402.84  1405.95  1479.61  1553.40
                             1588.57  1608.72  1612.22  1635.07  1673.65
                             1693.19  1705.52  1718.18  1764.39  1789.85
                             1875.24  1928.27  1962.61  1989.81  2057.91
                             2110.05  2121.23  2166.25  2231.48  2245.98
                             2294.59  2311.89  2351.96  4476.49  4482.91
                             4509.87  4563.71  4570.28  4575.52  4597.15

 Zero-point correction=                           0.178014 (Hartree/Particle)
 Thermal correction to Energy=                    0.193338
 Thermal correction to Enthalpy=                  0.194282
 Thermal correction to Gibbs Free Energy=         0.133000
 Sum of electronic and zero-point Energies=          -1312.105618
 Sum of electronic and thermal Energies=             -1312.090294
 Sum of electronic and thermal Enthalpies=           -1312.089350
 Sum of electronic and thermal Free Energies=        -1312.150632

                     E (Thermal)             CV                S
                      KCal/Mol        Cal/Mol-Kelvin    Cal/Mol-Kelvin
 Total                  121.321             60.534            128.980
 Electronic               0.000              0.000              1.377
 Translational            0.889              2.981             42.861
 Rotational               0.889              2.981             33.815
 Vibrational            119.544             54.572             50.926
 Vibration     1          0.593              1.987              8.377
 Vibration     2          0.595              1.979              4.923
 Vibration     3          0.601              1.958              3.732
 Vibration     4          0.609              1.932              3.093
 Vibration     5          0.610              1.930              3.052
 Vibration     6          0.622              1.890              2.535
 Vibration     7          0.626              1.877              2.412
 Vibration     8          0.640              1.834              2.095
 Vibration     9          0.648              1.807              1.938
 Vibration    10          0.679              1.715              1.548
 Vibration    11          0.687              1.691              1.471
 Vibration    12          0.695              1.666              1.394
 Vibration    13          0.723              1.587              1.193
 Vibration    14          0.751              1.511              1.036
 Vibration    15          0.762              1.482              0.983
 Vibration    16          0.773              1.452              0.932
 Vibration    17          0.797              1.390              0.837
 Vibration    18          0.807              1.365              0.802
 Vibration    19          0.847              1.270              0.681
 Vibration    20          0.849              1.265              0.675
 Vibration    21          0.853              1.255              0.664
 Vibration    22          0.868              1.220              0.626
 Vibration    23          0.923              1.102              0.509
 Vibration    24          0.957              1.033              0.451
 Vibration    25          0.978              0.994              0.420

                           ! Non-Optimized Parameters !
 Normal termination of Gaussian 16 at Sun Jan  7 08:32:25 2024.
