 Q-Chem 5.4, Q-Chem, Inc., Pleasanton, CA (2021)
 Q-Chem 5.4.0 for Intel X86 EM64T Linux

User input:
--------------------------------------------------------------
$molecule
-2 2
O                 -2.4962970000     -2.7906020000     -1.6617900000
S                 -2.9989010000     -2.3505740000     -0.3379530000
O                 -2.5734290000     -3.1546030000      0.8331650000
O                 -4.4844240000     -2.1363620000     -0.3524470000
C                 -2.3325420000     -0.6120180000     -0.0648510000
C                 -3.3466740000      0.3267470000      0.0545170000
C                 -3.0722040000      1.6888030000      0.2583800000
C                 -1.7691250000      2.1202670000      0.3411090000
C                 -0.6991810000      1.2076130000      0.2256850000
C                  0.6508790000      1.7816480000      0.3266600000
O                  0.8356240000      3.0226000000      0.5069970000
C                  1.7604350000      0.8570160000      0.2074830000
C                  3.0931020000      1.3312350000      0.2889570000
C                  4.1666090000      0.4717030000      0.1791260000
C                  3.9430880000     -0.9123920000     -0.0185340000
C                  2.6482650000     -1.3919840000     -0.0995950000
C                  1.5344790000     -0.5340840000      0.0090370000
C                  0.1813440000     -1.1234800000     -0.0867080000
O                  0.0549020000     -2.3458640000     -0.2475250000
C                 -0.9632460000     -0.1927470000      0.0212670000
H                 -4.3652320000     -0.0311790000     -0.0174780000
H                 -3.8949980000      2.3950900000      0.3478650000
H                 -1.5123330000      3.1617550000      0.4952880000
H                  3.2305820000      2.3963150000      0.4410640000
H                  5.1826370000      0.8548050000      0.2439750000
H                  4.7856280000     -1.5938550000     -0.1059810000
H                  2.4410150000     -2.4458560000     -0.2498510000
$end
$rem
MAX_SCF_CYCLES=200
BASIS  =  6-311++G(d,p)
GUI  =  2
JOB_TYPE  =  SP
METHOD  =  B3LYP
SOLVENT_METHOD = PCM
$end
$pcm
theory = CPCM
$end
$solvent
dielectric 37.219
opticaldielectric 1.43
$end

--------------------------------------------------------------

             Standard Nuclear Orientation (Angstroms)
    I     Atom           X                Y                Z
 ----------------------------------------------------------------
    1      O      -2.4962970000    -2.7906020000    -1.6617900000
    2      S      -2.9989010000    -2.3505740000    -0.3379530000
    3      O      -2.5734290000    -3.1546030000     0.8331650000
    4      O      -4.4844240000    -2.1363620000    -0.3524470000
    5      C      -2.3325420000    -0.6120180000    -0.0648510000
    6      C      -3.3466740000     0.3267470000     0.0545170000
    7      C      -3.0722040000     1.6888030000     0.2583800000
    8      C      -1.7691250000     2.1202670000     0.3411090000
    9      C      -0.6991810000     1.2076130000     0.2256850000
   10      C       0.6508790000     1.7816480000     0.3266600000
   11      O       0.8356240000     3.0226000000     0.5069970000
   12      C       1.7604350000     0.8570160000     0.2074830000
   13      C       3.0931020000     1.3312350000     0.2889570000
   14      C       4.1666090000     0.4717030000     0.1791260000
   15      C       3.9430880000    -0.9123920000    -0.0185340000
   16      C       2.6482650000    -1.3919840000    -0.0995950000
   17      C       1.5344790000    -0.5340840000     0.0090370000
   18      C       0.1813440000    -1.1234800000    -0.0867080000
   19      O       0.0549020000    -2.3458640000    -0.2475250000
   20      C      -0.9632460000    -0.1927470000     0.0212670000
   21      H      -4.3652320000    -0.0311790000    -0.0174780000
   22      H      -3.8949980000     2.3950900000     0.3478650000
   23      H      -1.5123330000     3.1617550000     0.4952880000
   24      H       3.2305820000     2.3963150000     0.4410640000
   25      H       5.1826370000     0.8548050000     0.2439750000
   26      H       4.7856280000    -1.5938550000    -0.1059810000
   27      H       2.4410150000    -2.4458560000    -0.2498510000
 ----------------------------------------------------------------

    8   -1312.5488531811      9.26e-06  Convergence criterion met
 Total energy in the final basis set =    -1312.5488531811

                    Orbital Energies (a.u.)
 --------------------------------------------------------------

 Alpha MOs
 -- Occupied --
-89.0392 -19.0840 -19.0839 -19.0801 -19.0735 -19.0731 -10.2266 -10.2225
-10.1971 -10.1855 -10.1759 -10.1711 -10.1710 -10.1705 -10.1704 -10.1702
-10.1696 -10.1689 -10.1680 -10.1670  -8.0976  -6.0603  -6.0603  -6.0594
 -1.1004  -1.0096  -0.9962  -0.9693  -0.9598  -0.8603  -0.8498  -0.7827
 -0.7568  -0.7476  -0.7370  -0.6670  -0.6414  -0.6171  -0.6093  -0.5702
 -0.5422  -0.5313  -0.5216  -0.4813  -0.4637  -0.4630  -0.4546  -0.4500
 -0.4460  -0.4399  -0.4217  -0.4208  -0.4129  -0.4067  -0.4020  -0.3812
 -0.3716  -0.3676  -0.3647  -0.3445  -0.3404  -0.3347  -0.3293  -0.3244
 -0.3012  -0.2865  -0.2810  -0.2672  -0.2555  -0.2530  -0.2483  -0.2470
 -0.2431  -0.2330  -0.1401

 Beta MOs
 -- Occupied --
-89.0392 -19.0839 -19.0839 -19.0800 -19.0683 -19.0679 -10.2251 -10.2203
-10.1970 -10.1844 -10.1752 -10.1707 -10.1702 -10.1700 -10.1700 -10.1696
-10.1691 -10.1688 -10.1678 -10.1671  -8.0976  -6.0603  -6.0603  -6.0594
 -1.1004  -1.0005  -0.9867  -0.9693  -0.9597  -0.8577  -0.8486  -0.7787
 -0.7548  -0.7457  -0.7351  -0.6596  -0.6398  -0.6149  -0.6078  -0.5690
 -0.5404  -0.5292  -0.5201  -0.4792  -0.4624  -0.4619  -0.4531  -0.4494
 -0.4459  -0.4395  -0.4204  -0.4087  -0.4079  -0.4046  -0.3995  -0.3704
 -0.3644  -0.3639  -0.3585  -0.3431  -0.3336  -0.3316  -0.3263  -0.3241
 -0.2994  -0.2863  -0.2805  -0.2522  -0.2512  -0.2448  -0.2427  -0.2420
 -0.2385  -0.2284

          Ground-State Mulliken Net Atomic Charges

     Atom                 Charge (a.u.)    Spin (a.u.)
  --------------------------------------------------------
      1 O                    -0.425366      -0.000493
      2 S                     0.643176       0.005830
      3 O                    -0.423706      -0.000421
      4 O                    -0.438964       0.000517
      5 C                    -0.875434       0.017481
      6 C                     0.601188       0.032528
      7 C                    -0.328149       0.040586
      8 C                    -0.451817       0.023538
      9 C                     0.708034       0.035716
     10 C                    -0.414498       0.127100
     11 O                    -0.486765       0.202074
     12 C                     0.014513      -0.002014
     13 C                     0.052391       0.042846
     14 C                    -0.512667       0.018665
     15 C                    -0.500640       0.050365
     16 C                     0.141297       0.015226
     17 C                     0.312551       0.044500
     18 C                    -0.843293       0.071704
     19 O                    -0.383973       0.201848
     20 C                     0.255522       0.088585
     21 H                     0.245724      -0.002810
     22 H                     0.214589      -0.002910
     23 H                     0.159974      -0.001455
     24 H                     0.171135      -0.002334
     25 H                     0.197160      -0.001942
     26 H                     0.199119      -0.003884
     27 H                     0.168898      -0.000847
  --------------------------------------------------------
  Sum of atomic charges =    -2.000000

                    Cartesian Multipole Moments
 -----------------------------------------------------------------
    Charge (ESU x 10^10)
                -9.6064
    Dipole Moment (Debye)
         X      14.6033      Y      13.2555      Z       1.5891
       Tot      19.7861
    Quadrupole Moments (Debye-Ang)
        XX    -183.6348     XY     -55.5102     YY    -203.2053
        XZ      -8.1084     YZ      -9.2487     ZZ    -141.0080

 Total job time:  127.57s(wall), 438.16s(cpu)
        *  Thank you very much for using Q-Chem.  Have a nice day.  *
