 Gaussian 16, Revision A.03,
 Gaussian 16:  ES64L-G16RevA.03 25-Dec-2016

 ----------------------------------------------------------------
 #P UB3LYP/6-311++G(d,p) SCRF=(PCM,Solvent=n,n-DiMethylFormamide)
 ----------------------------------------------------------------

 ------------------
 Radical PCM in DMF
 ------------------
 Symbolic Z-matrix:
 Charge = -2 Multiplicity = 2

                         Standard orientation:
 ---------------------------------------------------------------------
 Center     Atomic      Atomic             Coordinates (Angstroms)
 Number     Number       Type             X           Y           Z
 ---------------------------------------------------------------------
      1          8           0        2.822980   -1.634329    1.262063
      2         16           0        3.033536   -0.872852    0.007233
      3          8           0        2.858765   -1.622562   -1.260204
      4          8           0        4.329723   -0.116344    0.028975
      5          6           0        1.750741    0.503926   -0.003411
      6          6           0        2.331674    1.763493   -0.002903
      7          6           0        1.556526    2.934489   -0.005135
      8          6           0        0.184123    2.847712   -0.004728
      9          6           0       -0.458460    1.591477   -0.004521
     10          6           0       -1.928681    1.619976   -0.001001
     11          8           0       -2.574080    2.710880    0.001285
     12          6           0       -2.603211    0.337298    0.001824
     13          6           0       -4.018832    0.278375    0.010064
     14          6           0       -4.684876   -0.929787    0.012404
     15          6           0       -3.949104   -2.139477    0.006138
     16          6           0       -2.566538   -2.099744   -0.002687
     17          6           0       -1.862524   -0.877994   -0.004707
     18          6           0       -0.384096   -0.918753   -0.015652
     19          8           0        0.199087   -2.012209   -0.033678
     20          6           0        0.321357    0.381351   -0.007067
     21          1           0        3.412618    1.811439    0.001070
     22          1           0        2.048970    3.904714   -0.005371
     23          1           0       -0.451900    3.725143   -0.004012
     24          1           0       -4.553066    1.222308    0.014339
     25          1           0       -5.772361   -0.954597    0.019071
     26          1           0       -4.469207   -3.094151    0.008226
     27          1           0       -1.972027   -3.006773   -0.008282
 ---------------------------------------------------------------------

 SCF Done:  E(UB3LYP) =  -1312.54070643     A.U. after   20 cycles

 The electronic state is 2-A.
 Alpha  occ. eigenvalues --  -89.03391 -19.07822 -19.07821 -19.07509 -19.07113
 Alpha  occ. eigenvalues --  -19.07005 -10.22350 -10.21952 -10.19492 -10.18354
 Alpha  occ. eigenvalues --  -10.17391 -10.17145 -10.17091 -10.17004 -10.16959
 Alpha  occ. eigenvalues --  -10.16878 -10.16809 -10.16779 -10.16754 -10.16672
 Alpha  occ. eigenvalues --   -8.09225  -6.05496  -6.05488  -6.05413  -1.09469
 Alpha  occ. eigenvalues --   -1.00624  -0.99341  -0.96318  -0.95419  -0.85876
 Alpha  occ. eigenvalues --   -0.84880  -0.78146  -0.75481  -0.74688  -0.73600
 Alpha  occ. eigenvalues --   -0.66505  -0.63994  -0.61563  -0.60701  -0.56877
 Alpha  occ. eigenvalues --   -0.53992  -0.53019  -0.51949  -0.47806  -0.46189
 Alpha  occ. eigenvalues --   -0.46158  -0.45373  -0.44839  -0.43981  -0.43535
 Alpha  occ. eigenvalues --   -0.42056  -0.41937  -0.40941  -0.40499  -0.40011
 Alpha  occ. eigenvalues --   -0.37821  -0.37147  -0.36626  -0.36305  -0.34342
 Alpha  occ. eigenvalues --   -0.33859  -0.33400  -0.32349  -0.31821  -0.29597
 Alpha  occ. eigenvalues --   -0.28172  -0.27584  -0.26536  -0.25423  -0.25045
 Alpha  occ. eigenvalues --   -0.24678  -0.24139  -0.23992  -0.22953  -0.13792
 Alpha virt. eigenvalues --   -0.05362  -0.02024  -0.00614   0.00014   0.00764
 Alpha virt. eigenvalues --    0.01650   0.02471   0.02679   0.04230   0.04386
 Alpha virt. eigenvalues --    0.04685   0.04883   0.05311   0.05774   0.06367

  Beta  occ. eigenvalues --  -89.03392 -19.07820 -19.07818 -19.07503 -19.06548
  Beta  occ. eigenvalues --  -19.06443 -10.22230 -10.21746 -10.19489 -10.18242
  Beta  occ. eigenvalues --  -10.17318 -10.17117 -10.17028 -10.16958 -10.16867
  Beta  occ. eigenvalues --  -10.16820 -10.16764 -10.16755 -10.16752 -10.16691
  Beta  occ. eigenvalues --   -8.09226  -6.05496  -6.05488  -6.05414  -1.09464
  Beta  occ. eigenvalues --   -0.99659  -0.98332  -0.96313  -0.95407  -0.85613
  Beta  occ. eigenvalues --   -0.84762  -0.77744  -0.75287  -0.74505  -0.73409
  Beta  occ. eigenvalues --   -0.65769  -0.63840  -0.61339  -0.60576  -0.56755
  Beta  occ. eigenvalues --   -0.53814  -0.52815  -0.51808  -0.47576  -0.46118
  Beta  occ. eigenvalues --   -0.45986  -0.45224  -0.44785  -0.43963  -0.43498
  Beta  occ. eigenvalues --   -0.42021  -0.40653  -0.40540  -0.40174  -0.39741
  Beta  occ. eigenvalues --   -0.37023  -0.36312  -0.36223  -0.35515  -0.34205
  Beta  occ. eigenvalues --   -0.33277  -0.32791  -0.32201  -0.31802  -0.29410
  Beta  occ. eigenvalues --   -0.28147  -0.27532  -0.25025  -0.24713  -0.24244
  Beta  occ. eigenvalues --   -0.24090  -0.23833  -0.23489  -0.22454
  Beta virt. eigenvalues --   -0.07867  -0.04469  -0.00971  -0.00368   0.00028
  Beta virt. eigenvalues --    0.00764   0.01656   0.02484   0.02678   0.04255
  Beta virt. eigenvalues --    0.04487   0.04685   0.04888   0.05787   0.06024

 Mulliken charges and spin densities:
               1          2
     1  O   -0.411426  -0.000327
     2  S    0.621734   0.005613
     3  O   -0.409580  -0.000256
     4  O   -0.424979   0.000510
     5  C   -0.876598   0.013790
     6  C    0.612976   0.034825
     7  C   -0.322185   0.037575
     8  C   -0.439228   0.024070
     9  C    0.714723   0.035105
    10  C   -0.474104   0.119841
    11  O   -0.467521   0.210209
    12  C    0.028025  -0.000877
    13  C    0.051054   0.043713
    14  C   -0.490133   0.016241
    15  C   -0.493860   0.053535
    16  C    0.146058   0.010369
    17  C    0.333349   0.050477
    18  C   -0.880724   0.057465
    19  O   -0.354639   0.211180
    20  C    0.261617   0.092947
    21  H    0.240286  -0.002906
    22  H    0.195458  -0.002755
    23  H    0.152987  -0.001490
    24  H    0.163429  -0.002481
    25  H    0.179922  -0.001704
    26  H    0.181822  -0.004151
    27  H    0.161538  -0.000518
 Sum of Mulliken charges =  -2.00000   1.00000

 Dipole moment (field-independent basis, Debye):
    X=            -12.1432    Y=              4.7744    Z=              0.0084  Tot=             13.0481
 Quadrupole moment (field-independent basis, Debye-Ang):
   XX=           -207.8738   YY=           -160.6791   ZZ=           -139.6743
   XY=             39.0451   XZ=             -0.1689   YZ=             -0.1385

 Normal termination of Gaussian 16 at Tue Jan 16 16:54:42 2024.
