 Gaussian 16, Revision A.03,
 Gaussian 16:  ES64L-G16RevA.03 25-Dec-2016

 ----------------------------------------------------------------------
 #P UB3LYP/6-311++G(d,p) nosym opt freq SCRF=(PCM,Solvent=n,n-DiMethylF
 ormamide)
 ----------------------------------------------------------------------

 -------
 Radical
 -------
 Symbolic Z-matrix:
 Charge = -1 Multiplicity = 2

 SCF Done:  E(UB3LYP) =  -5643.39598426     A.U. after   19 cycles
 SCF Done:  E(UB3LYP) =  -5643.39619339     A.U. after   14 cycles
 SCF Done:  E(UB3LYP) =  -5643.39622358     A.U. after   13 cycles
 SCF Done:  E(UB3LYP) =  -5643.39622600     A.U. after   12 cycles
 Optimization completed.
    -- Stationary point found.
 Normal termination of Gaussian 16 at Sat Feb 10 11:27:19 2024.

 ----------------------------------------------------------------------
 #P Geom=AllCheck Guess=TCheck SCRF=Check GenChk UB3LYP/6-311++G(d,p) F
 req
 ----------------------------------------------------------------------

 Structure from the checkpoint file:  "109-rad.chk"
 -------
 Radical
 -------
 Charge = -1 Multiplicity = 2

                          Input orientation:
 ---------------------------------------------------------------------
 Center     Atomic      Atomic             Coordinates (Angstroms)
 Number     Number       Type             X           Y           Z
 ---------------------------------------------------------------------
      1          6           0       -1.846533   -3.668898    1.319872
      2          6           0       -0.452790   -3.902950    1.066318
      3          6           0        0.362289   -2.899225    0.588651
      4          6           0       -0.138275   -1.551988    0.314828
      5          6           0       -1.550072   -1.308021    0.566972
      6          6           0       -2.332671   -2.321892    1.040836
      7          8           0       -2.675317   -4.521026    1.757857
      8          8           0        0.610730   -0.641098   -0.120417
      9          8           0       -3.658280   -2.156098    1.297296
     10          6           0       -2.090743    0.067919    0.291274
     11         35           0        0.176305   -5.674620    1.432656
     12         35           0        2.223242   -3.181574    0.241516
     13          1           0       -1.576878    0.819387    0.898572
     14          1           0       -3.157663    0.120250    0.505829
     15          1           0       -1.931428    0.347862   -0.754438
     16          1           0       -3.950170   -3.033201    1.618130
 ---------------------------------------------------------------------

 SCF Done:  E(UB3LYP) =  -5643.39622600     A.U. after    1 cycles

 Alpha  occ. eigenvalues -- -482.83233-482.83068 -62.48507 -62.48340 -56.30542
 Alpha  occ. eigenvalues --  -56.30371 -56.30169 -56.30133 -56.30009 -56.29965
 Alpha  occ. eigenvalues --  -19.15136 -19.09966 -19.08753 -10.24216 -10.24044
 Alpha  occ. eigenvalues --  -10.23342 -10.23203 -10.23102 -10.17554 -10.16072
 Alpha  occ. eigenvalues --   -8.69474  -8.69309  -6.52610  -6.52433  -6.51363
 Alpha  occ. eigenvalues --   -6.51262  -6.51214  -6.51092  -2.63705  -2.63533
 Alpha  occ. eigenvalues --   -2.63364  -2.63289  -2.63203  -2.63112  -2.62295
 Alpha  occ. eigenvalues --   -2.62295  -2.62138  -2.62137  -1.07306  -1.01421
 Alpha  occ. eigenvalues --   -1.01276  -0.86483  -0.80870  -0.79619  -0.74569
 Alpha  occ. eigenvalues --   -0.69456  -0.66929  -0.59912  -0.57765  -0.53875
 Alpha  occ. eigenvalues --   -0.49989  -0.45510  -0.45155  -0.43406  -0.41551
 Alpha  occ. eigenvalues --   -0.41056  -0.40908  -0.40139  -0.39494  -0.37143
 Alpha  occ. eigenvalues --   -0.36994  -0.35935  -0.33755  -0.30713  -0.30680
 Alpha  occ. eigenvalues --   -0.28251  -0.27189  -0.27112  -0.25162  -0.23130
 Alpha  occ. eigenvalues --   -0.17397
 Alpha virt. eigenvalues --   -0.03631  -0.01009  -0.00324   0.00789   0.01485
 Alpha virt. eigenvalues --    0.01772   0.01823   0.03512   0.03973   0.04583
 Alpha virt. eigenvalues --    0.04922   0.04972   0.06083   0.06285   0.07503

  Beta  occ. eigenvalues -- -482.83232-482.83064 -62.48506 -62.48337 -56.30543
  Beta  occ. eigenvalues --  -56.30373 -56.30164 -56.30133 -56.29996 -56.29964
  Beta  occ. eigenvalues --  -19.15102 -19.09300 -19.08137 -10.23992 -10.23937
  Beta  occ. eigenvalues --  -10.23276 -10.23115 -10.22828 -10.17534 -10.16075
  Beta  occ. eigenvalues --   -8.69472  -8.69303  -6.52612  -6.52438  -6.51354
  Beta  occ. eigenvalues --   -6.51262  -6.51191  -6.51090  -2.63706  -2.63533
  Beta  occ. eigenvalues --   -2.63360  -2.63291  -2.63192  -2.63115  -2.62291
  Beta  occ. eigenvalues --   -2.62290  -2.62126  -2.62125  -1.07106  -1.00366
  Beta  occ. eigenvalues --   -1.00184  -0.85978  -0.80694  -0.79435  -0.74327
  Beta  occ. eigenvalues --   -0.68940  -0.66315  -0.59588  -0.57402  -0.53543
  Beta  occ. eigenvalues --   -0.49803  -0.45148  -0.44043  -0.42936  -0.41197
  Beta  occ. eigenvalues --   -0.40700  -0.40148  -0.39978  -0.38268  -0.36976
  Beta  occ. eigenvalues --   -0.35773  -0.35415  -0.32129  -0.30670  -0.30205
  Beta  occ. eigenvalues --   -0.28124  -0.26561  -0.25079  -0.24616  -0.22508
  Beta virt. eigenvalues --   -0.10301  -0.03478  -0.00288   0.00464   0.00924
  Beta virt. eigenvalues --    0.01499   0.01828   0.03529   0.03998   0.04319
  Beta virt. eigenvalues --    0.04651   0.04973   0.05007   0.06082   0.06363

 Mulliken charges and spin densities:
               1          2
     1  C   -0.692859   0.126537
     2  C    0.730220   0.056173
     3  C   -0.110092   0.179878
     4  C   -0.566693   0.064763
     5  C    1.810186   0.027270
     6  C   -1.418069   0.042952
     7  O   -0.454392   0.240743
     8  O   -0.414583   0.225601
     9  O   -0.289250   0.012731
    10  C   -0.168765   0.006736
    11  Br  -0.111190   0.005132
    12  Br  -0.126485   0.012153
    13  H    0.167086   0.001262
    14  H    0.183185  -0.000131
    15  H    0.166602   0.001220
    16  H    0.295099  -0.003018
 Sum of Mulliken charges =  -1.00000   1.00000

 Dipole moment (field-independent basis, Debye):
    X=              2.3181    Y=             13.5647    Z=             -3.6625  Tot=             14.2404
 Quadrupole moment (field-independent basis, Debye-Ang):
   XX=           -116.3757   YY=           -156.9006   ZZ=           -104.3507
   XY=            -16.6451   XZ=              8.7744   YZ=             18.7608

  Exact polarizability: 251.862  19.142 254.216 -38.198 -46.084 132.057
 Approx polarizability: 281.395  39.290 279.014 -47.286 -53.449 151.629

                      1                      2                      3
                      A                      A                      A
 Frequencies --     57.6485                64.6773                95.9672
 Red. masses --      9.5219                 1.4635                 2.8817
 Frc consts  --      0.0186                 0.0036                 0.0156
 IR Inten    --      0.2541                 3.8331                 6.2228

                      4                      5                      6
                      A                      A                      A
 Frequencies --    131.2064               146.2617               181.3916
 Red. masses --     56.3378                 4.6003                10.5908
 Frc consts  --      0.5714                 0.0580                 0.2053
 IR Inten    --      0.9746                 0.5013                 2.1745

                      7                      8                      9
                      A                      A                      A
 Frequencies --    182.2012               256.3669               271.3173
 Red. masses --     10.3761                 8.1627                 9.7134
 Frc consts  --      0.2029                 0.3161                 0.4213
 IR Inten    --      2.3549                 1.8160                 0.2794

                     10                     11                     12
                      A                      A                      A
 Frequencies --    298.8043               313.4068               340.8790
 Red. masses --      4.3758                 5.8100                 6.4575
 Frc consts  --      0.2302                 0.3362                 0.4421
 IR Inten    --      8.9139                 0.3374                29.1598

                     13                     14                     15
                      A                      A                      A
 Frequencies --    375.6156               409.0935               502.3058
 Red. masses --     11.0867                 9.3266                12.7528
 Frc consts  --      0.9216                 0.9196                 1.8958
 IR Inten    --      0.7372                35.8528                12.0212

                     16                     17                     18
                      A                      A                      A
 Frequencies --    529.6322               546.3805               624.7707
 Red. masses --      8.3262                 6.7555                 1.1091
 Frc consts  --      1.3761                 1.1882                 0.2551
 IR Inten    --      6.3678                 1.2391               150.6704

                     19                     20                     21
                      A                      A                      A
 Frequencies --    704.9375               712.6569               719.3872
 Red. masses --      8.4214                10.5911                 5.6763
 Frc consts  --      2.4657                 3.1692                 1.7308
 IR Inten    --      9.9581                12.6986                24.2852

                     22                     23                     24
                      A                      A                      A
 Frequencies --    769.7061               819.5379               953.7889
 Red. masses --      8.3195                10.0860                 2.4714
 Frc consts  --      2.9040                 3.9912                 1.3246
 IR Inten    --     92.6130               199.4092                19.9526

                     25                     26                     27
                      A                      A                      A
 Frequencies --   1042.3324              1045.9254              1117.8828
 Red. masses --      3.1676                 1.4902                 4.4131
 Frc consts  --      2.0276                 0.9605                 3.2493
 IR Inten    --    135.8455                 6.2971                39.9140

                     28                     29                     30
                      A                      A                      A
 Frequencies --   1215.0640              1233.6654              1308.7973
 Red. masses --      7.4539                 8.4506                 1.8850
 Frc consts  --      6.4838                 7.5776                 1.9025
 IR Inten    --    406.5842                89.5147               234.3273

                     31                     32                     33
                      A                      A                      A
 Frequencies --   1393.3607              1414.3444              1445.0367
 Red. masses --      1.5050                 2.6248                10.7278
 Frc consts  --      1.7216                 3.0936                13.1984
 IR Inten    --    117.5755               353.2505                 8.1057

                     34                     35                     36
                      A                      A                      A
 Frequencies --   1468.7921              1474.8923              1508.2840
 Red. masses --      1.0453                 1.1031                 9.0184
 Frc consts  --      1.3287                 1.4138                12.0878
 IR Inten    --     11.5755                31.6498              1211.5734

                     37                     38                     39
                      A                      A                      A
 Frequencies --   1550.7575              1665.6315              3025.5572
 Red. masses --      9.7171                 6.5690                 1.0388
 Frc consts  --     13.7681                10.7377                 5.6024
 IR Inten    --     55.4767                33.0674                60.7391

                     40                     41                     42
                      A                      A                      A
 Frequencies --   3067.0897              3124.9604              3561.0979
 Red. masses --      1.0999                 1.0984                 1.0641
 Frc consts  --      6.0964                 6.3199                 7.9508
 IR Inten    --     33.1684                17.8663               199.8105

 - Thermochemistry -
 -------------------
 Temperature   298.150 Kelvin.  Pressure   1.00000 Atm.
 Atom     1 has atomic number  6 and mass  12.00000

 Molecular mass:   293.85272 amu.
 Principal axes and moments of inertia in atomic units:
                           1         2         3
     Eigenvalues --  3034.142753884.112446907.16635
           X            0.77198   0.59792   0.21574
           Y           -0.63562   0.72278   0.27125
           Z            0.00625  -0.34653   0.93802
 This molecule is an asymmetric top.
 Rotational symmetry number  1.
 Warning -- assumption of classical behavior for rotation
           may cause significant error
 Rotational temperatures (Kelvin)      0.02855     0.02230     0.01254
 Rotational constants (GHZ):           0.59481     0.46465     0.26129
 Zero-point vibrational energy     249250.4 (Joules/Mol)
                                   59.57228 (Kcal/Mol)
 Warning -- explicit consideration of  17 degrees of freedom as
           vibrations may cause significant error
 Vibrational temperatures:     82.94    93.06   138.08   188.78   210.44
          (Kelvin)            260.98   262.15   368.85   390.37   429.91
                              450.92   490.45   540.43   588.59   722.71
                              762.02   786.12   898.91  1014.25  1025.35
                             1035.04  1107.44  1179.13  1372.29  1499.68
                             1504.85  1608.38  1748.21  1774.97  1883.07
                             2004.74  2034.93  2079.09  2113.26  2122.04
                             2170.08  2231.19  2396.47  4353.10  4412.86
                             4496.12  5123.63

 Zero-point correction=                           0.094934 (Hartree/Particle)
 Thermal correction to Energy=                    0.106867
 Thermal correction to Enthalpy=                  0.107811
 Thermal correction to Gibbs Free Energy=         0.054125
 Sum of electronic and zero-point Energies=          -5643.301292
 Sum of electronic and thermal Energies=             -5643.289359
 Sum of electronic and thermal Enthalpies=           -5643.288415
 Sum of electronic and thermal Free Energies=        -5643.342101

                     E (Thermal)             CV                S
                      KCal/Mol        Cal/Mol-Kelvin    Cal/Mol-Kelvin
 Total                   67.060             41.604            112.992
 Electronic               0.000              0.000              1.377
 Translational            0.889              2.981             42.931
 Rotational               0.889              2.981             32.765
 Vibrational             65.283             35.643             35.919
 Vibration     1          0.596              1.974              4.536
 Vibration     2          0.597              1.971              4.309
 Vibration     3          0.603              1.952              3.535
 Vibration     4          0.612              1.922              2.928
 Vibration     5          0.617              1.907              2.720
 Vibration     6          0.630              1.865              2.314
 Vibration     7          0.630              1.864              2.306
 Vibration     8          0.666              1.752              1.686
 Vibration     9          0.675              1.726              1.588
 Vibration    10          0.692              1.676              1.424
 Vibration    11          0.701              1.648              1.344
 Vibration    12          0.720              1.594              1.208
 Vibration    13          0.746              1.522              1.057
 Vibration    14          0.773              1.450              0.930
 Vibration    15          0.858              1.245              0.652
 Vibration    16          0.885              1.184              0.588
 Vibration    17          0.902              1.148              0.552

                           ! Non-Optimized Parameters !
 Normal termination of Gaussian 16 at Sat Feb 10 11:35:52 2024.
