 Q-Chem 5.4, Q-Chem, Inc., Pleasanton, CA (2021)
 Q-Chem 5.4.0 for Intel X86 EM64T Linux

User input:
--------------------------------------------------------------
$molecule
-2 1
N                 -4.5182730000     -0.0480840000      0.1893490000
C                 -3.1239000000     -0.3748570000      0.2778710000
C                 -2.7485260000     -1.6270150000      0.8248610000
C                 -1.4181940000     -1.9601460000      0.9421190000
C                 -0.3863680000     -1.0728110000      0.5510140000
C                  0.9879030000     -1.5030650000      0.7400080000
O                  1.2925860000     -2.6349410000      1.2570280000
C                  1.9909860000     -0.5577010000      0.2984120000
C                  3.3635580000     -0.8782420000      0.4371000000
C                  4.3656770000     -0.0203710000      0.0302170000
C                  4.0187500000      1.2332530000     -0.5500040000
C                  2.6913150000      1.5743300000     -0.7012440000
C                  1.6363540000      0.7133230000     -0.2937320000
C                  0.2709690000      1.1347370000     -0.4806430000
O                  0.0034710000      2.2873530000     -1.0317450000
C                 -0.7431820000      0.2106180000     -0.0258290000
C                 -2.1487710000      0.5135240000     -0.1654220000
N                 -2.5576650000      1.7462980000     -0.7408620000
H                 -5.0140370000     -0.6080900000     -0.5105050000
H                 -4.6298890000      0.9310240000     -0.0528450000
H                 -3.5301370000     -2.2947710000      1.1801180000
H                 -1.1066060000     -2.9089810000      1.3651370000
H                  3.5899560000     -1.8421050000      0.8830010000
H                  5.4116360000     -0.2968200000      0.1515270000
H                  4.8002940000      1.9193690000     -0.8729290000
H                  2.3982910000      2.5223090000     -1.1407610000
H                 -1.6946460000      2.2398740000     -1.0441050000
H                 -3.2015500000      1.6019870000     -1.5171350000
$end
$rem
MAX_SCF_CYCLES=200
BASIS  =  6-311++G(d,p)
GUI  =  2
JOB_TYPE  =  SP
METHOD  =  B3LYP
SOLVENT_METHOD = COSMO
$end
$solvent
dielectric 37.219
opticaldielectric 1.43
$end

--------------------------------------------------------------

             Standard Nuclear Orientation (Angstroms)
    I     Atom           X                Y                Z
 ----------------------------------------------------------------
    1      N       4.5982869051    -0.2055838932     0.0971182669
    2      C       3.2251689951     0.2073664802     0.0431553578
    3      C       2.9287349045     1.5925895385     0.0072768736
    4      C       1.6206644160     2.0197980971    -0.0235999214
    5      C       0.5349520305     1.1112255795     0.0031585114
    6      C      -0.8101028710     1.6591628108    -0.0039210714
    7      O      -1.0428646549     2.9189087241    -0.0160403185
    8      C      -1.8714417222     0.6750775368     0.0017039654
    9      C      -3.2217281195     1.1024247661    -0.0042776812
   10      C      -4.2767287681     0.2120807162    -0.0044281803
   11      C      -4.0096837129    -1.1869304698     0.0020929801
   12      C      -2.7058426150    -1.6355693403     0.0055989543
   13      C      -1.5979117574    -0.7451591106     0.0048030378
   14      C      -0.2612242046    -1.2837133142     0.0100409505
   15      O      -0.0675720816    -2.5745252090     0.0002560023
   16      C       0.8104550688    -0.3138564084     0.0253729025
   17      C       2.1945697196    -0.7275463012     0.0229247826
   18      N       2.5246640630    -2.1092451899     0.0246960834
   19      H       5.1022472529    -0.0248429050    -0.7761176394
   20      H       4.6535869313    -1.1995947122     0.2937217756
   21      H       3.7525671253     2.3018827387     0.0422768047
   22      H       1.3691737937     3.0746423377    -0.0429716070
   23      H      -3.3867805484     2.1756650922    -0.0096197073
   24      H      -5.3036491507     0.5734505216    -0.0085253660
   25      H      -4.8334861937    -1.8991045596     0.0041626039
   26      H      -2.4732963405    -2.6955729013     0.0097369624
   27      H       1.6297900944    -2.6343846518    -0.0369845861
   28      H       3.1533959676    -2.3451089844    -0.7415139342
 ----------------------------------------------------------------

   13    -799.6799439891      4.26e-06  Convergence criterion met
 Total energy in the final basis set =     -799.6799439891
    6    -799.9549637659      3.34e-06  Convergence criterion met
 Total energy in the final basis set =     -799.9549637659

                    Orbital Energies (a.u.)
 --------------------------------------------------------------

 Alpha MOs
 -- Occupied --
-19.0296 -19.0279 -14.2948 -14.2780 -10.1828 -10.1794 -10.1791 -10.1749
-10.1500 -10.1491 -10.1475 -10.1467 -10.1462 -10.1461 -10.1401 -10.1385
-10.1376 -10.1371  -0.9496  -0.9463  -0.9027  -0.8570  -0.8270  -0.8051
 -0.7490  -0.7247  -0.7041  -0.6965  -0.6357  -0.6079  -0.5909  -0.5581
 -0.5305  -0.5138  -0.5031  -0.4801  -0.4649  -0.4454  -0.4435  -0.4358
 -0.4205  -0.4076  -0.3992  -0.3864  -0.3846  -0.3773  -0.3655  -0.3587
 -0.3507  -0.3350  -0.3296  -0.3231  -0.3135  -0.3057  -0.2854  -0.2717
 -0.2326  -0.2301  -0.2136  -0.2105  -0.2023  -0.1883  -0.1091

          Ground-State Mulliken Net Atomic Charges

     Atom                 Charge (a.u.)
  ----------------------------------------
      1 N                    -0.520835
      2 C                    -0.159400
      3 C                    -0.359289
      4 C                    -0.103563
      5 C                     0.344720
      6 C                    -0.428298
      7 O                    -0.688400
      8 C                    -0.004014
      9 C                    -0.009666
     10 C                    -0.486142
     11 C                    -0.537852
     12 C                     0.024439
     13 C                     0.121750
     14 C                    -0.425450
     15 O                    -0.681562
     16 C                     0.224797
     17 C                     0.105237
     18 N                    -0.564924
     19 H                     0.283893
     20 H                     0.269320
     21 H                     0.192578
     22 H                     0.153491
     23 H                     0.152685
     24 H                     0.178264
     25 H                     0.178150
     26 H                     0.158642
     27 H                     0.326199
     28 H                     0.255229
  ----------------------------------------
  Sum of atomic charges =    -2.000000

                    Cartesian Multipole Moments
 -----------------------------------------------------------------
    Charge (ESU x 10^10)
                -9.6064
    Dipole Moment (Debye)
         X       4.3898      Y      -3.1669      Z      -2.8775
       Tot       6.1302
    Quadrupole Moments (Debye-Ang)
        XX    -137.0761     XY       3.9992     YY    -164.9041
        XZ     -12.4115     YZ       3.3742     ZZ    -117.7427

 Total job time:  85.46s(wall), 653.23s(cpu)
        *  Thank you very much for using Q-Chem.  Have a nice day.  *
