 Gaussian 16, Revision A.03,
 Gaussian 16:  ES64L-G16RevA.03 25-Dec-2016

 ----------------------------------------------------------------
 #P UB3LYP/6-311++G(d,p) SCRF=(PCM,Solvent=n,n-DiMethylFormamide)
 ----------------------------------------------------------------

 ------------------
 Quinone PCM in DMF
 ------------------
 Symbolic Z-matrix:
 Charge =  0 Multiplicity = 1

                         Standard orientation:
 ---------------------------------------------------------------------
 Center     Atomic      Atomic             Coordinates (Angstroms)
 Number     Number       Type             X           Y           Z
 ---------------------------------------------------------------------
      1          8           0       -4.653642   -0.781944    0.000346
      2          6           0       -3.390813   -0.276130    0.000265
      3          6           0       -3.262114    1.119821    0.000407
      4          6           0       -2.002404    1.692126    0.000333
      5          6           0       -0.849631    0.894474    0.000083
      6          6           0        0.486193    1.540572   -0.000367
      7          8           0        0.609844    2.755993   -0.000845
      8          6           0        1.682881    0.644211   -0.000088
      9          6           0        2.958151    1.216135    0.000208
     10          6           0        4.088095    0.406206    0.000521
     11          6           0        3.954525   -0.984972    0.000470
     12          6           0        2.690763   -1.563153    0.000116
     13          6           0        1.548638   -0.755949   -0.000158
     14          6           0        0.205525   -1.402263   -0.000399
     15          8           0        0.081124   -2.616446   -0.000574
     16          6           0       -0.988618   -0.503907   -0.000227
     17          6           0       -2.256785   -1.084479   -0.000119
     18          1           0       -4.625177   -1.745276   -0.000116
     19          1           0       -4.158390    1.728080    0.000469
     20          1           0       -1.883389    2.768566    0.000358
     21          1           0        3.038469    2.296117    0.000147
     22          1           0        5.074674    0.855645    0.000777
     23          1           0        4.837066   -1.614511    0.000760
     24          1           0        2.563457   -2.638616    0.000098
     25          1           0       -2.331762   -2.166980   -0.000188
 ---------------------------------------------------------------------

 SCF Done:  E(UB3LYP) =  -764.216237781     A.U. after   14 cycles

 The electronic state is 1-A.
 Alpha  occ. eigenvalues --  -19.17775 -19.13460 -19.12924 -10.28626 -10.28201
 Alpha  occ. eigenvalues --  -10.26714 -10.21435 -10.21007 -10.20950 -10.20479
 Alpha  occ. eigenvalues --  -10.20246 -10.20007 -10.19990 -10.19942 -10.19890
 Alpha  occ. eigenvalues --  -10.19851 -10.19826  -1.09028  -1.06922  -1.06389
 Alpha  occ. eigenvalues --   -0.89585  -0.88345  -0.81293  -0.78340  -0.77951
 Alpha  occ. eigenvalues --   -0.77000  -0.69186  -0.67937  -0.64530  -0.63060
 Alpha  occ. eigenvalues --   -0.58989  -0.58398  -0.56437  -0.53274  -0.51135
 Alpha  occ. eigenvalues --   -0.49680  -0.48909  -0.46317  -0.45941  -0.45795
 Alpha  occ. eigenvalues --   -0.45761  -0.45171  -0.44802  -0.43360  -0.42464
 Alpha  occ. eigenvalues --   -0.42073  -0.40351  -0.38536  -0.38533  -0.37624
 Alpha  occ. eigenvalues --   -0.36816  -0.35489  -0.29009  -0.28938  -0.28276
 Alpha  occ. eigenvalues --   -0.27955  -0.27701  -0.25677
 Alpha virt. eigenvalues --   -0.11892  -0.07440  -0.03552  -0.02703  -0.00834
 Alpha virt. eigenvalues --   -0.00108   0.00771   0.01582   0.01992   0.03166
 Alpha virt. eigenvalues --    0.03426   0.03738   0.03872   0.04194   0.04731

  Beta  occ. eigenvalues --  -19.17775 -19.13460 -19.12924 -10.28626 -10.28201
  Beta  occ. eigenvalues --  -10.26714 -10.21435 -10.21007 -10.20950 -10.20479
  Beta  occ. eigenvalues --  -10.20246 -10.20007 -10.19990 -10.19942 -10.19890
  Beta  occ. eigenvalues --  -10.19851 -10.19826  -1.09028  -1.06922  -1.06389
  Beta  occ. eigenvalues --   -0.89585  -0.88345  -0.81293  -0.78340  -0.77951
  Beta  occ. eigenvalues --   -0.77000  -0.69186  -0.67937  -0.64530  -0.63060
  Beta  occ. eigenvalues --   -0.58989  -0.58398  -0.56437  -0.53274  -0.51135
  Beta  occ. eigenvalues --   -0.49680  -0.48909  -0.46317  -0.45941  -0.45795
  Beta  occ. eigenvalues --   -0.45761  -0.45171  -0.44802  -0.43360  -0.42464
  Beta  occ. eigenvalues --   -0.42073  -0.40351  -0.38536  -0.38533  -0.37624
  Beta  occ. eigenvalues --   -0.36816  -0.35489  -0.29009  -0.28938  -0.28276
  Beta  occ. eigenvalues --   -0.27955  -0.27701  -0.25677
  Beta virt. eigenvalues --   -0.11892  -0.07440  -0.03552  -0.02703  -0.00834
  Beta virt. eigenvalues --   -0.00108   0.00771   0.01582   0.01992   0.03166
  Beta virt. eigenvalues --    0.03426   0.03738   0.03872   0.04194   0.04731

 Mulliken charges and spin densities:
               1          2
     1  O   -0.250185   0.000000
     2  C   -0.592680  -0.000000
     3  C   -0.126557   0.000000
     4  C    0.208697   0.000000
     5  C    0.169157  -0.000000
     6  C   -0.566375   0.000000
     7  O   -0.287064  -0.000000
     8  C    0.133102  -0.000000
     9  C    0.180404  -0.000000
    10  C   -0.419992  -0.000000
    11  C   -0.394457   0.000000
    12  C    0.172022   0.000000
    13  C    0.232386   0.000000
    14  C   -0.612325  -0.000000
    15  O   -0.272847   0.000000
    16  C    0.436263  -0.000000
    17  C    0.295965  -0.000000
    18  H    0.312476  -0.000000
    19  H    0.231836   0.000000
    20  H    0.192478   0.000000
    21  H    0.186735   0.000000
    22  H    0.207009   0.000000
    23  H    0.207787  -0.000000
    24  H    0.185908  -0.000000
    25  H    0.170258   0.000000
 Sum of Mulliken charges =  -0.00000  -0.00000

 Dipole moment (field-independent basis, Debye):
    X=              0.3562    Y=             -1.8406    Z=              0.0018  Tot=              1.8748
 Quadrupole moment (field-independent basis, Debye-Ang):
   XX=            -72.4531   YY=           -105.3434   ZZ=            -99.8284
   XY=              2.4598   XZ=              0.0080   YZ=              0.0039

 Normal termination of Gaussian 16 at Sun Jan 14 01:06:43 2024.
