 Gaussian 16, Revision A.03,
 Gaussian 16:  ES64L-G16RevA.03 25-Dec-2016

 --------------------------------------
 #P UB3LYP/6-311++G(d,p) nosym opt freq
 --------------------------------------

 --------
 Oxidized
 --------
 Symbolic Z-matrix:
 Charge =  0 Multiplicity = 1

 SCF Done:  E(UB3LYP) =  -1109.82729516     A.U. after   16 cycles
 SCF Done:  E(UB3LYP) =  -1109.83366995     A.U. after   17 cycles
 SCF Done:  E(UB3LYP) =  -1109.83554358     A.U. after   17 cycles
 SCF Done:  E(UB3LYP) =  -1109.83620316     A.U. after   18 cycles
 SCF Done:  E(UB3LYP) =  -1109.83660085     A.U. after   17 cycles
 SCF Done:  E(UB3LYP) =  -1109.83714836     A.U. after   14 cycles
 SCF Done:  E(UB3LYP) =  -1109.83759767     A.U. after   17 cycles
 SCF Done:  E(UB3LYP) =  -1109.83793217     A.U. after   14 cycles
 SCF Done:  E(UB3LYP) =  -1109.83806885     A.U. after   14 cycles
 SCF Done:  E(UB3LYP) =  -1109.83809128     A.U. after   14 cycles
 SCF Done:  E(UB3LYP) =  -1109.83810380     A.U. after   13 cycles
 SCF Done:  E(UB3LYP) =  -1109.83811089     A.U. after   12 cycles
 SCF Done:  E(UB3LYP) =  -1109.83811189     A.U. after   11 cycles
 SCF Done:  E(UB3LYP) =  -1109.83811243     A.U. after   11 cycles
 SCF Done:  E(UB3LYP) =  -1109.83811275     A.U. after   11 cycles
 SCF Done:  E(UB3LYP) =  -1109.83811297     A.U. after   11 cycles
 SCF Done:  E(UB3LYP) =  -1109.83811308     A.U. after   11 cycles
 SCF Done:  E(UB3LYP) =  -1109.83811310     A.U. after    9 cycles
 SCF Done:  E(UB3LYP) =  -1109.83811311     A.U. after    9 cycles
 Optimization completed.
    -- Stationary point found.
 Normal termination of Gaussian 16 at Thu Dec 21 09:40:18 2023.

 ----------------------------------------------------------------------
 #P Geom=AllCheck Guess=TCheck SCRF=Check GenChk UB3LYP/6-311++G(d,p) F
 req
 ----------------------------------------------------------------------

 Structure from the checkpoint file:  "149.chk"
 --------
 Oxidized
 --------
 Charge =  0 Multiplicity = 1

                          Input orientation:
 ---------------------------------------------------------------------
 Center     Atomic      Atomic             Coordinates (Angstroms)
 Number     Number       Type             X           Y           Z
 ---------------------------------------------------------------------
      1          6           0       -3.566641    2.997252    1.499770
      2          6           0       -4.546044    2.114594    1.938666
      3          6           0       -4.437898    0.748446    1.660588
      4          6           0       -2.459723    2.522589    0.788549
      5          6           0       -2.352263    1.151862    0.511599
      6          6           0       -3.347432    0.269509    0.946297
      7          6           0       -1.431709    3.507733    0.319785
      8          6           0       -0.188896    2.962187   -0.297682
      9          6           0       -0.103215    1.586411   -0.616958
     10          6           0       -1.191902    0.625051   -0.251950
     11          6           0        0.914225    3.787547   -0.623648
     12          6           0        2.026564    3.253284   -1.280586
     13          6           0        2.066981    1.904196   -1.607523
     14          6           0        1.011689    1.065641   -1.270695
     15          8           0       -1.648746    4.702903    0.437013
     16          8           0       -1.116603   -0.554477   -0.556620
     17          1           0       -3.243233   -0.782643    0.712039
     18          1           0        1.029692    0.008684   -1.500900
     19          1           0       -3.636909    4.059624    1.696453
     20          8           0        0.867974    5.094316   -0.241546
     21          1           0        2.935384    1.507583   -2.121144
     22          1           0       -5.205810    0.063133    2.001037
     23          6           0        1.860789    5.979873   -0.635868
     24          6           0        1.759211    6.622318   -1.878689
     25          6           0        2.893110    6.286704    0.243184
     26          6           0        3.860578    7.220955   -0.122208
     27          6           0        2.738712    7.549186   -2.236458
     28          6           0        3.786312    7.844580   -1.366513
     29          8           0        0.765564    6.310338   -2.766072
     30          6           0       -0.557326    6.759410   -2.408458
     31          1           0       -5.397808    2.487661    2.496180
     32          1           0        2.855989    3.901343   -1.530183
     33          1           0        2.926141    5.785883    1.203632
     34          1           0        4.666351    7.457541    0.562452
     35          1           0        2.659056    8.028161   -3.205302
     36          1           0        4.538377    8.568420   -1.658379
     37          1           0       -1.212523    6.411729   -3.205969
     38          1           0       -0.582044    7.853293   -2.366557
     39          1           0       -0.875987    6.337750   -1.453688
 ---------------------------------------------------------------------

 SCF Done:  E(UB3LYP) =  -1109.83811311     A.U. after    2 cycles

 Alpha  occ. eigenvalues --  -19.18018 -19.14795 -19.12333 -19.11966 -10.27700
 Alpha  occ. eigenvalues --  -10.27596 -10.27013 -10.24804 -10.24410 -10.21562
 Alpha  occ. eigenvalues --  -10.21017 -10.20914 -10.20579 -10.20470 -10.20217
 Alpha  occ. eigenvalues --  -10.19977 -10.19903 -10.19758 -10.19642 -10.19538
 Alpha  occ. eigenvalues --  -10.19222 -10.19070 -10.18984 -10.18914 -10.18784
 Alpha  occ. eigenvalues --   -1.10655  -1.06093  -1.05797  -1.05404  -0.89329
 Alpha  occ. eigenvalues --   -0.88289  -0.86936  -0.81239  -0.79048  -0.77639
 Alpha  occ. eigenvalues --   -0.77201  -0.76804  -0.75071  -0.69794  -0.68821
 Alpha  occ. eigenvalues --   -0.67239  -0.64965  -0.64211  -0.62509  -0.60447
 Alpha  occ. eigenvalues --   -0.58450  -0.57016  -0.56156  -0.53376  -0.51794
 Alpha  occ. eigenvalues --   -0.50978  -0.50907  -0.49606  -0.48857  -0.48593
 Alpha  occ. eigenvalues --   -0.47754  -0.46624  -0.45475  -0.45154  -0.45023
 Alpha  occ. eigenvalues --   -0.44912  -0.44737  -0.44162  -0.43585  -0.42157
 Alpha  occ. eigenvalues --   -0.41735  -0.40837  -0.40254  -0.39041  -0.39029
 Alpha  occ. eigenvalues --   -0.38247  -0.37986  -0.37484  -0.36792  -0.36730
 Alpha  occ. eigenvalues --   -0.35577  -0.34381  -0.29450  -0.28746  -0.28009
 Alpha  occ. eigenvalues --   -0.27688  -0.27602  -0.27025  -0.26241  -0.25181
 Alpha  occ. eigenvalues --   -0.24852
 Alpha virt. eigenvalues --   -0.11232  -0.06830  -0.03893  -0.02801  -0.02295
 Alpha virt. eigenvalues --   -0.02053  -0.00975  -0.00632   0.00148   0.00600
 Alpha virt. eigenvalues --    0.00983   0.01501   0.02198   0.02605   0.02983

  Beta  occ. eigenvalues --  -19.18018 -19.14795 -19.12333 -19.11966 -10.27700
  Beta  occ. eigenvalues --  -10.27596 -10.27013 -10.24804 -10.24410 -10.21562
  Beta  occ. eigenvalues --  -10.21017 -10.20914 -10.20579 -10.20470 -10.20217
  Beta  occ. eigenvalues --  -10.19977 -10.19903 -10.19758 -10.19642 -10.19538
  Beta  occ. eigenvalues --  -10.19222 -10.19070 -10.18984 -10.18914 -10.18784
  Beta  occ. eigenvalues --   -1.10655  -1.06093  -1.05797  -1.05404  -0.89329
  Beta  occ. eigenvalues --   -0.88289  -0.86936  -0.81239  -0.79048  -0.77639
  Beta  occ. eigenvalues --   -0.77201  -0.76804  -0.75071  -0.69794  -0.68821
  Beta  occ. eigenvalues --   -0.67239  -0.64965  -0.64211  -0.62509  -0.60447
  Beta  occ. eigenvalues --   -0.58450  -0.57016  -0.56156  -0.53376  -0.51794
  Beta  occ. eigenvalues --   -0.50978  -0.50907  -0.49606  -0.48857  -0.48593
  Beta  occ. eigenvalues --   -0.47754  -0.46624  -0.45475  -0.45154  -0.45023
  Beta  occ. eigenvalues --   -0.44912  -0.44737  -0.44162  -0.43585  -0.42157
  Beta  occ. eigenvalues --   -0.41735  -0.40837  -0.40254  -0.39041  -0.39029
  Beta  occ. eigenvalues --   -0.38247  -0.37986  -0.37484  -0.36792  -0.36730
  Beta  occ. eigenvalues --   -0.35577  -0.34381  -0.29450  -0.28746  -0.28009
  Beta  occ. eigenvalues --   -0.27688  -0.27602  -0.27025  -0.26241  -0.25181
  Beta  occ. eigenvalues --   -0.24852
  Beta virt. eigenvalues --   -0.11232  -0.06830  -0.03893  -0.02801  -0.02295
  Beta virt. eigenvalues --   -0.02053  -0.00975  -0.00632   0.00148   0.00600
  Beta virt. eigenvalues --    0.00983   0.01501   0.02198   0.02605   0.02983

 Mulliken charges and spin densities:
               1          2
     1  C    0.091613   0.000000
     2  C   -0.349393   0.000000
     3  C   -0.367249  -0.000000
     4  C    0.178163   0.000000
     5  C   -0.086003  -0.000000
     6  C   -0.010189   0.000000
     7  C   -0.292206   0.000000
     8  C    0.533639  -0.000000
     9  C    0.369675  -0.000000
    10  C   -0.769392   0.000000
    11  C   -0.160320   0.000000
    12  C   -0.239529  -0.000000
    13  C   -0.166410   0.000000
    14  C   -0.008908   0.000000
    15  O   -0.167536   0.000000
    16  O   -0.208243  -0.000000
    17  H    0.183581   0.000000
    18  H    0.176745  -0.000000
    19  H    0.171558  -0.000000
    20  O    0.080264   0.000000
    21  H    0.201891   0.000000
    22  H    0.174827  -0.000000
    23  C   -0.047055  -0.000000
    24  C   -0.433786  -0.000000
    25  C    0.207123   0.000000
    26  C   -0.192228   0.000000
    27  C    0.261355   0.000000
    28  C   -0.354647  -0.000000
    29  O   -0.110383   0.000000
    30  C   -0.253257   0.000000
    31  H    0.177206   0.000000
    32  H    0.196006   0.000000
    33  H    0.170586  -0.000000
    34  H    0.184290   0.000000
    35  H    0.204923   0.000000
    36  H    0.164883  -0.000000
    37  H    0.157662   0.000000
    38  H    0.127642  -0.000000
    39  H    0.203101   0.000000
 Sum of Mulliken charges =  -0.00000   0.00000

 Dipole moment (field-independent basis, Debye):
    X=              0.7714    Y=              1.3633    Z=              0.7305  Tot=              1.7284
 Quadrupole moment (field-independent basis, Debye-Ang):
   XX=           -120.5071   YY=           -136.4476   ZZ=           -141.8761
   XY=             10.3121   XZ=             -7.0717   YZ=             -3.6753

  Exact polarizability: 311.309  59.776 295.453 -54.682 -11.031 195.126
 Approx polarizability: 455.744  46.241 485.460 -74.225  13.238 324.456

                      1                      2                      3
                      A                      A                      A
 Frequencies --     17.1731                20.9621                42.3287
 Red. masses --      6.1894                 5.3824                 7.5601
 Frc consts  --      0.0011                 0.0014                 0.0080
 IR Inten    --      0.4732                 0.5299                 4.6566

                      4                      5                      6
                      A                      A                      A
 Frequencies --     52.9850                62.5137                98.1249
 Red. masses --      6.1777                 5.9415                 2.8363
 Frc consts  --      0.0102                 0.0137                 0.0161
 IR Inten    --      1.1721                 0.3802                 9.1798

                      7                      8                      9
                      A                      A                      A
 Frequencies --    112.7404               134.8095               149.6673
 Red. masses --      4.8140                 4.0623                 3.2661
 Frc consts  --      0.0361                 0.0435                 0.0431
 IR Inten    --      0.0956                 0.3943                 2.2185

                     10                     11                     12
                      A                      A                      A
 Frequencies --    155.4359               176.9153               196.1151
 Red. masses --      6.5817                 1.3283                 3.4586
 Frc consts  --      0.0937                 0.0245                 0.0784
 IR Inten    --      0.3645                 0.7772                 0.7386

                     13                     14                     15
                      A                      A                      A
 Frequencies --    220.8648               251.8537               258.1315
 Red. masses --      5.4842                 5.4885                 5.1131
 Frc consts  --      0.1576                 0.2051                 0.2007
 IR Inten    --      1.0272                 1.0776                 2.1711

                     16                     17                     18
                      A                      A                      A
 Frequencies --    321.4577               331.7555               356.0496
 Red. masses --      7.5570                 7.2538                 5.1673
 Frc consts  --      0.4601                 0.4704                 0.3860
 IR Inten    --      3.1244                 0.3429                 1.2542

                     19                     20                     21
                      A                      A                      A
 Frequencies --    369.9966               399.9200               425.5057
 Red. masses --      5.8546                11.3206                 3.7758
 Frc consts  --      0.4722                 1.0668                 0.4028
 IR Inten    --      1.8940                26.0951                 2.0302

                     22                     23                     24
                      A                      A                      A
 Frequencies --    429.7627               431.6875               466.0274
 Red. masses --      6.4568                 5.1624                 5.3555
 Frc consts  --      0.7026                 0.5668                 0.6853
 IR Inten    --      1.8386                 0.3673                 4.7964

                     25                     26                     27
                      A                      A                      A
 Frequencies --    478.9302               492.9594               499.7696
 Red. masses --      9.1868                 3.9669                 4.4761
 Frc consts  --      1.2415                 0.5680                 0.6587
 IR Inten    --      0.3978                 0.6562                 3.6494

                     28                     29                     30
                      A                      A                      A
 Frequencies --    547.9047               553.3828               593.0876
 Red. masses --      5.1613                 4.8005                 4.5303
 Frc consts  --      0.9129                 0.8661                 0.9389
 IR Inten    --      3.5489                 1.6779                 3.6264

                     31                     32                     33
                      A                      A                      A
 Frequencies --    600.4173               616.2827               644.4538
 Red. masses --      6.7335                 6.3425                 5.3291
 Frc consts  --      1.4302                 1.4193                 1.3040
 IR Inten    --      0.9473                 2.5973                 2.4561

                     34                     35                     36
                      A                      A                      A
 Frequencies --    670.5516               675.4663               701.4811
 Red. masses --      4.6894                 5.6750                 6.5177
 Frc consts  --      1.2423                 1.5255                 1.8896
 IR Inten    --      3.0974                 8.6056                 2.9953

                     37                     38                     39
                      A                      A                      A
 Frequencies --    725.8662               744.1082               744.8370
 Red. masses --      2.8353                 3.8226                 2.9062
 Frc consts  --      0.8802                 1.2470                 0.9499
 IR Inten    --     40.6075                23.6093                20.5687

                     40                     41                     42
                      A                      A                      A
 Frequencies --    775.1073               792.5217               793.0147
 Red. masses --      1.4531                 3.4940                 2.2454
 Frc consts  --      0.5144                 1.2930                 0.8320
 IR Inten    --     48.6137                15.8109                 8.6434

                     43                     44                     45
                      A                      A                      A
 Frequencies --    794.9028               816.8144               834.5989
 Red. masses --      2.7098                 2.4702                 2.9846
 Frc consts  --      1.0088                 0.9710                 1.2249
 IR Inten    --      3.2119                15.0376                11.3584

                     46                     47                     48
                      A                      A                      A
 Frequencies --    840.7075               886.5696               906.6651
 Red. masses --      4.9161                 1.7770                 6.7224
 Frc consts  --      2.0472                 0.8229                 3.2559
 IR Inten    --     16.1482                 7.3075               120.8845

                     49                     50                     51
                      A                      A                      A
 Frequencies --    915.7451               927.1389               934.9686
 Red. masses --      1.4132                 6.4007                 1.4131
 Frc consts  --      0.6983                 3.2416                 0.7278
 IR Inten    --      0.2972                 3.0303                 0.5812

                     52                     53                     54
                      A                      A                      A
 Frequencies --    960.4736               992.8867              1001.6932
 Red. masses --      1.3997                 1.3038                 1.3766
 Frc consts  --      0.7608                 0.7573                 0.8138
 IR Inten    --      2.1784                 0.1044                 1.3156

                     55                     56                     57
                      A                      A                      A
 Frequencies --   1006.8753              1012.5269              1017.0009
 Red. masses --      1.3300                 7.9549                 1.3242
 Frc consts  --      0.7944                 4.8050                 0.8070
 IR Inten    --      0.7352                43.1010                 0.0365

                     58                     59                     60
                      A                      A                      A
 Frequencies --   1027.3564              1052.5351              1059.7756
 Red. masses --      5.8898                 1.9627                 2.0569
 Frc consts  --      3.6626                 1.2811                 1.3611
 IR Inten    --     54.5469                14.4354                 2.3018

                     61                     62                     63
                      A                      A                      A
 Frequencies --   1102.6777              1112.7578              1119.3891
 Red. masses --      2.1078                 2.3671                 1.8719
 Frc consts  --      1.5100                 1.7269                 1.3819
 IR Inten    --      5.3467                 0.2974                39.3381

                     64                     65                     66
                      A                      A                      A
 Frequencies --   1172.9328              1173.5709              1175.8321
 Red. masses --      1.2661                 1.8264                 1.1146
 Frc consts  --      1.0262                 1.4821                 0.9079
 IR Inten    --      4.4699                 2.4625                 1.0939

                     67                     68                     69
                      A                      A                      A
 Frequencies --   1183.7484              1192.2997              1195.7809
 Red. masses --      1.3233                 1.4005                 1.4221
 Frc consts  --      1.0925                 1.1730                 1.1981
 IR Inten    --     17.6363                40.6652                 6.3647

                     70                     71                     72
                      A                      A                      A
 Frequencies --   1207.8319              1222.8211              1259.7980
 Red. masses --      1.9940                 2.1551                 2.3009
 Frc consts  --      1.7139                 1.8986                 2.1515
 IR Inten    --      2.8289                99.7214               125.3892

                     73                     74                     75
                      A                      A                      A
 Frequencies --   1263.3694              1283.1335              1286.4838
 Red. masses --      3.1800                 2.1390                 2.2105
 Frc consts  --      2.9904                 2.0749                 2.1555
 IR Inten    --    107.9025               459.3902               285.4015

                     76                     77                     78
                      A                      A                      A
 Frequencies --   1292.4086              1317.6483              1323.2269
 Red. masses --      3.9293                 7.8855                 3.0920
 Frc consts  --      3.8669                 8.0664                 3.1898
 IR Inten    --    147.2982                 2.6776               233.7690

                     79                     80                     81
                      A                      A                      A
 Frequencies --   1352.2900              1361.3697              1463.3706
 Red. masses --      8.3663                 7.9583                 2.7907
 Frc consts  --      9.0142                 8.6901                 3.5210
 IR Inten    --     47.3371                 1.0144                72.6138

                     82                     83                     84
                      A                      A                      A
 Frequencies --   1467.6785              1477.6532              1483.6316
 Red. masses --      1.5311                 2.3210                 2.2244
 Frc consts  --      1.9432                 2.9859                 2.8848
 IR Inten    --     35.5084                22.3759                38.9124

                     85                     86                     87
                      A                      A                      A
 Frequencies --   1487.1797              1494.3025              1507.5582
 Red. masses --      1.8267                 1.1391                 2.5820
 Frc consts  --      2.3804                 1.4986                 3.4575
 IR Inten    --      6.0313                 5.2694                 0.5214

                     88                     89                     90
                      A                      A                      A
 Frequencies --   1514.2146              1521.5515              1603.4065
 Red. masses --      1.0639                 2.5554                 6.1805
 Frc consts  --      1.4372                 3.4856                 9.3618
 IR Inten    --      7.0027               161.8481                22.9261

                     91                     92                     93
                      A                      A                      A
 Frequencies --   1616.2257              1617.0048              1621.7602
 Red. masses --      6.4413                 6.7429                 6.6974
 Frc consts  --      9.9134                10.3878                10.3784
 IR Inten    --     81.7591                 7.2023               111.6011

                     94                     95                     96
                      A                      A                      A
 Frequencies --   1630.1551              1637.1725              1714.3038
 Red. masses --      5.7817                 6.1928                12.3293
 Frc consts  --      9.0523                 9.7797                21.3483
 IR Inten    --     34.2552                10.5266                51.9063

                     97                     98                     99
                      A                      A                      A
 Frequencies --   1724.9399              3017.6321              3100.1559
 Red. masses --     12.2260                 1.0368                 1.0985
 Frc consts  --     21.4329                 5.5625                 6.2203
 IR Inten    --    344.4339                63.0961                11.2046

                    100                    101                    102
                      A                      A                      A
 Frequencies --   3138.4306              3169.2623              3170.6101
 Red. masses --      1.1061                 1.0870                 1.0860
 Frc consts  --      6.4190                 6.4327                 6.4320
 IR Inten    --     14.4557                 3.3947                 0.5879

                    103                    104                    105
                      A                      A                      A
 Frequencies --   3176.9663              3181.8934              3183.9179
 Red. masses --      1.0890                 1.0897                 1.0920
 Frc consts  --      6.4757                 6.5005                 6.5222
 IR Inten    --      8.3033                10.2778                12.4691

                    106                    107                    108
                      A                      A                      A
 Frequencies --   3190.4392              3197.1066              3200.7523
 Red. masses --      1.0935                 1.0976                 1.0927
 Frc consts  --      6.5578                 6.6104                 6.5959
 IR Inten    --      8.9896                 7.5398                 1.7491

                    109                    110                    111
                      A                      A                      A
 Frequencies --   3203.6711              3206.4936              3210.8243
 Red. masses --      1.0942                 1.0911                 1.0940
 Frc consts  --      6.6170                 6.6098                 6.6451
 IR Inten    --     11.6545                 0.2547                 3.9908

 - Thermochemistry -
 -------------------
 Temperature   298.150 Kelvin.  Pressure   1.00000 Atm.
 Atom     1 has atomic number  6 and mass  12.00000

 Molecular mass:   330.08921 amu.
 Principal axes and moments of inertia in atomic units:
                           1         2         3
     Eigenvalues --  3640.19454********************
           X            0.66359  -0.63253   0.39943
           Y            0.69812   0.71548  -0.02680
           Z           -0.26884   0.29663   0.91637
 This molecule is an asymmetric top.
 Rotational symmetry number  1.
 Warning -- assumption of classical behavior for rotation
           may cause significant error
 Rotational temperatures (Kelvin)      0.02379     0.00627     0.00553
 Rotational constants (GHZ):           0.49578     0.13075     0.11519
 Zero-point vibrational energy     775490.0 (Joules/Mol)
                                  185.34655 (Kcal/Mol)
 Warning -- explicit consideration of  32 degrees of freedom as
           vibrations may cause significant error
 Vibrational temperatures:     24.71    30.16    60.90    76.23    89.94
          (Kelvin)            141.18   162.21   193.96   215.34   223.64
                              254.54   282.17   317.78   362.36   371.39
                              462.51   477.32   512.28   532.34   575.40
                              612.21   618.33   621.10   670.51   689.07
                              709.26   719.06   788.31   796.19   853.32
                              863.87   886.69   927.23   964.77   971.85
                             1009.27  1044.36  1070.61  1071.65  1115.21
                             1140.26  1140.97  1143.69  1175.21  1200.80
                             1209.59  1275.58  1304.49  1317.55  1333.95
                             1345.21  1381.91  1428.54  1441.21  1448.67
                             1456.80  1463.24  1478.14  1514.36  1524.78
                             1586.51  1601.01  1610.55  1687.59  1688.51
                             1691.76  1703.15  1715.45  1720.46  1737.80
                             1759.37  1812.57  1817.71  1846.14  1850.96
                             1859.49  1895.80  1903.83  1945.64  1958.71
                             2105.46  2111.66  2126.01  2134.62  2139.72
                             2149.97  2169.04  2178.62  2189.17  2306.94
                             2325.39  2326.51  2333.35  2345.43  2355.53
                             2466.50  2481.80  4341.70  4460.43  4515.50
                             4559.86  4561.80  4570.95  4578.03  4580.95
                             4590.33  4599.92  4605.17  4609.37  4613.43
                             4619.66

 Zero-point correction=                           0.295369 (Hartree/Particle)
 Thermal correction to Energy=                    0.315245
 Thermal correction to Enthalpy=                  0.316189
 Thermal correction to Gibbs Free Energy=         0.244803
 Sum of electronic and zero-point Energies=          -1109.542745
 Sum of electronic and thermal Energies=             -1109.522869
 Sum of electronic and thermal Enthalpies=           -1109.521924
 Sum of electronic and thermal Free Energies=        -1109.593310

                     E (Thermal)             CV                S
                      KCal/Mol        Cal/Mol-Kelvin    Cal/Mol-Kelvin
 Total                  197.819             77.863            150.244
 Electronic               0.000              0.000              0.000
 Translational            0.889              2.981             43.278
 Rotational               0.889              2.981             35.019
 Vibrational            196.041             71.902             71.947
 Vibration     1          0.593              1.986              6.937
 Vibration     2          0.593              1.986              6.541
 Vibration     3          0.595              1.980              5.147
 Vibration     4          0.596              1.976              4.703
 Vibration     5          0.597              1.972              4.376
 Vibration     6          0.604              1.950              3.491
 Vibration     7          0.607              1.939              3.221
 Vibration     8          0.613              1.919              2.876
 Vibration     9          0.618              1.903              2.676
 Vibration    10          0.620              1.897              2.605
 Vibration    11          0.628              1.871              2.361
 Vibration    12          0.636              1.845              2.169
 Vibration    13          0.648              1.809              1.952
 Vibration    14          0.664              1.760              1.718
 Vibration    15          0.667              1.749              1.674
 Vibration    16          0.707              1.632              1.303
 Vibration    17          0.714              1.612              1.252
 Vibration    18          0.732              1.563              1.139
 Vibration    19          0.742              1.534              1.080
 Vibration    20          0.766              1.470              0.963
 Vibration    21          0.787              1.415              0.873
 Vibration    22          0.791              1.405              0.859
 Vibration    23          0.793              1.401              0.853
 Vibration    24          0.823              1.325              0.749
 Vibration    25          0.835              1.297              0.713
 Vibration    26          0.849              1.266              0.676
 Vibration    27          0.855              1.251              0.659
 Vibration    28          0.903              1.144              0.549
 Vibration    29          0.909              1.132              0.537
 Vibration    30          0.951              1.047              0.462
 Vibration    31          0.959              1.031              0.449
 Vibration    32          0.976              0.997              0.422

 Optimization completed.
    -- Stationary point found.
 Normal termination of Gaussian 16 at Thu Dec 21 12:33:30 2023.
