 Q-Chem 5.4, Q-Chem, Inc., Pleasanton, CA (2021)
 Q-Chem 5.4.0 for Intel X86 EM64T Linux

User input:
--------------------------------------------------------------
$molecule
-1 2
O                  3.8942320000      2.7313040000      1.0064330000
C                  3.0060970000      1.8829030000      1.0399140000
N                  2.9229890000      0.9047170000      2.0009290000
C                  1.9419770000     -0.1283600000      2.1401550000
O                  2.0639320000     -0.9032030000      3.0855430000
C                  0.9170300000     -0.1131020000      1.1189970000
N                 -0.0794610000     -1.0448940000      1.1351490000
C                 -0.9960250000     -0.9553500000      0.1409490000
C                 -2.0659800000     -1.8855890000      0.0833500000
C                 -3.0220840000     -1.8237640000     -0.9203700000
C                 -2.9505990000     -0.8313900000     -1.9082980000
C                 -1.9108370000      0.0985150000     -1.8798320000
C                 -0.9313740000      0.0602670000     -0.8782960000
N                  0.0873440000      0.9955910000     -0.8761660000
C                  0.9589800000      0.8781070000      0.1037560000
N                  1.9930250000      1.8192760000      0.1145660000
H                  3.6466270000      0.9094690000      2.7053370000
H                 -2.1047100000     -2.6459290000      0.8559820000
H                 -3.8301560000     -2.5492510000     -0.9394810000
H                 -3.6996620000     -0.7852290000     -2.6922960000
H                 -1.8331640000      0.8763050000     -2.6328870000
H                  1.9918190000      2.5096070000     -0.6223970000
$end
$rem
MAX_SCF_CYCLES=200
BASIS  =  6-311++G(d,p)
GUI  =  2
JOB_TYPE  =  SP
METHOD  =  B3LYP
SOLVENT_METHOD = COSMO
$end
$solvent
dielectric 37.219
opticaldielectric 1.43
$end

--------------------------------------------------------------

             Standard Nuclear Orientation (Angstroms)
    I     Atom           X                Y                Z
 ----------------------------------------------------------------
    1      O       4.1294590065    -1.4787085920     0.0000553006
    2      C       3.0853911530    -0.8309344585     0.0000135132
    3      N       3.0409108379     0.5421373228     0.0000863441
    4      C       1.8933333131     1.3977554239     0.0000588353
    5      O       2.0894978288     2.6104106292     0.0001135364
    6      C       0.6295233833     0.6932717307    -0.0000294697
    7      N      -0.5431054184     1.3907193782    -0.0000928269
    8      C      -1.6778234760     0.6498035505    -0.0001013829
    9      C      -2.9410925207     1.2960366847    -0.0001318975
   10      C      -4.1230101596     0.5690692180     0.0000259972
   11      C      -4.0938542418    -0.8327395793     0.0001763443
   12      C      -2.8677217069    -1.4985005307     0.0001398895
   13      C      -1.6584011214    -0.7903842085    -0.0000412595
   14      N      -0.4584898102    -1.4780139957    -0.0001206307
   15      C       0.6225214867    -0.7262071664    -0.0001103058
   16      N       1.8409237325    -1.4122545204    -0.0001218707
   17      H       3.9322687419     1.0168438107     0.0001529213
   18      H      -2.9436782338     2.3807350024    -0.0002296217
   19      H      -5.0757437454     1.0905821030     0.0000342480
   20      H      -5.0197198234    -1.3990009859     0.0003318965
   21      H      -2.8181878300    -2.5827646113     0.0002434365
   22      H       1.7985341584    -2.4211528954    -0.0001422725
 ----------------------------------------------------------------

    9    -754.4575472222      5.98e-06  Convergence criterion met
 Total energy in the final basis set =     -754.4575472222
    5    -754.5462784343      4.64e-06  Convergence criterion met
 Total energy in the final basis set =     -754.5462784343

                    Orbital Energies (a.u.)
 --------------------------------------------------------------

 Alpha MOs
 -- Occupied --
-19.1060 -19.0979 -14.3606 -14.3551 -14.3020 -14.2987 -10.3206 -10.2794
-10.2579 -10.2046 -10.2025 -10.2016 -10.1682 -10.1676 -10.1645 -10.1645
 -1.0757  -1.0440  -0.9898  -0.9466  -0.9181  -0.8875  -0.8395  -0.7648
 -0.7428  -0.6966  -0.6690  -0.6460  -0.6032  -0.5934  -0.5579  -0.5534
 -0.5154  -0.4915  -0.4809  -0.4731  -0.4652  -0.4447  -0.4396  -0.4300
 -0.4274  -0.4199  -0.4099  -0.3661  -0.3606  -0.3571  -0.3380  -0.3090
 -0.3062  -0.3030  -0.2913  -0.2750  -0.2539  -0.2490  -0.2344  -0.1399

 Beta MOs
 -- Occupied --
-19.1056 -19.0956 -14.3609 -14.3549 -14.2984 -14.2908 -10.3204 -10.2780
-10.2586 -10.2038 -10.2034 -10.2002 -10.1685 -10.1659 -10.1645 -10.1626
 -1.0748  -1.0404  -0.9873  -0.9425  -0.9144  -0.8794  -0.8366  -0.7606
 -0.7403  -0.6896  -0.6684  -0.6442  -0.6010  -0.5909  -0.5560  -0.5517
 -0.5130  -0.4905  -0.4766  -0.4715  -0.4636  -0.4436  -0.4375  -0.4283
 -0.4186  -0.4171  -0.4004  -0.3602  -0.3590  -0.3560  -0.3147  -0.3058
 -0.3024  -0.2955  -0.2854  -0.2720  -0.2481  -0.2374  -0.2239

          Ground-State Mulliken Net Atomic Charges

     Atom                 Charge (a.u.)    Spin (a.u.)
  --------------------------------------------------------
      1 O                    -0.475040       0.012679
      2 C                     0.430689       0.012883
      3 N                    -0.477959      -0.000601
      4 C                     0.299286       0.071084
      5 O                    -0.496755       0.083060
      6 C                    -0.089297       0.097793
      7 N                    -0.232227       0.378235
      8 C                     0.011886      -0.070189
      9 C                    -0.230567       0.106933
     10 C                    -0.364798      -0.028670
     11 C                    -0.284189       0.145726
     12 C                    -0.255120      -0.043534
     13 C                     0.083274       0.123006
     14 N                    -0.248793       0.162208
     15 C                     0.213790      -0.021193
     16 N                    -0.472904      -0.008323
     17 H                     0.426230      -0.000746
     18 H                     0.197992      -0.010501
     19 H                     0.197424       0.001717
     20 H                     0.200357      -0.009776
     21 H                     0.190535      -0.001315
     22 H                     0.376186      -0.000473
  --------------------------------------------------------
  Sum of atomic charges =    -1.000000

                    Cartesian Multipole Moments
 -----------------------------------------------------------------
    Charge (ESU x 10^10)
                -4.8032
    Dipole Moment (Debye)
         X      -4.1742      Y      -4.3202      Z       0.0001
       Tot       6.0073
    Quadrupole Moments (Debye-Ang)
        XX    -121.0404     XY       1.6053     YY    -119.4623
        XZ      -0.0023     YZ      -0.0015     ZZ     -96.6912

 Total job time:  51.96s(wall), 385.24s(cpu)
        *  Thank you very much for using Q-Chem.  Have a nice day.  *
