 Gaussian 16, Revision A.03,
 Gaussian 16:  ES64L-G16RevA.03 25-Dec-2016

 --------------------------------------
 #P UB3LYP/6-311++G(d,p) nosym opt freq
 --------------------------------------

 -------
 Radical
 -------
 Symbolic Z-matrix:
 Charge = -1 Multiplicity = 2

 SCF Done:  E(UB3LYP) =  -1315.08242645     A.U. after   23 cycles
 SCF Done:  E(UB3LYP) =  -1315.09275381     A.U. after   23 cycles
 SCF Done:  E(UB3LYP) =  -1315.09413959     A.U. after   23 cycles
 SCF Done:  E(UB3LYP) =  -1315.09435943     A.U. after   20 cycles
 SCF Done:  E(UB3LYP) =  -1315.09437512     A.U. after   23 cycles
 SCF Done:  E(UB3LYP) =  -1315.09443755     A.U. after   17 cycles
 SCF Done:  E(UB3LYP) =  -1315.09444761     A.U. after   18 cycles
 SCF Done:  E(UB3LYP) =  -1315.09445206     A.U. after   16 cycles
 SCF Done:  E(UB3LYP) =  -1315.09445320     A.U. after   13 cycles
 SCF Done:  E(UB3LYP) =  -1315.09445354     A.U. after   13 cycles
 SCF Done:  E(UB3LYP) =  -1315.09445363     A.U. after   13 cycles
 Optimization completed.
    -- Stationary point found.
 Normal termination of Gaussian 16 at Tue Dec 26 22:48:03 2023.

 ----------------------------------------------------------------------
 #P Geom=AllCheck Guess=TCheck SCRF=Check GenChk UB3LYP/6-311++G(d,p) F
 req
 ----------------------------------------------------------------------

 Structure from the checkpoint file:  "268-rad.chk"
 -------
 Radical
 -------
 Charge = -1 Multiplicity = 2

                          Input orientation:
 ---------------------------------------------------------------------
 Center     Atomic      Atomic             Coordinates (Angstroms)
 Number     Number       Type             X           Y           Z
 ---------------------------------------------------------------------
      1          6           0        1.474455    3.421655   -0.342885
      2          6           0        0.717030    3.143647   -1.467815
      3          6           0        0.038636    1.916512   -1.570690
      4          6           0        1.573313    2.491203    0.707209
      5          6           0        0.890988    1.255766    0.603877
      6          6           0        0.127977    0.988631   -0.547536
      7          6           0        2.396576    2.835929    1.891928
      8          6           0        2.420205    1.821383    2.919012
      9          6           0        1.764359    0.604384    2.820024
     10          6           0        0.971024    0.244872    1.680520
     11          8           0        3.021884    3.915922    1.956207
     12          8           0        0.376678   -0.859161    1.594080
     13         16           0        3.328027    2.143775    4.435060
     14          8           0        2.901409    3.408718    5.050651
     15          8           0        3.281243    0.910261    5.247256
     16          6           0        5.065749    2.340278    3.943893
     17          6           0        5.536772    3.586433    3.536104
     18          6           0        5.909127    1.233629    4.018855
     19          6           0        6.881457    3.718009    3.193965
     20          6           0        7.737374    2.618180    3.259952
     21          6           0        7.251249    1.376904    3.671362
     22          1           0        2.008824    4.358359   -0.235849
     23          1           0        0.646688    3.871822   -2.270037
     24          1           0       -0.555269    1.697897   -2.453044
     25          1           0       -0.382958    0.034147   -0.599492
     26          1           0        1.835721   -0.114287    3.626889
     27          1           0        4.847531    4.416573    3.471212
     28          1           0        5.511457    0.285168    4.357876
     29          1           0        7.259355    4.682250    2.871367
     30          1           0        8.782531    2.727729    2.989196
     31          1           0        7.916229    0.521662    3.727744
 ---------------------------------------------------------------------

 SCF Done:  E(UB3LYP) =  -1315.09445363     A.U. after    2 cycles

 Alpha  occ. eigenvalues --  -88.93174 -18.99519 -18.99437 -18.96929 -18.96607
 Alpha  occ. eigenvalues --  -10.12575 -10.11244 -10.10928 -10.10093 -10.09831
 Alpha  occ. eigenvalues --  -10.09749 -10.09594 -10.09219 -10.08301 -10.07734
 Alpha  occ. eigenvalues --  -10.07656 -10.07215 -10.07090 -10.07002 -10.06901
 Alpha  occ. eigenvalues --  -10.06420  -7.99528  -5.95799  -5.95716  -5.95630
 Alpha  occ. eigenvalues --   -0.98774  -0.89925  -0.88940  -0.88245  -0.78069
 Alpha  occ. eigenvalues --   -0.75762  -0.71076  -0.68110  -0.66956  -0.64898
 Alpha  occ. eigenvalues --   -0.64819  -0.59336  -0.55966  -0.52898  -0.52595
 Alpha  occ. eigenvalues --   -0.51407  -0.48500  -0.46053  -0.44026  -0.41040
 Alpha  occ. eigenvalues --   -0.40512  -0.38086  -0.37759  -0.37163  -0.36319
 Alpha  occ. eigenvalues --   -0.35797  -0.34491  -0.33731  -0.32709  -0.32335
 Alpha  occ. eigenvalues --   -0.31274  -0.31039  -0.29656  -0.29307  -0.28701
 Alpha  occ. eigenvalues --   -0.28574  -0.26807  -0.26681  -0.25459  -0.25106
 Alpha  occ. eigenvalues --   -0.23813  -0.21976  -0.20502  -0.19185  -0.18847
 Alpha  occ. eigenvalues --   -0.17874  -0.17517  -0.16959  -0.15321  -0.15070
 Alpha  occ. eigenvalues --   -0.13483  -0.12570  -0.05025
 Alpha virt. eigenvalues --    0.05120   0.06275   0.06829   0.06911   0.07427
 Alpha virt. eigenvalues --    0.08101   0.08273   0.09423   0.09712   0.11242
 Alpha virt. eigenvalues --    0.11688   0.12505   0.13050   0.13568   0.13837

  Beta  occ. eigenvalues --  -88.93176 -18.99523 -18.99425 -18.96386 -18.95836
  Beta  occ. eigenvalues --  -10.12489 -10.11175 -10.10926 -10.10084 -10.09832
  Beta  occ. eigenvalues --  -10.09743 -10.09598 -10.09211 -10.08170 -10.07718
  Beta  occ. eigenvalues --  -10.07631 -10.07176 -10.07059 -10.07008 -10.06897
  Beta  occ. eigenvalues --  -10.06093  -7.99530  -5.95801  -5.95716  -5.95635
  Beta  occ. eigenvalues --   -0.98751  -0.89027  -0.88212  -0.87606  -0.78060
  Beta  occ. eigenvalues --   -0.75602  -0.70530  -0.68056  -0.66947  -0.64775
  Beta  occ. eigenvalues --   -0.64648  -0.58760  -0.55464  -0.52885  -0.52492
  Beta  occ. eigenvalues --   -0.51155  -0.48379  -0.45897  -0.43931  -0.40906
  Beta  occ. eigenvalues --   -0.40300  -0.37964  -0.37674  -0.36987  -0.36281
  Beta  occ. eigenvalues --   -0.35717  -0.34483  -0.33641  -0.32613  -0.32296
  Beta  occ. eigenvalues --   -0.31003  -0.29936  -0.29200  -0.29040  -0.28543
  Beta  occ. eigenvalues --   -0.28316  -0.26658  -0.25345  -0.24722  -0.23863
  Beta  occ. eigenvalues --   -0.23657  -0.21914  -0.20449  -0.18936  -0.18743
  Beta  occ. eigenvalues --   -0.17675  -0.17444  -0.14838  -0.14583  -0.14053
  Beta  occ. eigenvalues --   -0.12939  -0.11913
  Beta virt. eigenvalues --    0.01838   0.05405   0.06277   0.06869   0.07424
  Beta virt. eigenvalues --    0.07481   0.08265   0.09196   0.09423   0.09719
  Beta virt. eigenvalues --    0.11252   0.11700   0.12519   0.13056   0.13588

 Mulliken charges and spin densities:
               1          2
     1  C    0.204047   0.016948
     2  C   -0.364359   0.020286
     3  C   -0.277742   0.009573
     4  C    0.248540  -0.020381
     5  C    0.466631   0.034270
     6  C    0.022145   0.014004
     7  C   -0.563990   0.055366
     8  C   -0.055925   0.091457
     9  C   -0.100137   0.245490
    10  C   -0.749750   0.059251
    11  O   -0.284727   0.206234
    12  O   -0.361609   0.282701
    13  S    0.251819  -0.024311
    14  O   -0.109981   0.005875
    15  O   -0.172014  -0.002925
    16  C    0.392771   0.005261
    17  C   -0.267064   0.017222
    18  C    0.082611   0.010583
    19  C   -0.408359  -0.006669
    20  C   -0.294808   0.007018
    21  C   -0.484320  -0.001738
    22  H    0.155475  -0.001254
    23  H    0.133019  -0.001760
    24  H    0.135952  -0.000922
    25  H    0.155046  -0.003522
    26  H    0.259788  -0.018148
    27  H    0.295459  -0.001020
    28  H    0.236599   0.001249
    29  H    0.166065   0.000176
    30  H    0.134342  -0.000444
    31  H    0.154478   0.000127
 Sum of Mulliken charges =  -1.00000   1.00000

 Dipole moment (field-independent basis, Debye):
    X=             -8.7730    Y=             -7.9367    Z=            -14.5808  Tot=             18.7765
 Quadrupole moment (field-independent basis, Debye-Ang):
   XX=           -152.8108   YY=           -167.3341   ZZ=           -200.3892
   XY=            -24.8758   XZ=            -35.4276   YZ=            -30.8315

  Exact polarizability: 265.782  38.654 232.006  66.016 -18.851 244.328
 Approx polarizability: 369.516  73.737 453.665  58.870 -40.203 359.700

                      1                      2                      3
                      A                      A                      A
 Frequencies --     26.7235                32.2031                54.1490
 Red. masses --      5.2575                 7.2131                 5.0899
 Frc consts  --      0.0022                 0.0044                 0.0088
 IR Inten    --      0.9916                 0.8868                 1.0021

                      4                      5                      6
                      A                      A                      A
 Frequencies --     85.5965               133.2316               143.1828
 Red. masses --      6.0834                 5.0520                 8.2635
 Frc consts  --      0.0263                 0.0528                 0.0998
 IR Inten    --      1.6864                 0.0936                 0.2244

                      7                      8                      9
                      A                      A                      A
 Frequencies --    152.7559               178.1090               195.8857
 Red. masses --      8.5335                 6.5610                 5.8406
 Frc consts  --      0.1173                 0.1226                 0.1320
 IR Inten    --     10.1101                 0.8478                 1.0347

                     10                     11                     12
                      A                      A                      A
 Frequencies --    223.4671               262.0000               273.2950
 Red. masses --      6.6550                 7.7661                 7.5023
 Frc consts  --      0.1958                 0.3141                 0.3301
 IR Inten    --      0.5038                 0.5623                 1.5172

                     13                     14                     15
                      A                      A                      A
 Frequencies --    284.2677               299.5148               367.8720
 Red. masses --      9.8329                 8.2882                10.0240
 Frc consts  --      0.4682                 0.4381                 0.7993
 IR Inten    --      3.0331                 2.3816                10.8272

                     16                     17                     18
                      A                      A                      A
 Frequencies --    373.5905               413.6308               415.5402
 Red. masses --      7.2537                 2.8984                 7.3180
 Frc consts  --      0.5965                 0.2922                 0.7445
 IR Inten    --      0.9023                 0.5698                 0.6751

                     19                     20                     21
                      A                      A                      A
 Frequencies --    436.3637               457.2565               469.5453
 Red. masses --      3.7980                 5.3718                 9.7904
 Frc consts  --      0.4261                 0.6617                 1.2718
 IR Inten    --      4.3291                 8.8884                 0.2262

                     22                     23                     24
                      A                      A                      A
 Frequencies --    480.5681               496.5110               546.4536
 Red. masses --      5.2047                 6.9032                 7.6513
 Frc consts  --      0.7082                 1.0027                 1.3461
 IR Inten    --      5.6982                 1.7046                45.6403

                     25                     26                     27
                      A                      A                      A
 Frequencies --    574.3997               620.3611               628.5056
 Red. masses --      8.1023                 7.8777                 6.4410
 Frc consts  --      1.5750                 1.7862                 1.4991
 IR Inten    --    121.0180               120.4956                 3.0844

                     28                     29                     30
                      A                      A                      A
 Frequencies --    650.3782               670.4879               695.8398
 Red. masses --      3.4469                 6.0952                 3.4575
 Frc consts  --      0.8590                 1.6144                 0.9863
 IR Inten    --      4.1290                 4.9286                16.3559

                     31                     32                     33
                      A                      A                      A
 Frequencies --    700.9162               718.3947               724.8621
 Red. masses --      1.9231                 6.0129                 6.3249
 Frc consts  --      0.5567                 1.8284                 1.9580
 IR Inten    --     62.6352                70.1888                25.9077

                     34                     35                     36
                      A                      A                      A
 Frequencies --    761.4353               777.4851               796.2651
 Red. masses --      1.8187                 1.6419                 3.9550
 Frc consts  --      0.6213                 0.5848                 1.4774
 IR Inten    --      6.5907                40.8998                 1.0907

                     37                     38                     39
                      A                      A                      A
 Frequencies --    828.7414               833.4381               848.1038
 Red. masses --      6.6874                 6.2488                 1.2505
 Frc consts  --      2.7061                 2.5574                 0.5299
 IR Inten    --     21.3465                 8.3963                 0.7002

                     40                     41                     42
                      A                      A                      A
 Frequencies --    884.8875               885.5597               932.5743
 Red. masses --      1.5249                 1.3943                 1.3882
 Frc consts  --      0.7035                 0.6442                 0.7113
 IR Inten    --      8.8317                 3.8103                 0.8531

                     43                     44                     45
                      A                      A                      A
 Frequencies --    983.1428               984.2485               988.4424
 Red. masses --      1.3794                 1.3664                 1.2668
 Frc consts  --      0.7855                 0.7799                 0.7292
 IR Inten    --      0.7576                 1.9972                 0.0873

                     46                     47                     48
                      A                      A                      A
 Frequencies --    989.2263              1013.9397              1036.9956
 Red. masses --      1.2813                 5.9502                 3.3831
 Frc consts  --      0.7388                 3.6042                 2.1435
 IR Inten    --      0.1507                 6.2475                19.6327

                     49                     50                     51
                      A                      A                      A
 Frequencies --   1040.8406              1057.1477              1087.4369
 Red. masses --      3.0877                 3.3727                 2.8948
 Frc consts  --      1.9708                 2.2207                 2.0168
 IR Inten    --     49.5793                98.4818                66.0491

                     52                     53                     54
                      A                      A                      A
 Frequencies --   1095.4774              1103.2855              1106.5397
 Red. masses --      1.6333                 2.9851                 3.7301
 Frc consts  --      1.1548                 2.1408                 2.6909
 IR Inten    --     16.9416                45.8989                89.8639

                     55                     56                     57
                      A                      A                      A
 Frequencies --   1140.9441              1161.0903              1176.7227
 Red. masses --      1.7232                 1.3683                 1.1148
 Frc consts  --      1.3216                 1.0869                 0.9095
 IR Inten    --     22.3281                 1.3687                 0.0344

                     58                     59                     60
                      A                      A                      A
 Frequencies --   1196.6900              1218.1242              1237.2636
 Red. masses --      1.1539                 2.3688                 8.2195
 Frc consts  --      0.9736                 2.0709                 7.4134
 IR Inten    --      5.7120                 1.7667               108.7965

                     61                     62                     63
                      A                      A                      A
 Frequencies --   1248.5235              1287.8054              1329.5736
 Red. masses --      2.4570                 1.8897                 2.7944
 Frc consts  --      2.2566                 1.8465                 2.9105
 IR Inten    --     46.0367                15.9925                 0.0589

                     64                     65                     66
                      A                      A                      A
 Frequencies --   1344.7968              1351.8560              1377.3657
 Red. masses --      1.8481                 9.3090                 3.4543
 Frc consts  --      1.9692                10.0234                 3.8611
 IR Inten    --      2.6622                 2.2613                 9.7127

                     67                     68                     69
                      A                      A                      A
 Frequencies --   1452.7146              1469.3219              1471.5223
 Red. masses --      3.8201                 3.2022                 2.1663
 Frc consts  --      4.7499                 4.0731                 2.7637
 IR Inten    --    125.9134                91.3373                 8.5636

                     70                     71                     72
                      A                      A                      A
 Frequencies --   1492.8639              1505.5126              1539.1861
 Red. masses --      3.4074                 2.0342                 6.0813
 Frc consts  --      4.4742                 2.7165                 8.4885
 IR Inten    --     20.0585                11.2717               347.7367

                     73                     74                     75
                      A                      A                      A
 Frequencies --   1564.9756              1618.2088              1621.6349
 Red. masses --      7.3168                 6.6602                 5.5459
 Frc consts  --     10.5582                10.2756                 8.5927
 IR Inten    --     93.7839                 3.7076                 4.6917

                     76                     77                     78
                      A                      A                      A
 Frequencies --   1623.8033              1637.8434              3139.9383
 Red. masses --      6.6630                 6.3390                 1.0851
 Frc consts  --     10.3511                10.0188                 6.3034
 IR Inten    --      5.2269                13.0623                12.7481

                     79                     80                     81
                      A                      A                      A
 Frequencies --   3149.6253              3158.5035              3164.5685
 Red. masses --      1.0850                 1.0915                 1.0899
 Frc consts  --      6.3416                 6.4159                 6.4307
 IR Inten    --      1.4403                45.9596                27.0230

                     82                     83                     84
                      A                      A                      A
 Frequencies --   3175.7397              3185.0090              3188.0189
 Red. masses --      1.0954                 1.0916                 1.0929
 Frc consts  --      6.5089                 6.5246                 6.5444
 IR Inten    --     39.6078                 9.2866                22.9481

                     85                     86                     87
                      A                      A                      A
 Frequencies --   3197.8108              3198.9284              3224.7538
 Red. masses --      1.0890                 1.0925                 1.0927
 Frc consts  --      6.5614                 6.5871                 6.6951
 IR Inten    --     12.6647                 4.7591                 8.4288

 - Thermochemistry -
 -------------------
 Temperature   298.150 Kelvin.  Pressure   1.00000 Atm.
 Atom     1 has atomic number  6 and mass  12.00000

 Molecular mass:   298.02998 amu.
 Principal axes and moments of inertia in atomic units:
                           1         2         3
     Eigenvalues --  3418.091459402.64726**********
           X            0.77541   0.39610  -0.49179
           Y            0.12354   0.66859   0.73329
           Z            0.61926  -0.62936   0.46950
 This molecule is an asymmetric top.
 Rotational symmetry number  1.
 Warning -- assumption of classical behavior for rotation
           may cause significant error
 Rotational temperatures (Kelvin)      0.02534     0.00921     0.00811
 Rotational constants (GHZ):           0.52800     0.19194     0.16903
 Zero-point vibrational energy     578228.8 (Joules/Mol)
                                  138.20001 (Kcal/Mol)
 Warning -- explicit consideration of  26 degrees of freedom as
           vibrations may cause significant error
 Vibrational temperatures:     38.45    46.33    77.91   123.15   191.69
          (Kelvin)            206.01   219.78   256.26   281.84   321.52
                              376.96   393.21   409.00   430.93   529.29
                              537.51   595.12   597.87   627.83   657.89
                              675.57   691.43   714.37   786.22   826.43
                              892.56   904.28   935.75   964.68  1001.16
                             1008.46  1033.61  1042.91  1095.54  1118.63
                             1145.65  1192.37  1199.13  1220.23  1273.16
                             1274.12  1341.77  1414.52  1416.11  1422.15
                             1423.28  1458.83  1492.01  1497.54  1521.00
                             1564.58  1576.15  1587.38  1592.06  1641.56
                             1670.55  1693.04  1721.77  1752.61  1780.15
                             1796.35  1852.86  1912.96  1934.86  1945.02
                             1981.72  2090.13  2114.03  2117.19  2147.90
                             2166.10  2214.55  2251.65  2328.24  2333.17
                             2336.29  2356.49  4517.67  4531.61  4544.38
                             4553.11  4569.18  4582.52  4586.85  4600.94
                             4602.54  4639.70

 Zero-point correction=                           0.220236 (Hartree/Particle)
 Thermal correction to Energy=                    0.236946
 Thermal correction to Enthalpy=                  0.237890
 Thermal correction to Gibbs Free Energy=         0.174127
 Sum of electronic and zero-point Energies=          -1314.874218
 Sum of electronic and thermal Energies=             -1314.857508
 Sum of electronic and thermal Enthalpies=           -1314.856564
 Sum of electronic and thermal Free Energies=        -1314.920326

                     E (Thermal)             CV                S
                      KCal/Mol        Cal/Mol-Kelvin    Cal/Mol-Kelvin
 Total                  148.686             65.974            134.199
 Electronic               0.000              0.000              1.377
 Translational            0.889              2.981             42.973
 Rotational               0.889              2.981             34.194
 Vibrational            146.908             60.012             55.655
 Vibration     1          0.593              1.984              6.059
 Vibration     2          0.594              1.983              5.689
 Vibration     3          0.596              1.976              4.660
 Vibration     4          0.601              1.959              3.758
 Vibration     5          0.613              1.920              2.899
 Vibration     6          0.616              1.910              2.761
 Vibration     7          0.619              1.900              2.638
 Vibration     8          0.629              1.869              2.348
 Vibration     9          0.636              1.846              2.171
 Vibration    10          0.649              1.805              1.931
 Vibration    11          0.669              1.742              1.648
 Vibration    12          0.676              1.723              1.575
 Vibration    13          0.683              1.703              1.508
 Vibration    14          0.692              1.675              1.420
 Vibration    15          0.740              1.538              1.089
 Vibration    16          0.745              1.526              1.065
 Vibration    17          0.777              1.441              0.914
 Vibration    18          0.779              1.436              0.907
 Vibration    19          0.797              1.391              0.838
 Vibration    20          0.815              1.345              0.774
 Vibration    21          0.827              1.318              0.739
 Vibration    22          0.837              1.293              0.709
 Vibration    23          0.852              1.258              0.667
 Vibration    24          0.902              1.147              0.552
 Vibration    25          0.931              1.087              0.496
 Vibration    26          0.980              0.989              0.416

 Optimization completed.
    -- Stationary point found.
 Normal termination of Gaussian 16 at Wed Dec 27 01:05:33 2023.
