 Gaussian 16, Revision A.03,
 Gaussian 16:  ES64L-G16RevA.03 25-Dec-2016

 ----------------------------------------------------------------------
 #P UB3LYP/6-311++G(d,p) nosym opt freq SCRF=(PCM,Solvent=n,n-DiMethylF
 ormamide)
 ----------------------------------------------------------------------

 -------
 Radical
 -------
 Symbolic Z-matrix:
 Charge = -1 Multiplicity = 2

 SCF Done:  E(UB3LYP) =  -1003.91305934     A.U. after   20 cycles
 SCF Done:  E(UB3LYP) =  -1003.91337124     A.U. after   16 cycles
 SCF Done:  E(UB3LYP) =  -1003.91341928     A.U. after   15 cycles
 SCF Done:  E(UB3LYP) =  -1003.91344539     A.U. after   13 cycles
 SCF Done:  E(UB3LYP) =  -1003.91345189     A.U. after   13 cycles
 SCF Done:  E(UB3LYP) =  -1003.91345334     A.U. after   10 cycles
 SCF Done:  E(UB3LYP) =  -1003.91345355     A.U. after   11 cycles
 SCF Done:  E(UB3LYP) =  -1003.91345361     A.U. after   10 cycles
 SCF Done:  E(UB3LYP) =  -1003.91345364     A.U. after   10 cycles
 SCF Done:  E(UB3LYP) =  -1003.91345364     A.U. after    9 cycles
 Optimization completed.
    -- Stationary point found.
 Normal termination of Gaussian 16 at Sun Feb 11 04:57:35 2024.

 ----------------------------------------------------------------------
 #P Geom=AllCheck Guess=TCheck SCRF=Check GenChk UB3LYP/6-311++G(d,p) F
 req
 ----------------------------------------------------------------------

 Structure from the checkpoint file:  "291-rad.chk"
 -------
 Radical
 -------
 Charge = -1 Multiplicity = 2

                          Input orientation:
 ---------------------------------------------------------------------
 Center     Atomic      Atomic             Coordinates (Angstroms)
 Number     Number       Type             X           Y           Z
 ---------------------------------------------------------------------
      1          6           0        0.178332    3.773843   -0.168443
      2          6           0       -0.947470    3.667254   -0.965175
      3          6           0       -1.042688    2.630814   -1.913310
      4          6           0        1.242661    2.854155   -0.291087
      5          6           0        1.149522    1.805977   -1.250339
      6          6           0       -0.007225    1.719741   -2.047342
      7          6           0        2.421617    2.962357    0.543815
      8          6           0        3.457065    1.979394    0.343696
      9          6           0        3.400633    0.949837   -0.575283
     10          6           0        2.236733    0.820479   -1.419827
     11          8           0        2.604501    3.859665    1.435873
     12          8           0        2.135624   -0.104614   -2.277376
     13          1           0        0.262825    4.566754    0.565331
     14          1           0       -1.757149    4.381420   -0.859957
     15          1           0       -1.925558    2.546934   -2.537711
     16          1           0       -0.067393    0.917775   -2.773379
     17          8           0        4.539753    2.137585    1.159872
     18          1           0        4.302741    2.922252    1.697024
     19          6           0        4.541248   -0.025763   -0.727441
     20          6           0        5.579320    0.423502   -1.778082
     21          6           0        6.692044   -0.601331   -2.074890
     22          6           0        7.523947   -0.138654   -3.288215
     23          6           0        8.507880   -1.174261   -3.849530
     24          6           0        9.236943   -0.677774   -5.105152
     25          6           0       10.167582   -1.704121   -5.779078
     26          6           0       10.672389   -1.169365   -7.127042
     27          6           0        7.572909   -0.863300   -0.843397
     28          6           0       11.349963   -2.104713   -4.884484
     29          1           0        4.132528   -0.992981   -1.034007
     30          1           0        5.028464   -0.162189    0.240616
     31          1           0        6.036606    1.367244   -1.453881
     32          1           0        5.047403    0.640957   -2.710579
     33          1           0        6.203153   -1.547152   -2.351007
     34          1           0        8.073181    0.773294   -3.015289
     35          1           0        6.833266    0.151535   -4.089976
     36          1           0        7.959453   -2.094176   -4.093148
     37          1           0        9.239198   -1.445455   -3.082552
     38          1           0        9.821301    0.219155   -4.856072
     39          1           0        8.487255   -0.357222   -5.839797
     40          1           0        9.574625   -2.607480   -5.978849
     41          1           0        9.840681   -0.922356   -7.793909
     42          1           0       11.303498   -1.905232   -7.634729
     43          1           0       11.268658   -0.260564   -6.986431
     44          1           0        8.342025   -1.612117   -1.047838
     45          1           0        6.986225   -1.226284    0.003915
     46          1           0        8.078003    0.057765   -0.529689
     47          1           0       11.021250   -2.560240   -3.947157
     48          1           0       11.960312   -1.228862   -4.635433
     49          1           0       11.996477   -2.826396   -5.393151
 ---------------------------------------------------------------------

 SCF Done:  E(UB3LYP) =  -1003.91345364     A.U. after    2 cycles

 Alpha  occ. eigenvalues --  -19.14319 -19.08413 -19.07218 -10.22202 -10.22073
 Alpha  occ. eigenvalues --  -10.21992 -10.17449 -10.17248 -10.17228 -10.17113
 Alpha  occ. eigenvalues --  -10.17082 -10.16941 -10.16845 -10.16520 -10.16225
 Alpha  occ. eigenvalues --  -10.15705 -10.15673 -10.15639 -10.15578 -10.15524
 Alpha  occ. eigenvalues --  -10.15237 -10.15207 -10.15014  -1.06204  -0.99488
 Alpha  occ. eigenvalues --   -0.99289  -0.85798  -0.81985  -0.80949  -0.79678
 Alpha  occ. eigenvalues --   -0.76237  -0.75015  -0.73973  -0.70794  -0.67986
 Alpha  occ. eigenvalues --   -0.67343  -0.66895  -0.63846  -0.61699  -0.59937
 Alpha  occ. eigenvalues --   -0.57750  -0.56882  -0.55749  -0.54859  -0.53573
 Alpha  occ. eigenvalues --   -0.50439  -0.48314  -0.47521  -0.46371  -0.45553
 Alpha  occ. eigenvalues --   -0.45140  -0.43908  -0.43743  -0.43372  -0.42843
 Alpha  occ. eigenvalues --   -0.42554  -0.41583  -0.41250  -0.41001  -0.39481
 Alpha  occ. eigenvalues --   -0.38808  -0.38499  -0.38369  -0.38031  -0.37683
 Alpha  occ. eigenvalues --   -0.37492  -0.36656  -0.35692  -0.34976  -0.34706
 Alpha  occ. eigenvalues --   -0.34421  -0.34176  -0.33872  -0.33488  -0.32549
 Alpha  occ. eigenvalues --   -0.31823  -0.31556  -0.31421  -0.30831  -0.29734
 Alpha  occ. eigenvalues --   -0.26621  -0.25754  -0.25701  -0.23804  -0.22693
 Alpha  occ. eigenvalues --   -0.15071
 Alpha virt. eigenvalues --   -0.03268  -0.00827  -0.00551  -0.00178   0.00498
 Alpha virt. eigenvalues --    0.00735   0.01097   0.01326   0.01964   0.02300
 Alpha virt. eigenvalues --    0.02516   0.03429   0.03669   0.03848   0.03935

  Beta  occ. eigenvalues --  -19.14271 -19.07778 -19.06675 -10.22067 -10.21970
  Beta  occ. eigenvalues --  -10.21708 -10.17433 -10.17223 -10.17139 -10.17038
  Beta  occ. eigenvalues --  -10.17030 -10.16961 -10.16845 -10.16519 -10.16146
  Beta  occ. eigenvalues --  -10.15712 -10.15673 -10.15639 -10.15578 -10.15515
  Beta  occ. eigenvalues --  -10.15237 -10.15207 -10.15014  -1.05998  -0.98536
  Beta  occ. eigenvalues --   -0.98204  -0.85565  -0.81932  -0.80784  -0.79510
  Beta  occ. eigenvalues --   -0.76076  -0.74804  -0.73909  -0.70636  -0.67986
  Beta  occ. eigenvalues --   -0.67211  -0.66238  -0.63699  -0.61524  -0.59775
  Beta  occ. eigenvalues --   -0.57649  -0.56637  -0.55747  -0.54854  -0.53400
  Beta  occ. eigenvalues --   -0.50209  -0.48056  -0.47510  -0.46235  -0.45459
  Beta  occ. eigenvalues --   -0.45092  -0.43882  -0.43402  -0.43326  -0.42531
  Beta  occ. eigenvalues --   -0.42032  -0.41335  -0.41008  -0.40647  -0.39235
  Beta  occ. eigenvalues --   -0.38425  -0.38347  -0.38014  -0.37674  -0.37615
  Beta  occ. eigenvalues --   -0.37340  -0.35772  -0.35574  -0.34835  -0.34531
  Beta  occ. eigenvalues --   -0.33967  -0.33722  -0.33381  -0.32751  -0.32409
  Beta  occ. eigenvalues --   -0.31797  -0.31547  -0.31378  -0.30822  -0.29666
  Beta  occ. eigenvalues --   -0.25193  -0.24999  -0.24639  -0.23291  -0.21763
  Beta virt. eigenvalues --   -0.08515  -0.02518  -0.00585  -0.00164   0.00268
  Beta virt. eigenvalues --    0.00531   0.00750   0.01101   0.01340   0.01972
  Beta virt. eigenvalues --    0.02308   0.02522   0.03445   0.03676   0.03863

 Mulliken charges and spin densities:
               1          2
     1  C   -0.034859   0.071448
     2  C   -0.345464  -0.000392
     3  C   -0.479019   0.070275
     4  C    0.574376  -0.005160
     5  C   -0.184930   0.063567
     6  C    0.088333   0.004601
     7  C   -1.012387   0.165012
     8  C   -0.736437   0.056169
     9  C    2.139286   0.055991
    10  C   -0.843865   0.074433
    11  O   -0.527745   0.232287
    12  O   -0.458506   0.201413
    13  H    0.165026  -0.004108
    14  H    0.182987  -0.000620
    15  H    0.178077  -0.004979
    16  H    0.167803  -0.000452
    17  O   -0.267154   0.016286
    18  H    0.287787  -0.003738
    19  C    0.002185   0.009605
    20  C   -1.086701  -0.004926
    21  C    1.240885   0.006278
    22  C   -0.719016  -0.006638
    23  C    0.007884  -0.000024
    24  C   -0.865499   0.000044
    25  C    0.527249   0.000051
    26  C   -0.658447   0.000008
    27  C   -0.743775  -0.000111
    28  C   -0.690986  -0.000012
    29  H    0.208849   0.002088
    30  H    0.206487  -0.000724
    31  H    0.176939   0.002718
    32  H    0.168678  -0.000894
    33  H    0.124258   0.000669
    34  H    0.145556  -0.000096
    35  H    0.105098  -0.000142
    36  H    0.148809  -0.000017
    37  H    0.086137   0.000110
    38  H    0.141000  -0.000008
    39  H    0.129645  -0.000014
    40  H    0.139828   0.000002
    41  H    0.135947  -0.000001
    42  H    0.158059  -0.000001
    43  H    0.139786  -0.000001
    44  H    0.149623   0.000090
    45  H    0.139522  -0.000037
    46  H    0.154982  -0.000050
    47  H    0.141708  -0.000000
    48  H    0.146840  -0.000000
    49  H    0.145161   0.000000
 Sum of Mulliken charges =  -1.00000   1.00000

 Dipole moment (field-independent basis, Debye):
    X=            -12.2115    Y=             -8.4129    Z=              2.2204  Tot=             14.9942
 Quadrupole moment (field-independent basis, Debye-Ang):
   XX=           -181.9947   YY=           -177.5056   ZZ=           -163.9407
   XY=            -23.7774   XZ=              5.0945   YZ=             -9.5884

  Exact polarizability: 418.885 -57.081 365.791  39.934  75.952 354.973
 Approx polarizability: 431.221 -41.678 412.571  60.060  93.975 393.139

                      1                      2                      3
                      A                      A                      A
 Frequencies --     12.8168                17.1498                24.2476
 Red. masses --      4.9924                 2.6718                 4.6746
 Frc consts  --      0.0005                 0.0005                 0.0016
 IR Inten    --      0.1960                 0.1699                 0.3766

                      4                      5                      6
                      A                      A                      A
 Frequencies --     39.6731                46.6253                68.2036
 Red. masses --      3.5401                 3.4640                 3.8742
 Frc consts  --      0.0033                 0.0044                 0.0106
 IR Inten    --      1.9510                 1.1452                 5.9347

                      7                      8                      9
                      A                      A                      A
 Frequencies --     87.6279               100.2379               104.2858
 Red. masses --      4.7633                 3.0097                 1.7330
 Frc consts  --      0.0215                 0.0178                 0.0111
 IR Inten    --      5.9567                 1.8088                 0.0805

                     10                     11                     12
                      A                      A                      A
 Frequencies --    115.4273               135.1992               151.3136
 Red. masses --      4.1263                 2.0735                 5.3579
 Frc consts  --      0.0324                 0.0223                 0.0723
 IR Inten    --      0.5567                 0.2332                 0.2555

                     13                     14                     15
                      A                      A                      A
 Frequencies --    172.3777               181.0352               224.1090
 Red. masses --      3.5903                 6.7449                 1.1156
 Frc consts  --      0.0629                 0.1302                 0.0330
 IR Inten    --      0.3949                 2.0820                 0.0084

                     16                     17                     18
                      A                      A                      A
 Frequencies --    232.8055               241.6629               244.4118
 Red. masses --      1.4747                 2.1487                 1.3331
 Frc consts  --      0.0471                 0.0739                 0.0469
 IR Inten    --      0.0055                 0.0772                 0.0177

                     19                     20                     21
                      A                      A                      A
 Frequencies --    255.2537               265.7108               300.6279
 Red. masses --      3.2568                 2.0976                 2.7840
 Frc consts  --      0.1250                 0.0873                 0.1482
 IR Inten    --      4.9374                 1.5500                 4.7665

                     22                     23                     24
                      A                      A                      A
 Frequencies --    324.9160               339.6747               375.8449
 Red. masses --      4.4558                 4.8790                 5.1171
 Frc consts  --      0.2772                 0.3317                 0.4259
 IR Inten    --      6.5447                22.3004                19.7369

                     25                     26                     27
                      A                      A                      A
 Frequencies --    379.5291               380.9625               416.9521
 Red. masses --      4.4631                 2.3061                 2.0750
 Frc consts  --      0.3788                 0.1972                 0.2125
 IR Inten    --     10.3313                 0.0416                 0.4242

                     28                     29                     30
                      A                      A                      A
 Frequencies --    426.0500               426.5652               431.4930
 Red. masses --      2.8774                 4.0137                 7.2004
 Frc consts  --      0.3077                 0.4303                 0.7899
 IR Inten    --      4.7751                 2.3788                 3.5469

                     31                     32                     33
                      A                      A                      A
 Frequencies --    447.5507               469.4690               490.8832
 Red. masses --      3.5221                 3.6777                 3.0737
 Frc consts  --      0.4157                 0.4776                 0.4364
 IR Inten    --      4.0946                 2.5849                 2.3241

                     34                     35                     36
                      A                      A                      A
 Frequencies --    510.5256               537.7545               576.5656
 Red. masses --      4.1019                 4.9874                 5.0022
 Frc consts  --      0.6299                 0.8497                 0.9797
 IR Inten    --      1.6141                 2.8691                 2.5736

                     37                     38                     39
                      A                      A                      A
 Frequencies --    643.4974               655.1743               675.2727
 Red. masses --      5.7119                 1.1088                 5.7769
 Frc consts  --      1.3936                 0.2804                 1.5520
 IR Inten    --     34.4947               137.0378                 9.9877

                     40                     41                     42
                      A                      A                      A
 Frequencies --    696.8775               707.2927               711.2078
 Red. masses --      3.2057                 3.2651                 5.6829
 Frc consts  --      0.9172                 0.9624                 1.6936
 IR Inten    --      6.6528                75.9644                12.6117

                     43                     44                     45
                      A                      A                      A
 Frequencies --    738.6254               756.4052               763.5501
 Red. masses --      1.1422                 1.7259                 2.8923
 Frc consts  --      0.3672                 0.5818                 0.9935
 IR Inten    --      3.0422                 5.2376                26.1821

                     46                     47                     48
                      A                      A                      A
 Frequencies --    786.1938               800.3440               838.5355
 Red. masses --      2.0532                 2.2306                 1.7033
 Frc consts  --      0.7477                 0.8418                 0.7056
 IR Inten    --     29.2099                 0.4415                 1.8928

                     49                     50                     51
                      A                      A                      A
 Frequencies --    849.8393               874.9521               879.9983
 Red. masses --      2.6102                 2.3073                 1.3850
 Frc consts  --      1.1107                 1.0407                 0.6319
 IR Inten    --     23.1939                28.8155                 0.0830

                     52                     53                     54
                      A                      A                      A
 Frequencies --    925.8396               932.9010               941.4347
 Red. masses --      1.2434                 2.0271                 2.0242
 Frc consts  --      0.6279                 1.0394                 1.0570
 IR Inten    --      3.0089                 6.4465                19.2343

                     55                     56                     57
                      A                      A                      A
 Frequencies --    942.3479               957.7431               961.5890
 Red. masses --      2.6083                 1.7357                 1.5089
 Frc consts  --      1.3647                 0.9380                 0.8221
 IR Inten    --     15.9806                14.9605                 1.4097

                     58                     59                     60
                      A                      A                      A
 Frequencies --    980.9747               989.6421               996.2997
 Red. masses --      1.3658                 1.9533                 1.2828
 Frc consts  --      0.7744                 1.1271                 0.7502
 IR Inten    --      2.5862                 1.7827                 0.1264

                     61                     62                     63
                      A                      A                      A
 Frequencies --   1009.6841              1033.2318              1040.7798
 Red. masses --      2.7655                 3.2140                 2.1153
 Frc consts  --      1.6611                 2.0216                 1.3500
 IR Inten    --     17.0268                27.6251                23.6224

                     64                     65                     66
                      A                      A                      A
 Frequencies --   1046.4060              1056.3250              1067.5532
 Red. masses --      2.0732                 2.6418                 1.6849
 Frc consts  --      1.3375                 1.7368                 1.1314
 IR Inten    --     24.7431                29.2225                64.3454

                     67                     68                     69
                      A                      A                      A
 Frequencies --   1099.4685              1109.2747              1123.9997
 Red. masses --      2.6723                 2.1391                 1.7842
 Frc consts  --      1.9033                 1.5508                 1.3281
 IR Inten    --      2.8699                 7.7091               103.4559

                     70                     71                     72
                      A                      A                      A
 Frequencies --   1147.9723              1154.1082              1174.0901
 Red. masses --      2.3576                 1.3190                 1.8297
 Frc consts  --      1.8306                 1.0351                 1.4860
 IR Inten    --      9.4712                 3.3353                 4.7075

                     73                     74                     75
                      A                      A                      A
 Frequencies --   1186.3098              1191.5310              1202.1898
 Red. masses --      1.7735                 2.5825                 2.0404
 Frc consts  --      1.4706                 2.1602                 1.7374
 IR Inten    --     10.4830                26.6438                12.5685

                     76                     77                     78
                      A                      A                      A
 Frequencies --   1212.1285              1234.0197              1253.4395
 Red. masses --      1.8173                 1.6026                 1.8455
 Frc consts  --      1.5731                 1.4379                 1.7083
 IR Inten    --     45.9745                 8.9954                63.7635

                     79                     80                     81
                      A                      A                      A
 Frequencies --   1262.3093              1283.6715              1289.1017
 Red. masses --      1.4413                 1.4430                 1.8122
 Frc consts  --      1.3531                 1.4009                 1.7743
 IR Inten    --    104.6095                 4.0422                37.8352

                     82                     83                     84
                      A                      A                      A
 Frequencies --   1305.0053              1319.5339              1324.5141
 Red. masses --      1.3376                 1.4088                 1.3763
 Frc consts  --      1.3422                 1.4453                 1.4225
 IR Inten    --      6.5325               223.3292                21.7584

                     85                     86                     87
                      A                      A                      A
 Frequencies --   1330.9482              1330.9940              1349.0738
 Red. masses --      1.1176                 1.3831                 1.7278
 Frc consts  --      1.1664                 1.4436                 1.8527
 IR Inten    --      0.4198                34.2101                 4.5331

                     88                     89                     90
                      A                      A                      A
 Frequencies --   1350.4183              1364.7350              1371.4698
 Red. masses --      3.8611                 1.3433                 1.4558
 Frc consts  --      4.1485                 1.4741                 1.6134
 IR Inten    --     55.7767                 4.0099                 2.7399

                     91                     92                     93
                      A                      A                      A
 Frequencies --   1376.4081              1378.2593              1391.8123
 Red. masses --      1.3725                 1.4421                 1.3696
 Frc consts  --      1.5320                 1.6140                 1.5632
 IR Inten    --      2.9885                 0.4079                 7.2071

                     94                     95                     96
                      A                      A                      A
 Frequencies --   1395.6077              1403.9143              1410.5917
 Red. masses --      1.3707                 1.2744                 1.2473
 Frc consts  --      1.5730                 1.4800                 1.4623
 IR Inten    --      2.3311                27.3526                 9.2866

                     97                     98                     99
                      A                      A                      A
 Frequencies --   1423.0917              1454.8649              1458.5663
 Red. masses --      2.7786                 1.8542                 2.1912
 Frc consts  --      3.3154                 2.3123                 2.7466
 IR Inten    --    733.6491               344.3298                48.5688

                    100                    101                    102
                      A                      A                      A
 Frequencies --   1470.4227              1474.5992              1478.3041
 Red. masses --      1.1294                 1.3812                 1.2735
 Frc consts  --      1.4388                 1.7695                 1.6397
 IR Inten    --     20.6408                97.0422                43.5339

                    103                    104                    105
                      A                      A                      A
 Frequencies --   1480.4827              1484.9668              1486.3469
 Red. masses --      1.0807                 1.1634                 1.0842
 Frc consts  --      1.3955                 1.5115                 1.4112
 IR Inten    --      4.5035                 4.2300                 7.8515

                    106                    107                    108
                      A                      A                      A
 Frequencies --   1488.0523              1492.1363              1498.3234
 Red. masses --      1.0753                 1.0576                 1.1857
 Frc consts  --      1.4028                 1.3873                 1.5683
 IR Inten    --      5.6455                 6.6214                81.2021

                    109                    110                    111
                      A                      A                      A
 Frequencies --   1499.3757              1500.3071              1502.9152
 Red. masses --      1.7384                 1.3750                 1.0870
 Frc consts  --      2.3027                 1.8235                 1.4466
 IR Inten    --    596.6487               264.9971                65.5023

                    112                    113                    114
                      A                      A                      A
 Frequencies --   1529.3206              1571.8741              1622.6409
 Red. masses --      5.1275                 5.3625                 5.8917
 Frc consts  --      7.0657                 7.8064                 9.1398
 IR Inten    --     19.9796                16.5411                 7.7017

                    115                    116                    117
                      A                      A                      A
 Frequencies --   1631.3387              2972.2615              2979.7807
 Red. masses --      6.5525                 1.0804                 1.0749
 Frc consts  --     10.2742                 5.6235                 5.6234
 IR Inten    --      5.9362                20.7149                 9.9072

                    118                    119                    120
                      A                      A                      A
 Frequencies --   2985.5553              2986.6383              2997.1905
 Red. masses --      1.0634                 1.0659                 1.0685
 Frc consts  --      5.5845                 5.6019                 5.6554
 IR Inten    --      4.8943                41.9548               121.8398

                    121                    122                    123
                      A                      A                      A
 Frequencies --   3002.8152              3006.3919              3012.1840
 Red. masses --      1.0605                 1.0361                 1.0389
 Frc consts  --      5.6338                 5.5175                 5.5540
 IR Inten    --     80.9140                58.0736                71.8504

                    124                    125                    126
                      A                      A                      A
 Frequencies --   3014.2416              3018.6177              3018.9947
 Red. masses --      1.0433                 1.0926                 1.1010
 Frc consts  --      5.5850                 5.8657                 5.9122
 IR Inten    --     70.9993                55.9177                 8.5889

                    127                    128                    129
                      A                      A                      A
 Frequencies --   3038.3258              3041.0405              3058.7539
 Red. masses --      1.0594                 1.0993                 1.0977
 Frc consts  --      5.7621                 5.9897                 6.0507
 IR Inten    --     84.4124                39.1992               128.9567

                    130                    131                    132
                      A                      A                      A
 Frequencies --   3064.4952              3069.3315              3075.4934
 Red. masses --      1.1003                 1.0994                 1.1017
 Frc consts  --      6.0882                 6.1022                 6.1395
 IR Inten    --     22.7178               139.1649                70.4600

                    133                    134                    135
                      A                      A                      A
 Frequencies --   3076.4429              3084.2690              3086.6837
 Red. masses --      1.0953                 1.1019                 1.0992
 Frc consts  --      6.1079                 6.1759                 6.1704
 IR Inten    --     84.9834                56.0853                81.0402

                    136                    137                    138
                      A                      A                      A
 Frequencies --   3092.4207              3158.7017              3172.2752
 Red. masses --      1.1003                 1.0858                 1.0898
 Frc consts  --      6.1995                 6.3829                 6.4614
 IR Inten    --     53.3075                 8.6462                19.1333

                    139                    140                    141
                      A                      A                      A
 Frequencies --   3186.2146              3190.3660              3533.8702
 Red. masses --      1.0921                 1.0949                 1.0639
 Frc consts  --      6.5320                 6.5658                 7.8282
 IR Inten    --     21.4729                36.5792               195.6771

 - Thermochemistry -
 -------------------
 Temperature   298.150 Kelvin.  Pressure   1.00000 Atm.
 Atom     1 has atomic number  6 and mass  12.00000

 Molecular mass:   314.18819 amu.
 Principal axes and moments of inertia in atomic units:
                           1         2         3
     Eigenvalues --  3254.26380********************
           X            0.82780   0.49114   0.27117
           Y           -0.37802   0.13115   0.91646
           Z           -0.41455   0.86115  -0.29423
 This molecule is an asymmetric top.
 Rotational symmetry number  1.
 Warning -- assumption of classical behavior for rotation
           may cause significant error
 Rotational temperatures (Kelvin)      0.02662     0.00376     0.00349
 Rotational constants (GHZ):           0.55458     0.07840     0.07278
 Zero-point vibrational energy    1092275.7 (Joules/Mol)
                                  261.06016 (Kcal/Mol)
 Warning -- explicit consideration of  36 degrees of freedom as
           vibrations may cause significant error
 Vibrational temperatures:     18.44    24.67    34.89    57.08    67.08
          (Kelvin)             98.13   126.08   144.22   150.04   166.07
                              194.52   217.71   248.01   260.47   322.44
                              334.96   347.70   351.65   367.25   382.30
                              432.54   467.48   488.72   540.76   546.06
                              548.12   599.90   612.99   613.73   620.82
                              643.93   675.46   706.27   734.53   773.71
                              829.55   925.85   942.65   971.57  1002.65
                             1017.64  1023.27  1062.72  1088.30  1098.58
                             1131.16  1151.52  1206.47  1222.73  1258.86
                             1266.12  1332.08  1342.24  1354.51  1355.83
                             1377.98  1383.51  1411.40  1423.87  1433.45
                             1452.71  1486.59  1497.45  1505.54  1519.82
                             1535.97  1581.89  1596.00  1617.18  1651.68
                             1660.50  1689.25  1706.84  1714.35  1729.68
                             1743.98  1775.48  1803.42  1816.18  1846.92
                             1854.73  1877.61  1898.52  1905.68  1914.94
                             1915.00  1941.02  1942.95  1963.55  1973.24
                             1980.34  1983.01  2002.51  2007.97  2019.92
                             2029.53  2047.51  2093.23  2098.55  2115.61
                             2121.62  2126.95  2130.08  2136.54  2138.52
                             2140.98  2146.85  2155.75  2157.27  2158.61
                             2162.36  2200.35  2261.58  2334.62  2347.13
                             4276.42  4287.24  4295.55  4297.11  4312.29
                             4320.38  4325.53  4333.86  4336.82  4343.12
                             4343.66  4371.47  4375.38  4400.86  4409.13
                             4416.08  4424.95  4426.32  4437.58  4441.05
                             4449.30  4544.67  4564.20  4584.25  4590.23
                             5084.45

 Zero-point correction=                           0.416026 (Hartree/Particle)
 Thermal correction to Energy=                    0.439601
 Thermal correction to Enthalpy=                  0.440545
 Thermal correction to Gibbs Free Energy=         0.359253
 Sum of electronic and zero-point Energies=          -1003.497428
 Sum of electronic and thermal Energies=             -1003.473853
 Sum of electronic and thermal Enthalpies=           -1003.472909
 Sum of electronic and thermal Free Energies=        -1003.554200

                     E (Thermal)             CV                S
                      KCal/Mol        Cal/Mol-Kelvin    Cal/Mol-Kelvin
 Total                  275.854             89.564            171.093
 Electronic               0.000              0.000              1.377
 Translational            0.889              2.981             43.130
 Rotational               0.889              2.981             35.872
 Vibrational            274.076             83.602             90.712
 Vibration     1          0.593              1.987              7.518
 Vibration     2          0.593              1.986              6.940
 Vibration     3          0.593              1.985              6.252
 Vibration     4          0.594              1.981              5.275
 Vibration     5          0.595              1.979              4.956
 Vibration     6          0.598              1.969              4.205
 Vibration     7          0.601              1.958              3.712
 Vibration     8          0.604              1.949              3.450
 Vibration     9          0.605              1.946              3.373
 Vibration    10          0.608              1.937              3.176
 Vibration    11          0.613              1.918              2.871
 Vibration    12          0.619              1.901              2.656
 Vibration    13          0.626              1.876              2.409
 Vibration    14          0.630              1.865              2.318
 Vibration    15          0.649              1.804              1.926
 Vibration    16          0.654              1.791              1.857
 Vibration    17          0.658              1.777              1.791
 Vibration    18          0.660              1.772              1.771
 Vibration    19          0.666              1.754              1.694
 Vibration    20          0.672              1.736              1.624
 Vibration    21          0.693              1.673              1.413
 Vibration    22          0.709              1.626              1.285
 Vibration    23          0.720              1.596              1.214
 Vibration    24          0.747              1.522              1.056
 Vibration    25          0.750              1.514              1.041
 Vibration    26          0.751              1.511              1.035
 Vibration    27          0.780              1.433              0.902
 Vibration    28          0.788              1.414              0.872
 Vibration    29          0.788              1.412              0.870
 Vibration    30          0.793              1.402              0.854
 Vibration    31          0.807              1.366              0.803
 Vibration    32          0.827              1.318              0.739
 Vibration    33          0.847              1.270              0.681
 Vibration    34          0.866              1.227              0.632
 Vibration    35          0.893              1.167              0.570
 Vibration    36          0.933              1.082              0.492

 Optimization completed.
    -- Stationary point found.
 Normal termination of Gaussian 16 at Sun Feb 11 09:26:58 2024.
