 Q-Chem 5.4, Q-Chem, Inc., Pleasanton, CA (2021)
 Q-Chem 5.4.0 for Intel X86 EM64T Linux

User input:
--------------------------------------------------------------
$molecule
-1 2
C                 -0.3395910000     -2.0609520000      0.9148760000
C                 -0.2320890000     -0.9529620000     -0.1694210000
C                 -0.5450530000     -1.5703230000     -1.5606760000
C                 -1.2775810000      0.1348230000      0.1328000000
C                 -2.6297520000     -0.2092510000      0.1773290000
C                 -3.6339190000      0.7303620000      0.4464830000
C                 -3.2671150000      2.0618070000      0.6787330000
C                 -1.9337970000      2.4302420000      0.6405500000
C                 -0.9076910000      1.4858520000      0.3689240000
C                  0.4738150000      1.9455390000      0.3453440000
O                  0.7701640000      3.1623490000      0.5613310000
C                  1.5017370000      0.9531700000      0.0641530000
C                  2.8594910000      1.3705400000      0.0345500000
C                  3.8864410000      0.4805060000     -0.2265730000
C                  3.6004720000     -0.8686200000     -0.4700520000
C                  2.2645890000     -1.2909400000     -0.4431240000
C                  1.2094790000     -0.4149230000     -0.1823790000
H                  0.3710500000     -2.8701990000      0.7240240000
H                 -1.3455070000     -2.4895170000      0.9427420000
H                 -0.1214460000     -1.6437900000      1.9010240000
H                 -1.5552040000     -1.9888460000     -1.5885830000
H                 -0.4742730000     -0.8038330000     -2.3363230000
H                  0.1617200000     -2.3680100000     -1.8066360000
H                 -2.9261380000     -1.2385330000     -0.0015870000
H                 -4.6751240000      0.4251030000      0.4728560000
H                 -4.0297530000      2.8074180000      0.8893260000
H                 -1.6203260000      3.4522930000      0.8162640000
H                  3.0503710000      2.4195770000      0.2263920000
H                  4.9157770000      0.8299410000     -0.2425290000
H                  4.3942390000     -1.5794730000     -0.6764990000
H                  2.0550140000     -2.3393490000     -0.6333200000
$end

$rem
BASIS  =  6-311++G(d,p)
GUI  =  2
JOB_TYPE  =  SP
METHOD  =  B3LYP
SCF_CONVERGENCE  = 8
SOLVENT_METHOD = sm12
$end

$smx
solvent dimethylformamide
charges CM5
$end

--------------------------------------------------------------

             Standard Nuclear Orientation (Angstroms)
    I     Atom           X                Y                Z
 ----------------------------------------------------------------
    1      C      -0.3395910000    -2.0609520000     0.9148760000
    2      C      -0.2320890000    -0.9529620000    -0.1694210000
    3      C      -0.5450530000    -1.5703230000    -1.5606760000
    4      C      -1.2775810000     0.1348230000     0.1328000000
    5      C      -2.6297520000    -0.2092510000     0.1773290000
    6      C      -3.6339190000     0.7303620000     0.4464830000
    7      C      -3.2671150000     2.0618070000     0.6787330000
    8      C      -1.9337970000     2.4302420000     0.6405500000
    9      C      -0.9076910000     1.4858520000     0.3689240000
   10      C       0.4738150000     1.9455390000     0.3453440000
   11      O       0.7701640000     3.1623490000     0.5613310000
   12      C       1.5017370000     0.9531700000     0.0641530000
   13      C       2.8594910000     1.3705400000     0.0345500000
   14      C       3.8864410000     0.4805060000    -0.2265730000
   15      C       3.6004720000    -0.8686200000    -0.4700520000
   16      C       2.2645890000    -1.2909400000    -0.4431240000
   17      C       1.2094790000    -0.4149230000    -0.1823790000
   18      H       0.3710500000    -2.8701990000     0.7240240000
   19      H      -1.3455070000    -2.4895170000     0.9427420000
   20      H      -0.1214460000    -1.6437900000     1.9010240000
   21      H      -1.5552040000    -1.9888460000    -1.5885830000
   22      H      -0.4742730000    -0.8038330000    -2.3363230000
   23      H       0.1617200000    -2.3680100000    -1.8066360000
   24      H      -2.9261380000    -1.2385330000    -0.0015870000
   25      H      -4.6751240000     0.4251030000     0.4728560000
   26      H      -4.0297530000     2.8074180000     0.8893260000
   27      H      -1.6203260000     3.4522930000     0.8162640000
   28      H       3.0503710000     2.4195770000     0.2263920000
   29      H       4.9157770000     0.8299410000    -0.2425290000
   30      H       4.3942390000    -1.5794730000    -0.6764990000
   31      H       2.0550140000    -2.3393490000    -0.6333200000
 ----------------------------------------------------------------

   18    -693.5789684603      3.80e-09  Convergence criterion met
 Total energy in the final basis set =     -693.6703718653

                    Orbital Energies (a.u.)
 --------------------------------------------------------------

 Alpha MOs
 -- Occupied --
-19.0533 -10.2041 -10.2001 -10.1834 -10.1834 -10.1758 -10.1758 -10.1748
-10.1748 -10.1731 -10.1731 -10.1707 -10.1706 -10.1691 -10.1691 -10.1662
-10.1662  -0.9754  -0.8726  -0.8517  -0.8156  -0.7670  -0.7502  -0.7402
 -0.7289  -0.6956  -0.6491  -0.6345  -0.6141  -0.5920  -0.5616  -0.5385
 -0.5278  -0.4834  -0.4649  -0.4611  -0.4574  -0.4415  -0.4377  -0.4356
 -0.4219  -0.4087  -0.4044  -0.3936  -0.3917  -0.3873  -0.3755  -0.3645
 -0.3638  -0.3564  -0.3513  -0.3382  -0.3245  -0.3155  -0.2589  -0.2552
 -0.2545  -0.2533  -0.2252  -0.1169

 Beta MOs
 -- Occupied --
-19.0471 -10.2042 -10.1966 -10.1821 -10.1821 -10.1766 -10.1766 -10.1753
-10.1753 -10.1709 -10.1709 -10.1709 -10.1709 -10.1688 -10.1688 -10.1644
-10.1644  -0.9640  -0.8703  -0.8498  -0.8141  -0.7625  -0.7481  -0.7377
 -0.7275  -0.6951  -0.6415  -0.6340  -0.6117  -0.5905  -0.5598  -0.5358
 -0.5266  -0.4813  -0.4638  -0.4604  -0.4555  -0.4403  -0.4370  -0.4328
 -0.4212  -0.4073  -0.4033  -0.3893  -0.3867  -0.3807  -0.3749  -0.3614
 -0.3590  -0.3517  -0.3504  -0.3234  -0.3232  -0.3144  -0.2535  -0.2484
 -0.2465  -0.2343  -0.2196

          Ground-State Mulliken Net Atomic Charges

     Atom                 Charge (a.u.)    Spin (a.u.)
  --------------------------------------------------------
      1 C                    -0.066464       0.012717
      2 C                    -0.307788      -0.100537
      3 C                    -0.071394       0.012727
      4 C                    -0.578859       0.126735
      5 C                     0.018540      -0.057689
      6 C                     0.861005       0.185805
      7 C                     0.111168      -0.063289
      8 C                    -0.766423       0.175924
      9 C                    -0.596986      -0.051948
     10 C                    -1.405198       0.218932
     11 O                    -0.423724       0.238087
     12 C                    -0.598153      -0.051969
     13 C                    -0.765288       0.176054
     14 C                     0.110098      -0.063384
     15 C                     0.861165       0.185919
     16 C                     0.020765      -0.057732
     17 C                    -0.583161       0.126847
     18 H                     0.254996       0.004400
     19 H                     0.255619       0.004323
     20 H                     0.080512       0.003196
     21 H                     0.255175       0.004423
     22 H                     0.080695       0.003216
     23 H                     0.255481       0.004282
     24 H                     0.269894       0.002630
     25 H                     0.353188      -0.013247
     26 H                     0.279920       0.003923
     27 H                     0.096257      -0.011819
     28 H                     0.096200      -0.011826
     29 H                     0.279865       0.003913
     30 H                     0.353272      -0.013253
     31 H                     0.269622       0.002637
  --------------------------------------------------------
  Sum of atomic charges =    -1.000000

                    Cartesian Multipole Moments
 -----------------------------------------------------------------
    Charge (ESU x 10^10)
                -4.8032
    Dipole Moment (Debye)
         X      -2.3219      Y      -9.5243      Z      -1.6904
       Tot       9.9479
    Quadrupole Moments (Debye-Ang)
        XX    -122.4617     XY      -2.8854     YY    -132.7029
        XZ       0.2880     YZ      -3.8380     ZZ    -112.8699

 Total job time:  1007.31s(wall), 7609.49s(cpu)
        *  Thank you very much for using Q-Chem.  Have a nice day.  *
