 Q-Chem 5.4, Q-Chem, Inc., Pleasanton, CA (2021)
 Q-Chem 5.4.0 for Intel X86 EM64T Linux

User input:
--------------------------------------------------------------
$molecule
0 1
C                 -1.6656700000      2.8687520000     -0.7049980000
C                 -2.8539220000      2.2217990000     -0.3807880000
C                 -2.8243350000      0.8891110000      0.0272830000
C                 -0.4474330000      2.1926290000     -0.6241570000
C                 -0.4153300000      0.8449410000     -0.2118100000
C                 -1.6144870000      0.2033940000      0.1119170000
C                  0.8091860000      2.9116110000     -0.9775670000
C                  2.1410530000      2.1145320000     -0.8713460000
C                  2.0612630000      0.7297200000     -0.4363230000
C                  0.8779510000      0.1363320000     -0.1290450000
O                  0.8225140000      4.0669530000     -1.3350900000
O                  3.1891160000      2.6638740000     -1.1508790000
O                  0.7479060000     -1.1398330000      0.2781690000
C                  1.9176150000     -1.9541470000      0.4060780000
C                  1.5490400000     -3.3289270000      0.8694710000
C                  0.3262700000     -3.7741010000      1.1361130000
H                 -1.6571020000      3.9036400000     -1.0251400000
H                 -3.7969640000      2.7519270000     -0.4454530000
H                 -3.7463050000      0.3786710000      0.2814550000
H                 -1.5956680000     -0.8298620000      0.4287090000
H                  3.0045940000      0.2054710000     -0.3738210000
H                  2.6081560000     -1.4873050000      1.1199900000
H                  2.4304300000     -2.0068620000     -0.5627930000
H                  2.4058860000     -3.9891380000      0.9827870000
H                 -0.5466260000     -3.1422030000      1.0332180000
H                  0.1667540000     -4.7930050000      1.4675290000
$end
$rem
MAX_SCF_CYCLES=200
BASIS  =  6-311++G(d,p)
GUI  =  2
JOB_TYPE  =  SP
METHOD  =  B3LYP
SOLVENT_METHOD = PCM
$end
$pcm
theory = CPCM
$end
$solvent
dielectric 37.219
opticaldielectric 1.43
$end

--------------------------------------------------------------

             Standard Nuclear Orientation (Angstroms)
    I     Atom           X                Y                Z
 ----------------------------------------------------------------
    1      C      -1.6656700000     2.8687520000    -0.7049980000
    2      C      -2.8539220000     2.2217990000    -0.3807880000
    3      C      -2.8243350000     0.8891110000     0.0272830000
    4      C      -0.4474330000     2.1926290000    -0.6241570000
    5      C      -0.4153300000     0.8449410000    -0.2118100000
    6      C      -1.6144870000     0.2033940000     0.1119170000
    7      C       0.8091860000     2.9116110000    -0.9775670000
    8      C       2.1410530000     2.1145320000    -0.8713460000
    9      C       2.0612630000     0.7297200000    -0.4363230000
   10      C       0.8779510000     0.1363320000    -0.1290450000
   11      O       0.8225140000     4.0669530000    -1.3350900000
   12      O       3.1891160000     2.6638740000    -1.1508790000
   13      O       0.7479060000    -1.1398330000     0.2781690000
   14      C       1.9176150000    -1.9541470000     0.4060780000
   15      C       1.5490400000    -3.3289270000     0.8694710000
   16      C       0.3262700000    -3.7741010000     1.1361130000
   17      H      -1.6571020000     3.9036400000    -1.0251400000
   18      H      -3.7969640000     2.7519270000    -0.4454530000
   19      H      -3.7463050000     0.3786710000     0.2814550000
   20      H      -1.5956680000    -0.8298620000     0.4287090000
   21      H       3.0045940000     0.2054710000    -0.3738210000
   22      H       2.6081560000    -1.4873050000     1.1199900000
   23      H       2.4304300000    -2.0068620000    -0.5627930000
   24      H       2.4058860000    -3.9891380000     0.9827870000
   25      H      -0.5466260000    -3.1422030000     1.0332180000
   26      H       0.1667540000    -4.7930050000     1.4675290000
 ----------------------------------------------------------------

    9    -727.2472307517      4.12e-06  Convergence criterion met
 Total energy in the final basis set =     -727.2472307517

                    Orbital Energies (a.u.)
 --------------------------------------------------------------

 Alpha MOs
 -- Occupied --
-19.1912 -19.1461 -19.1315 -10.2866 -10.2840 -10.2778 -10.2440 -10.2184
-10.2086 -10.1997 -10.1987 -10.1977 -10.1954 -10.1873 -10.1871 -10.1695
 -1.1086  -1.0866  -1.0568  -0.8958  -0.8385  -0.8054  -0.7807  -0.7664
 -0.7254  -0.6903  -0.6484  -0.6281  -0.6110  -0.5687  -0.5587  -0.5402
 -0.5258  -0.5005  -0.4932  -0.4796  -0.4691  -0.4636  -0.4580  -0.4567
 -0.4516  -0.4305  -0.4293  -0.4069  -0.4010  -0.3875  -0.3737  -0.3707
 -0.3671  -0.3598  -0.3153  -0.2985  -0.2814  -0.2741  -0.2655  -0.2552

          Ground-State Mulliken Net Atomic Charges

     Atom                 Charge (a.u.)
  ----------------------------------------
      1 C                     0.131180
      2 C                    -0.471099
      3 C                    -0.267247
      4 C                     0.411114
      5 C                     0.284739
      6 C                    -0.127386
      7 C                    -0.453587
      8 C                    -0.064781
      9 C                     0.123198
     10 C                    -0.034198
     11 O                    -0.287496
     12 O                    -0.358404
     13 O                    -0.066476
     14 C                     0.062296
     15 C                    -0.322022
     16 C                    -0.635910
     17 H                     0.206149
     18 H                     0.220160
     19 H                     0.240439
     20 H                     0.147839
     21 H                     0.274168
     22 H                     0.206756
     23 H                     0.207416
     24 H                     0.242550
     25 H                     0.149782
     26 H                     0.180824
  ----------------------------------------
  Sum of atomic charges =     0.000000

                    Cartesian Multipole Moments
 -----------------------------------------------------------------
    Charge (ESU x 10^10)
                 0.0000
    Dipole Moment (Debye)
         X      -4.8988      Y      -7.8738      Z       2.9399
       Tot       9.7282
    Quadrupole Moments (Debye-Ang)
        XX     -89.5436     XY     -28.3090     YY    -112.7074
        XZ       8.0933     YZ       8.2911     ZZ     -98.7197

 Total job time:  35.75s(wall), 271.83s(cpu)
        *  Thank you very much for using Q-Chem.  Have a nice day.  *
