 Gaussian 16, Revision A.03,
 Gaussian 16:  ES64L-G16RevA.03 25-Dec-2016

 ----------------------------------------------------------------------
 #P UB3LYP/6-311++G(d,p) nosym opt freq SCRF=(PCM,Solvent=n,n-DiMethylF
 ormamide)
 ----------------------------------------------------------------------

 --------
 Oxidized
 --------
 Symbolic Z-matrix:
 Charge =  0 Multiplicity = 1

 SCF Done:  E(UB3LYP) =  -2220.03815003     A.U. after   20 cycles
 SCF Done:  E(UB3LYP) =  -2220.03811351     A.U. after   15 cycles
 SCF Done:  E(UB3LYP) =  -2220.03810580     A.U. after   13 cycles
 SCF Done:  E(UB3LYP) =  -2220.03817385     A.U. after   20 cycles
 SCF Done:  E(UB3LYP) =  -2220.03819202     A.U. after   18 cycles
 Optimization completed.
    -- Stationary point found.
 Normal termination of Gaussian 16 at Sat Feb 10 10:14:44 2024.

 ----------------------------------------------------------------------
 #P Geom=AllCheck Guess=TCheck SCRF=Check GenChk UB3LYP/6-311++G(d,p) F
 req
 ----------------------------------------------------------------------

 Structure from the checkpoint file:  "029.chk"
 --------
 Oxidized
 --------
 Charge =  0 Multiplicity = 1

                          Input orientation:
 ---------------------------------------------------------------------
 Center     Atomic      Atomic             Coordinates (Angstroms)
 Number     Number       Type             X           Y           Z
 ---------------------------------------------------------------------
      1         17           0       -2.555655    1.785374    0.698070
      2          6           0       -1.204471    0.754394    0.426173
      3          6           0       -1.261688   -0.583783    0.560798
      4         17           0       -2.692502   -1.421695    1.022721
      5          6           0       -0.062652   -1.445169    0.310762
      6          8           0       -0.115434   -2.647856    0.426856
      7          6           0        1.204490   -0.754392   -0.088565
      8          6           0        1.261706    0.583800   -0.223190
      9         17           0        2.692426    1.421717   -0.685377
     10          6           0        0.062746    1.445201    0.027101
     11          8           0        0.115461    2.647853   -0.089387
     12         17           0        2.555574   -1.785443   -0.360720
 ---------------------------------------------------------------------

 SCF Done:  E(UB3LYP) =  -2220.03819202     A.U. after    4 cycles

 Alpha  occ. eigenvalues -- -101.59299-101.59298-101.59298-101.59298 -19.17073
 Alpha  occ. eigenvalues --  -19.17072 -10.32729 -10.32728 -10.29531 -10.29529
 Alpha  occ. eigenvalues --  -10.29455 -10.29454  -9.50738  -9.50738  -9.50737
 Alpha  occ. eigenvalues --   -9.50736  -7.27237  -7.27237  -7.27237  -7.27237
 Alpha  occ. eigenvalues --   -7.26242  -7.26242  -7.26241  -7.26241  -7.26118
 Alpha  occ. eigenvalues --   -7.26118  -7.26118  -7.26118  -1.10984  -1.10753
 Alpha  occ. eigenvalues --   -0.95452  -0.94227  -0.89476  -0.89243  -0.84087
 Alpha  occ. eigenvalues --   -0.76791  -0.72730  -0.64065  -0.63957  -0.58645
 Alpha  occ. eigenvalues --   -0.53170  -0.50972  -0.49912  -0.49336  -0.48277
 Alpha  occ. eigenvalues --   -0.47712  -0.46061  -0.45750  -0.42921  -0.39548
 Alpha  occ. eigenvalues --   -0.37439  -0.36703  -0.36680  -0.35927  -0.34615
 Alpha  occ. eigenvalues --   -0.33955  -0.32585  -0.31548  -0.30971  -0.28571
 Alpha virt. eigenvalues --   -0.16159  -0.05907  -0.04344  -0.02934  -0.01604
 Alpha virt. eigenvalues --    0.00352   0.00547   0.02517   0.02746   0.02970
 Alpha virt. eigenvalues --    0.04439   0.05000   0.05168   0.06749   0.06827

  Beta  occ. eigenvalues -- -101.59299-101.59298-101.59298-101.59298 -19.17073
  Beta  occ. eigenvalues --  -19.17072 -10.32729 -10.32728 -10.29531 -10.29529
  Beta  occ. eigenvalues --  -10.29455 -10.29454  -9.50738  -9.50738  -9.50737
  Beta  occ. eigenvalues --   -9.50736  -7.27237  -7.27237  -7.27237  -7.27237
  Beta  occ. eigenvalues --   -7.26242  -7.26242  -7.26241  -7.26241  -7.26118
  Beta  occ. eigenvalues --   -7.26118  -7.26118  -7.26118  -1.10984  -1.10753
  Beta  occ. eigenvalues --   -0.95452  -0.94227  -0.89476  -0.89243  -0.84087
  Beta  occ. eigenvalues --   -0.76791  -0.72730  -0.64065  -0.63957  -0.58645
  Beta  occ. eigenvalues --   -0.53170  -0.50972  -0.49912  -0.49336  -0.48277
  Beta  occ. eigenvalues --   -0.47712  -0.46061  -0.45750  -0.42921  -0.39548
  Beta  occ. eigenvalues --   -0.37439  -0.36703  -0.36680  -0.35927  -0.34615
  Beta  occ. eigenvalues --   -0.33955  -0.32585  -0.31548  -0.30971  -0.28571
  Beta virt. eigenvalues --   -0.16159  -0.05907  -0.04344  -0.02934  -0.01604
  Beta virt. eigenvalues --    0.00352   0.00547   0.02517   0.02746   0.02970
  Beta virt. eigenvalues --    0.04439   0.05000   0.05168   0.06749   0.06827

 Mulliken charges and spin densities:
               1          2
     1  Cl   0.417739   0.000000
     2  C    0.682603  -0.000000
     3  C    0.687155  -0.000000
     4  Cl   0.417544  -0.000000
     5  C   -2.053643   0.000000
     6  O   -0.151593  -0.000000
     7  C    0.682484  -0.000000
     8  C    0.687339   0.000000
     9  Cl   0.417529   0.000000
    10  C   -2.053288   0.000000
    11  O   -0.151597  -0.000000
    12  Cl   0.417728   0.000000
 Sum of Mulliken charges =  -0.00000  -0.00000

 Dipole moment (field-independent basis, Debye):
    X=              0.0001    Y=              0.0001    Z=              0.0006  Tot=              0.0007
 Quadrupole moment (field-independent basis, Debye-Ang):
   XX=            -90.5422   YY=           -111.1329   ZZ=            -92.1652
   XY=             -0.9461   XZ=             -0.3424   YZ=              1.8662

  Exact polarizability: 184.813   0.412 256.712 -27.715 -15.414  91.033
 Approx polarizability: 195.889   4.189 352.814 -26.955 -23.536 106.693

                      1                      2                      3
                      A                      A                      A
 Frequencies --     45.9475                58.8876                85.3078
 Red. masses --     18.2118                33.5113                20.3138
 Frc consts  --      0.0227                 0.0685                 0.0871
 IR Inten    --      3.7533                 0.0092                 0.0000

                      4                      5                      6
                      A                      A                      A
 Frequencies --    179.5850               200.5692               204.8882
 Red. masses --     13.9296                34.3939                25.1496
 Frc consts  --      0.2647                 0.8152                 0.6220
 IR Inten    --     10.2165                 0.0000                 0.0016

                      7                      8                      9
                      A                      A                      A
 Frequencies --    214.6362               265.9626               299.2933
 Red. masses --     31.8585                24.1954                12.5869
 Frc consts  --      0.8647                 1.0084                 0.6643
 IR Inten    --      0.1976                 0.0000                 0.0000

                     10                     11                     12
                      A                      A                      A
 Frequencies --    322.8466               339.3324               381.6493
 Red. masses --     27.2356                18.3041                17.8347
 Frc consts  --      1.6726                 1.2418                 1.5305
 IR Inten    --      0.0000                 0.0000                 9.0012

                     13                     14                     15
                      A                      A                      A
 Frequencies --    438.8865               464.0329               489.0009
 Red. masses --     12.5183                21.7228                14.7265
 Frc consts  --      1.4207                 2.7559                 2.0748
 IR Inten    --      0.0000                16.7417                 0.0000

                     16                     17                     18
                      A                      A                      A
 Frequencies --    552.8047               722.4111               729.7918
 Red. masses --     12.1765                14.8588                12.6694
 Frc consts  --      2.1924                 4.5688                 3.9756
 IR Inten    --      0.0005               363.5642                 0.0000

                     19                     20                     21
                      A                      A                      A
 Frequencies --    736.5276               805.2152               839.2399
 Red. masses --     12.2191                12.1226                13.5010
 Frc consts  --      3.9054                 4.6310                 5.6026
 IR Inten    --     21.1986                 0.0000                 0.0000

                     22                     23                     24
                      A                      A                      A
 Frequencies --    905.2106               987.4425              1086.7717
 Red. masses --     12.9785                12.8913                12.1615
 Frc consts  --      6.2657                 7.4058                 8.4628
 IR Inten    --     54.4282                 0.0000               907.1723

                     25                     26                     27
                      A                      A                      A
 Frequencies --   1223.1106              1223.4470              1594.7156
 Red. masses --     12.1122                12.0225                12.0203
 Frc consts  --     10.6759                10.6027                18.0107
 IR Inten    --    188.5568                 0.0070               433.5158

                     28                     29                     30
                      A                      A                      A
 Frequencies --   1635.9444              1727.4609              1738.3721
 Red. masses --     12.0094                13.2579                13.2959
 Frc consts  --     18.9369                23.3099                23.6731
 IR Inten    --      0.0002              1126.6693                 0.0000

 - Thermochemistry -
 -------------------
 Temperature   298.150 Kelvin.  Pressure   1.00000 Atm.
 Atom     1 has atomic number 17 and mass  34.96885

 Molecular mass:   243.86524 amu.
 Principal axes and moments of inertia in atomic units:
                           1         2         3
     Eigenvalues --  2368.710783974.854816343.54986
           X            0.96481   0.04272   0.25945
           Y           -0.06681   0.99416   0.08474
           Z           -0.25432  -0.09909   0.96203
 This molecule is an asymmetric top.
 Rotational symmetry number  1.
 Warning -- assumption of classical behavior for rotation
           may cause significant error
 Rotational temperatures (Kelvin)      0.03657     0.02179     0.01365
 Rotational constants (GHZ):           0.76191     0.45404     0.28450
 Zero-point vibrational energy     122613.0 (Joules/Mol)
                                   29.30521 (Kcal/Mol)
 Warning -- explicit consideration of  16 degrees of freedom as
           vibrations may cause significant error
 Vibrational temperatures:     66.11    84.73   122.74   258.38   288.57
          (Kelvin)            294.79   308.81   382.66   430.62   464.50
                              488.22   549.11   631.46   667.64   703.56
                              795.36  1039.39  1050.01  1059.70  1158.53
                             1207.48  1302.40  1420.71  1563.62  1759.78
                             1760.27  2294.44  2353.76  2485.43  2501.13

 Zero-point correction=                           0.046701 (Hartree/Particle)
 Thermal correction to Energy=                    0.057732
 Thermal correction to Enthalpy=                  0.058676
 Thermal correction to Gibbs Free Energy=         0.007541
 Sum of electronic and zero-point Energies=          -2219.991491
 Sum of electronic and thermal Energies=             -2219.980460
 Sum of electronic and thermal Enthalpies=           -2219.979516
 Sum of electronic and thermal Free Energies=        -2220.030651

                     E (Thermal)             CV                S
                      KCal/Mol        Cal/Mol-Kelvin    Cal/Mol-Kelvin
 Total                   36.228             37.774            107.624
 Electronic               0.000              0.000              0.000
 Translational            0.889              2.981             42.375
 Rotational               0.889              2.981             32.457
 Vibrational             34.450             31.812             32.792
 Vibration     1          0.595              1.979              4.985
 Vibration     2          0.596              1.974              4.494
 Vibration     3          0.601              1.959              3.765
 Vibration     4          0.629              1.867              2.333
 Vibration     5          0.638              1.839              2.128
 Vibration     6          0.640              1.833              2.089
 Vibration     7          0.645              1.819              2.004
 Vibration     8          0.672              1.735              1.622
 Vibration     9          0.692              1.675              1.421
 Vibration    10          0.708              1.630              1.296
 Vibration    11          0.719              1.597              1.215
 Vibration    12          0.751              1.509              1.033
 Vibration    13          0.799              1.385              0.830
 Vibration    14          0.822              1.330              0.754
 Vibration    15          0.845              1.274              0.686
 Vibration    16          0.908              1.134              0.538

 Optimization completed.
    -- Stationary point found.
 Normal termination of Gaussian 16 at Sat Feb 10 10:20:58 2024.
