 Gaussian 16, Revision A.03,
 Gaussian 16:  ES64L-G16RevA.03 25-Dec-2016

 ----------------------------------------------------------------
 #P UB3LYP/6-311++G(d,p) SCRF=(PCM,Solvent=n,n-DiMethylFormamide)
 ----------------------------------------------------------------

 ------------------
 Quinone PCM in DMF
 ------------------
 Symbolic Z-matrix:
 Charge =  0 Multiplicity = 1

                         Standard orientation:
 ---------------------------------------------------------------------
 Center     Atomic      Atomic             Coordinates (Angstroms)
 Number     Number       Type             X           Y           Z
 ---------------------------------------------------------------------
      1          6           0       -0.514343   -1.576044   -0.069846
      2          6           0        0.699060   -0.691823   -0.028665
      3          6           0        0.578684    0.646666   -0.057431
      4          6           0       -0.772310    1.302612   -0.186851
      5          6           0       -1.978165    0.440607   -0.168012
      6          6           0       -1.867225   -0.915090   -0.126779
      7          8           0       -0.421228   -2.779744   -0.040283
      8          8           0       -0.868052    2.506484   -0.321932
      9          8           0       -2.832936   -1.832417   -0.157762
     10          6           0       -4.210722   -1.521859    0.109734
     11         35           0        2.347444   -1.603925    0.082424
     12         35           0        2.040487    1.836809    0.017679
     13          1           0       -4.641068   -0.916533   -0.685289
     14          1           0       -4.307895   -1.006224    1.067826
     15          1           0       -4.701037   -2.492193    0.162032
     16          8           0       -3.182079    1.042412   -0.367626
     17          6           0       -3.633775    1.996032    0.614086
     18          1           0       -2.951742    2.841695    0.681790
     19          1           0       -3.740262    1.509901    1.589760
     20          1           0       -4.608426    2.331934    0.263690
 ---------------------------------------------------------------------

 SCF Done:  E(UB3LYP) =  -5757.75296226     A.U. after   16 cycles

 The electronic state is 1-A.
 Alpha  occ. eigenvalues -- -482.85892-482.85842 -62.51155 -62.51106 -56.33209
 Alpha  occ. eigenvalues --  -56.33161 -56.32818 -56.32766 -56.32763 -56.32715
 Alpha  occ. eigenvalues --  -19.18878 -19.16944 -19.15807 -19.15120 -10.31164
 Alpha  occ. eigenvalues --  -10.30626 -10.28233 -10.27794 -10.27646 -10.26667
 Alpha  occ. eigenvalues --  -10.23257 -10.22566  -8.72125  -8.72076  -6.55318
 Alpha  occ. eigenvalues --   -6.55274  -6.54008  -6.53951  -6.53850  -6.53806
 Alpha  occ. eigenvalues --   -2.66407  -2.66361  -2.66057  -2.66005  -2.65937
 Alpha  occ. eigenvalues --   -2.65895  -2.64894  -2.64891  -2.64842  -2.64840
 Alpha  occ. eigenvalues --   -1.11737  -1.09782  -1.08648  -1.07038  -0.90358
 Alpha  occ. eigenvalues --   -0.83759  -0.82753  -0.76867  -0.75466  -0.70128
 Alpha  occ. eigenvalues --   -0.69532  -0.62372  -0.61723  -0.57403  -0.54466
 Alpha  occ. eigenvalues --   -0.52815  -0.50739  -0.49105  -0.48214  -0.47345
 Alpha  occ. eigenvalues --   -0.46890  -0.46147  -0.45384  -0.43817  -0.43349
 Alpha  occ. eigenvalues --   -0.42698  -0.38972  -0.37581  -0.36925  -0.36291
 Alpha  occ. eigenvalues --   -0.33224  -0.32999  -0.32915  -0.31228  -0.29731
 Alpha  occ. eigenvalues --   -0.28989  -0.28778  -0.25520
 Alpha virt. eigenvalues --   -0.14366  -0.05467  -0.03314  -0.01577  -0.00807
 Alpha virt. eigenvalues --   -0.00500   0.00655   0.01076   0.02308   0.02532
 Alpha virt. eigenvalues --    0.03418   0.03553   0.04198   0.04716   0.05150

  Beta  occ. eigenvalues -- -482.85892-482.85842 -62.51155 -62.51106 -56.33209
  Beta  occ. eigenvalues --  -56.33161 -56.32818 -56.32766 -56.32763 -56.32715
  Beta  occ. eigenvalues --  -19.18878 -19.16944 -19.15807 -19.15120 -10.31164
  Beta  occ. eigenvalues --  -10.30626 -10.28233 -10.27794 -10.27646 -10.26667
  Beta  occ. eigenvalues --  -10.23257 -10.22566  -8.72125  -8.72076  -6.55318
  Beta  occ. eigenvalues --   -6.55274  -6.54008  -6.53951  -6.53850  -6.53806
  Beta  occ. eigenvalues --   -2.66407  -2.66361  -2.66057  -2.66005  -2.65937
  Beta  occ. eigenvalues --   -2.65895  -2.64894  -2.64891  -2.64842  -2.64840
  Beta  occ. eigenvalues --   -1.11737  -1.09782  -1.08648  -1.07038  -0.90358
  Beta  occ. eigenvalues --   -0.83759  -0.82753  -0.76867  -0.75466  -0.70128
  Beta  occ. eigenvalues --   -0.69532  -0.62372  -0.61723  -0.57403  -0.54466
  Beta  occ. eigenvalues --   -0.52815  -0.50739  -0.49105  -0.48214  -0.47345
  Beta  occ. eigenvalues --   -0.46890  -0.46147  -0.45384  -0.43817  -0.43349
  Beta  occ. eigenvalues --   -0.42698  -0.38972  -0.37581  -0.36925  -0.36291
  Beta  occ. eigenvalues --   -0.33224  -0.32999  -0.32915  -0.31228  -0.29731
  Beta  occ. eigenvalues --   -0.28989  -0.28778  -0.25520
  Beta virt. eigenvalues --   -0.14366  -0.05467  -0.03314  -0.01577  -0.00807
  Beta virt. eigenvalues --   -0.00500   0.00655   0.01076   0.02308   0.02532
  Beta virt. eigenvalues --    0.03418   0.03553   0.04198   0.04716   0.05150

 Mulliken charges and spin densities:
               1          2
     1  C   -0.687530   0.000000
     2  C    0.344371   0.000000
     3  C    0.493430  -0.000000
     4  C   -0.452015   0.000000
     5  C    0.391802  -0.000000
     6  C    0.282103  -0.000000
     7  O   -0.218912  -0.000000
     8  O   -0.240637   0.000000
     9  O   -0.177759   0.000000
    10  C   -0.270943  -0.000000
    11  Br  -0.020055   0.000000
    12  Br  -0.010856   0.000000
    13  H    0.195884   0.000000
    14  H    0.183989  -0.000000
    15  H    0.195978  -0.000000
    16  O   -0.207028  -0.000000
    17  C   -0.304714   0.000000
    18  H    0.176337   0.000000
    19  H    0.154027  -0.000000
    20  H    0.172528  -0.000000
 Sum of Mulliken charges =  -0.00000  -0.00000

 Dipole moment (field-independent basis, Debye):
    X=             -3.8439    Y=              1.1509    Z=              2.0709  Tot=              4.5154
 Quadrupole moment (field-independent basis, Debye-Ang):
   XX=            -80.7812   YY=           -121.9025   ZZ=           -103.9732
   XY=             -0.1896   XZ=             -6.4324   YZ=              2.9043

 Normal termination of Gaussian 16 at Wed Jan 24 22:51:09 2024.
