 Q-Chem 5.4, Q-Chem, Inc., Pleasanton, CA (2021)
 Q-Chem 5.4.0 for Intel X86 EM64T Linux

User input:
--------------------------------------------------------------
$molecule
-1 2
C                  0.2273250000      1.7349000000     -1.7781430000
C                 -1.2044660000      1.8556870000     -1.5345720000
C                 -2.0585190000      0.7970840000     -1.5900500000
C                 -1.6041620000     -0.5495670000     -1.9031300000
C                 -0.1897230000     -0.6801970000     -2.1386530000
C                  0.7026730000      0.3768170000     -2.0468000000
O                  0.9691560000      2.7487840000     -1.7926390000
O                 -2.4007690000     -1.5289890000     -1.9567090000
C                  3.2133500000      0.7829390000     -1.5025510000
C                  4.4979500000      0.8717290000     -2.0499580000
C                  3.0011020000      1.2417480000     -0.1986190000
C                  4.0524690000      1.7739310000      0.5429460000
C                  5.5451980000      1.4273480000     -1.3200900000
C                  5.3260370000      1.8763440000     -0.0173370000
H                 -1.5609150000      2.8595560000     -1.3208680000
H                 -3.1229550000      0.9210460000     -1.4089570000
H                  0.1825000000     -1.6696710000     -2.3816560000
H                  4.6563060000      0.4948040000     -3.0533080000
H                  2.0102500000      1.1803840000      0.2325190000
H                  3.8753300000      2.1202400000      1.5559180000
H                  6.5329730000      1.5056670000     -1.7632870000
H                  6.1417320000      2.3038040000      0.5572910000
C                  2.1366870000      0.0890650000     -2.3012630000
O                  2.4859920000     -0.7685520000     -3.1099240000
$end

$rem
BASIS  =  6-311++G(d,p)
GUI  =  2
JOB_TYPE  =  SP
METHOD  =  B3LYP
SCF_CONVERGENCE  = 8
SOLVENT_METHOD = sm12
$end

$smx
solvent dimethylformamide
charges CM5
$end

--------------------------------------------------------------

             Standard Nuclear Orientation (Angstroms)
    I     Atom           X                Y                Z
 ----------------------------------------------------------------
    1      C       0.2273250000     1.7349000000    -1.7781430000
    2      C      -1.2044660000     1.8556870000    -1.5345720000
    3      C      -2.0585190000     0.7970840000    -1.5900500000
    4      C      -1.6041620000    -0.5495670000    -1.9031300000
    5      C      -0.1897230000    -0.6801970000    -2.1386530000
    6      C       0.7026730000     0.3768170000    -2.0468000000
    7      O       0.9691560000     2.7487840000    -1.7926390000
    8      O      -2.4007690000    -1.5289890000    -1.9567090000
    9      C       3.2133500000     0.7829390000    -1.5025510000
   10      C       4.4979500000     0.8717290000    -2.0499580000
   11      C       3.0011020000     1.2417480000    -0.1986190000
   12      C       4.0524690000     1.7739310000     0.5429460000
   13      C       5.5451980000     1.4273480000    -1.3200900000
   14      C       5.3260370000     1.8763440000    -0.0173370000
   15      H      -1.5609150000     2.8595560000    -1.3208680000
   16      H      -3.1229550000     0.9210460000    -1.4089570000
   17      H       0.1825000000    -1.6696710000    -2.3816560000
   18      H       4.6563060000     0.4948040000    -3.0533080000
   19      H       2.0102500000     1.1803840000     0.2325190000
   20      H       3.8753300000     2.1202400000     1.5559180000
   21      H       6.5329730000     1.5056670000    -1.7632870000
   22      H       6.1417320000     2.3038040000     0.5572910000
   23      C       2.1366870000     0.0890650000    -2.3012630000
   24      O       2.4859920000    -0.7685520000    -3.1099240000
 ----------------------------------------------------------------

   18    -726.1174452506      5.09e-09  Convergence criterion met
 Total energy in the final basis set =     -726.2044084517

                    Orbital Energies (a.u.)
 --------------------------------------------------------------

 Alpha MOs
 -- Occupied --
-19.1127 -19.0847 -19.0844 -10.2653 -10.2355 -10.2275 -10.1920 -10.1888
-10.1883 -10.1862 -10.1856 -10.1856 -10.1820 -10.1801 -10.1792 -10.1785
 -1.0439  -1.0101  -1.0037  -0.8698  -0.8355  -0.7784  -0.7615  -0.7579
 -0.6986  -0.6545  -0.6218  -0.6102  -0.5917  -0.5561  -0.5168  -0.4873
 -0.4825  -0.4725  -0.4652  -0.4495  -0.4426  -0.4351  -0.4306  -0.4162
 -0.4101  -0.4041  -0.3848  -0.3826  -0.3731  -0.3700  -0.3651  -0.3541
 -0.2918  -0.2795  -0.2731  -0.2685  -0.2580  -0.2464  -0.2393  -0.1740

 Beta MOs
 -- Occupied --
-19.1121 -19.0781 -19.0763 -10.2652 -10.2349 -10.2267 -10.1920 -10.1887
-10.1883 -10.1862 -10.1856 -10.1856 -10.1810 -10.1796 -10.1775 -10.1768
 -1.0429  -0.9989  -0.9896  -0.8697  -0.8293  -0.7772  -0.7607  -0.7567
 -0.6892  -0.6519  -0.6212  -0.6084  -0.5883  -0.5551  -0.5154  -0.4854
 -0.4803  -0.4698  -0.4645  -0.4480  -0.4408  -0.4346  -0.4295  -0.4074
 -0.4031  -0.3945  -0.3811  -0.3711  -0.3689  -0.3659  -0.3559  -0.3494
 -0.2770  -0.2698  -0.2674  -0.2581  -0.2519  -0.2394  -0.2337

          Ground-State Mulliken Net Atomic Charges

     Atom                 Charge (a.u.)    Spin (a.u.)
  --------------------------------------------------------
      1 C                    -1.638534       0.012267
      2 C                     0.365613       0.100162
      3 C                     0.312844       0.037987
      4 C                    -1.131099       0.107075
      5 C                    -0.377278       0.106763
      6 C                     0.489805       0.083385
      7 O                    -0.282721       0.240227
      8 O                    -0.378636       0.289646
      9 C                     0.193279      -0.000220
     10 C                     0.371595      -0.006560
     11 C                    -1.438691       0.017303
     12 C                     0.242676      -0.004197
     13 C                     0.852036       0.002389
     14 C                     1.157022       0.002615
     15 H                     0.264268      -0.006617
     16 H                     0.261369      -0.003848
     17 H                     0.154969      -0.013421
     18 H                     0.221189      -0.000418
     19 H                     0.090547       0.001779
     20 H                     0.318111      -0.000150
     21 H                     0.333434       0.000072
     22 H                     0.377122      -0.000071
     23 C                    -1.565060       0.015987
     24 O                    -0.193861       0.017843
  --------------------------------------------------------
  Sum of atomic charges =    -1.000000

                    Cartesian Multipole Moments
 -----------------------------------------------------------------
    Charge (ESU x 10^10)
                -4.8032
    Dipole Moment (Debye)
         X       0.9232      Y       0.1747      Z      11.3040
       Tot      11.3430
    Quadrupole Moments (Debye-Ang)
        XX    -110.8577     XY      -8.5301     YY    -119.2315
        XZ       2.7015     YZ      -0.1264     ZZ    -120.7829

 Total job time:  486.27s(wall), 3778.95s(cpu)
        *  Thank you very much for using Q-Chem.  Have a nice day.  *
