 Q-Chem 5.4, Q-Chem, Inc., Pleasanton, CA (2021)
 Q-Chem 5.4.0 for Intel X86 EM64T Linux

User input:
--------------------------------------------------------------
$molecule
-1 2
C                 -0.5301840000     -2.1509690000      1.4827320000
C                  0.8617510000     -2.4490350000      1.3458100000
C                  1.8243950000     -1.4672610000      1.2112920000
C                  1.4383500000     -0.0456590000      1.2037690000
C                  0.0513000000      0.2533830000      1.3821340000
C                 -0.9111310000     -0.7283460000      1.5185250000
O                 -1.4334420000     -3.0431510000      1.5709820000
O                  2.3326950000      0.8449230000      1.0404550000
N                 -2.2772910000     -0.5455200000      1.7286710000
N                  3.2029380000     -1.6481540000      1.1045740000
C                 -3.1129700000      0.5454270000      1.2111490000
C                 -4.5705890000      0.0724740000      1.3563000000
C                 -2.9334250000      1.8226700000      2.0593450000
C                 -2.8284050000      0.8482240000     -0.2769090000
C                  3.8992620000     -2.7624510000      0.4485580000
C                  3.9289950000     -4.0050590000      1.3639410000
C                  5.3482260000     -2.2910710000      0.2302080000
C                  3.2756460000     -3.1213100000     -0.9186550000
H                  1.1117290000     -3.5025370000      1.3534540000
H                 -0.1952430000      1.3075420000      1.4018800000
H                 -2.7081200000     -1.4683170000      1.6817660000
H                  3.6059280000     -0.7301050000      0.9195790000
H                 -4.7478310000     -0.8260910000      0.7570000000
H                 -5.2645730000      0.8488620000      1.0212390000
H                 -4.7927720000     -0.1645280000      2.4009760000
H                 -3.1300670000      1.5999280000      3.1114100000
H                 -3.6279800000      2.6033830000      1.7292060000
H                 -1.9210020000      2.2198320000      1.9854150000
H                 -3.0192580000     -0.0407430000     -0.8850250000
H                 -1.7869840000      1.1368200000     -0.4272570000
H                 -3.4692440000      1.6604530000     -0.6379760000
H                  2.9293830000     -4.4012010000      1.5429770000
H                  4.3638540000     -3.7423650000      2.3319350000
H                  4.5319230000     -4.8005320000      0.9115960000
H                  5.8077850000     -2.0154380000      1.1839960000
H                  5.3762110000     -1.4168800000     -0.4278120000
H                  5.9478810000     -3.0829010000     -0.2281520000
H                  2.2290650000     -3.4098890000     -0.8096150000
H                  3.8172720000     -3.9504110000     -1.3876980000
H                  3.3154000000     -2.2576970000     -1.5888030000
$end

$rem
BASIS  =  6-311++G(d,p)
GUI  =  2
JOB_TYPE  =  SP
METHOD  =  B3LYP
SCF_CONVERGENCE  = 8
SOLVENT_METHOD = sm12
$end

$smx
solvent dimethylformamide
charges CM5
$end

--------------------------------------------------------------

             Standard Nuclear Orientation (Angstroms)
    I     Atom           X                Y                Z
 ----------------------------------------------------------------
    1      C      -0.5301840000    -2.1509690000     1.4827320000
    2      C       0.8617510000    -2.4490350000     1.3458100000
    3      C       1.8243950000    -1.4672610000     1.2112920000
    4      C       1.4383500000    -0.0456590000     1.2037690000
    5      C       0.0513000000     0.2533830000     1.3821340000
    6      C      -0.9111310000    -0.7283460000     1.5185250000
    7      O      -1.4334420000    -3.0431510000     1.5709820000
    8      O       2.3326950000     0.8449230000     1.0404550000
    9      N      -2.2772910000    -0.5455200000     1.7286710000
   10      N       3.2029380000    -1.6481540000     1.1045740000
   11      C      -3.1129700000     0.5454270000     1.2111490000
   12      C      -4.5705890000     0.0724740000     1.3563000000
   13      C      -2.9334250000     1.8226700000     2.0593450000
   14      C      -2.8284050000     0.8482240000    -0.2769090000
   15      C       3.8992620000    -2.7624510000     0.4485580000
   16      C       3.9289950000    -4.0050590000     1.3639410000
   17      C       5.3482260000    -2.2910710000     0.2302080000
   18      C       3.2756460000    -3.1213100000    -0.9186550000
   19      H       1.1117290000    -3.5025370000     1.3534540000
   20      H      -0.1952430000     1.3075420000     1.4018800000
   21      H      -2.7081200000    -1.4683170000     1.6817660000
   22      H       3.6059280000    -0.7301050000     0.9195790000
   23      H      -4.7478310000    -0.8260910000     0.7570000000
   24      H      -5.2645730000     0.8488620000     1.0212390000
   25      H      -4.7927720000    -0.1645280000     2.4009760000
   26      H      -3.1300670000     1.5999280000     3.1114100000
   27      H      -3.6279800000     2.6033830000     1.7292060000
   28      H      -1.9210020000     2.2198320000     1.9854150000
   29      H      -3.0192580000    -0.0407430000    -0.8850250000
   30      H      -1.7869840000     1.1368200000    -0.4272570000
   31      H      -3.4692440000     1.6604530000    -0.6379760000
   32      H       2.9293830000    -4.4012010000     1.5429770000
   33      H       4.3638540000    -3.7423650000     2.3319350000
   34      H       4.5319230000    -4.8005320000     0.9115960000
   35      H       5.8077850000    -2.0154380000     1.1839960000
   36      H       5.3762110000    -1.4168800000    -0.4278120000
   37      H       5.9478810000    -3.0829010000    -0.2281520000
   38      H       2.2290650000    -3.4098890000    -0.8096150000
   39      H       3.8172720000    -3.9504110000    -1.3876980000
   40      H       3.3154000000    -2.2576970000    -1.5888030000
 ----------------------------------------------------------------

   16    -806.9765248333      8.67e-09  Convergence criterion met
 Total energy in the final basis set =     -807.0634530804

                    Orbital Energies (a.u.)
 --------------------------------------------------------------

 Alpha MOs
 -- Occupied --
-19.0666 -19.0666 -14.3120 -14.3120 -10.2223 -10.2222 -10.2132 -10.2132
-10.2010 -10.2010 -10.1648 -10.1647 -10.1637 -10.1636 -10.1630 -10.1629
-10.1492 -10.1491  -0.9926  -0.9894  -0.9248  -0.9241  -0.8196  -0.8011
 -0.7752  -0.7212  -0.6957  -0.6951  -0.6950  -0.6926  -0.6662  -0.6159
 -0.5763  -0.5719  -0.5438  -0.5099  -0.4885  -0.4846  -0.4727  -0.4547
 -0.4541  -0.4505  -0.4338  -0.4309  -0.4198  -0.4190  -0.4140  -0.4037
 -0.3963  -0.3920  -0.3901  -0.3846  -0.3755  -0.3748  -0.3731  -0.3727
 -0.3679  -0.3497  -0.3493  -0.3433  -0.3352  -0.3346  -0.3092  -0.2939
 -0.2413  -0.2352  -0.2332  -0.2027  -0.1406

 Beta MOs
 -- Occupied --
-19.0610 -19.0610 -14.3107 -14.3107 -10.2223 -10.2222 -10.2113 -10.2113
-10.1987 -10.1987 -10.1648 -10.1647 -10.1637 -10.1635 -10.1629 -10.1628
-10.1498 -10.1497  -0.9833  -0.9798  -0.9216  -0.9205  -0.8157  -0.7998
 -0.7733  -0.7201  -0.6955  -0.6949  -0.6948  -0.6921  -0.6572  -0.6138
 -0.5730  -0.5706  -0.5421  -0.5079  -0.4874  -0.4822  -0.4712  -0.4539
 -0.4527  -0.4497  -0.4333  -0.4297  -0.4187  -0.4131  -0.4107  -0.4022
 -0.3912  -0.3894  -0.3845  -0.3844  -0.3735  -0.3731  -0.3722  -0.3713
 -0.3557  -0.3474  -0.3407  -0.3384  -0.3348  -0.3341  -0.3014  -0.2749
 -0.2360  -0.2279  -0.2178  -0.1946

          Ground-State Mulliken Net Atomic Charges

     Atom                 Charge (a.u.)    Spin (a.u.)
  --------------------------------------------------------
      1 C                    -0.761976       0.108267
      2 C                    -0.522883      -0.080898
      3 C                    -0.386247       0.209324
      4 C                    -0.769850       0.108473
      5 C                    -0.520896      -0.080520
      6 C                    -0.370534       0.207417
      7 O                    -0.365411       0.210092
      8 O                    -0.365299       0.209856
      9 N                     0.035575       0.057523
     10 N                     0.036465       0.057178
     11 C                    -0.372591      -0.001145
     12 C                     0.368985      -0.001431
     13 C                    -0.097706      -0.002443
     14 C                    -0.335469       0.005557
     15 C                    -0.369443      -0.001396
     16 C                    -0.100422      -0.002455
     17 C                     0.367850      -0.001562
     18 C                    -0.340057       0.005551
     19 H                     0.072412      -0.002964
     20 H                     0.074304      -0.002814
     21 H                     0.264600      -0.002181
     22 H                     0.263914      -0.002161
     23 H                     0.181490      -0.000104
     24 H                     0.275534      -0.000107
     25 H                     0.197251       0.000881
     26 H                     0.088677       0.001027
     27 H                     0.308530      -0.000055
     28 H                     0.102994       0.000435
     29 H                     0.087683       0.000295
     30 H                     0.052760      -0.002179
     31 H                     0.302730       0.001089
     32 H                     0.103036       0.000563
     33 H                     0.089145       0.001056
     34 H                     0.308361      -0.000073
     35 H                     0.197125       0.000899
     36 H                     0.181363      -0.000100
     37 H                     0.275249      -0.000108
     38 H                     0.052356      -0.002184
     39 H                     0.302848       0.001108
     40 H                     0.087545       0.000290
  --------------------------------------------------------
  Sum of atomic charges =    -1.000000

                    Cartesian Multipole Moments
 -----------------------------------------------------------------
    Charge (ESU x 10^10)
                -4.8032
    Dipole Moment (Debye)
         X      -2.3350      Y       5.2560      Z      -7.6116
       Tot       9.5401
    Quadrupole Moments (Debye-Ang)
        XX    -127.4085     XY     -15.7310     YY    -142.8429
        XZ      -2.5103     YZ      10.8782     ZZ    -131.8429

 Total job time:  1475.09s(wall), 11442.11s(cpu)
        *  Thank you very much for using Q-Chem.  Have a nice day.  *
