 Q-Chem 5.4, Q-Chem, Inc., Pleasanton, CA (2021)
 Q-Chem 5.4.0 for Intel X86 EM64T Linux

User input:
--------------------------------------------------------------
$molecule
0 1
C                  5.9364520000     -5.2256650000      1.1044700000
C                  6.8357590000     -5.0816330000      0.0532440000
C                  6.6254680000     -4.1035550000     -0.9212780000
C                  4.8198240000     -4.3900000000      1.1858480000
C                  4.6088380000     -3.4085990000      0.2080310000
C                  5.5156770000     -3.2685770000     -0.8454620000
C                  3.8703930000     -4.5627760000      2.3203710000
C                  2.6820700000     -3.6398460000      2.3639000000
C                  2.4787200000     -2.6938060000      1.4214200000
C                  3.4276450000     -2.5033010000      0.2685530000
O                  4.0406810000     -5.4065030000      3.1746070000
O                  3.2327790000     -1.6485370000     -0.5693020000
H                  6.0804330000     -5.9771750000      1.8705740000
H                  5.3335930000     -2.5037960000     -1.5900170000
Br                 1.5205200000     -3.9161260000      3.8276390000
Br                 1.0041210000     -1.5133560000      1.4340630000
H                  7.7014530000     -5.7309030000     -0.0083090000
H                  7.3279150000     -3.9935380000     -1.7393430000
$end
$rem
MAX_SCF_CYCLES=200
BASIS  =  6-311++G(d,p)
GUI  =  2
JOB_TYPE  =  SP
METHOD  =  B3LYP
SOLVENT_METHOD = COSMO
$end
$solvent
dielectric 37.219
opticaldielectric 1.43
$end

--------------------------------------------------------------

             Standard Nuclear Orientation (Angstroms)
    I     Atom           X                Y                Z
 ----------------------------------------------------------------
    1      C       3.2319570890    -1.3972818705    -0.0003386866
    2      C       4.4344746527    -0.6983360113    -0.0011101787
    3      C       4.4345064521     0.6982856255    -0.0012099756
    4      C       2.0209430634    -0.7006749598     0.0002120904
    5      C       2.0209837783     0.7006776341     0.0001308615
    6      C       3.2320078705     1.3972627816    -0.0005124599
    7      C       0.7457752352    -1.4703240821     0.0008798003
    8      C      -0.5324646073    -0.6753974314     0.0000821272
    9      C      -0.5324462363     0.6753843623     0.0000787416
   10      C       0.7458030206     1.4703255337     0.0007868453
   11      O       0.7300994939    -2.6829015802     0.0024544220
   12      O       0.7301013911     2.6829039216     0.0023252948
   13      H       3.2091130681    -2.4798211386    -0.0001630975
   14      H       3.2091106211     2.4797979643    -0.0004564661
   15      Br     -2.1093778848    -1.7153037363    -0.0004592490
   16      Br     -2.1093414206     1.7153197717    -0.0003466988
   17      H       5.3730253983    -1.2404509861    -0.0016185696
   18      H       5.3730776103     1.2403646981    -0.0017864227
 ----------------------------------------------------------------

    9   -5682.3298635810      4.21e-06  Convergence criterion met
 Total energy in the final basis set =    -5682.3298635810
    5   -5682.3432559649      2.53e-06  Convergence criterion met
 Total energy in the final basis set =    -5682.3432559649

                    Orbital Energies (a.u.)
 --------------------------------------------------------------

 Alpha MOs
 -- Occupied --
********-482.8560 -62.5088 -62.5088 -56.3294 -56.3294 -56.3255 -56.3255
-56.3250 -56.3250 -19.1501 -19.1501 -10.3051 -10.3051 -10.2766 -10.2759
-10.2177 -10.2172 -10.2031 -10.2030 -10.2013 -10.2008  -8.7176  -8.7176
 -6.5495  -6.5495  -6.5365  -6.5365  -6.5349  -6.5349  -2.6602  -2.6602
 -2.6571  -2.6571  -2.6557  -2.6557  -2.6453  -2.6453  -2.6452  -2.6452
 -1.0886  -1.0868  -0.9059  -0.8859  -0.8246  -0.8104  -0.7854  -0.7572
 -0.7022  -0.6533  -0.6380  -0.6003  -0.5653  -0.5320  -0.5115  -0.4840
 -0.4779  -0.4725  -0.4650  -0.4561  -0.4407  -0.4375  -0.4309  -0.3961
 -0.3891  -0.3757  -0.3708  -0.3283  -0.3281  -0.3072  -0.3054  -0.2957
 -0.2883  -0.2842  -0.2743

          Ground-State Mulliken Net Atomic Charges

     Atom                 Charge (a.u.)
  ----------------------------------------
      1 C                     0.212995
      2 C                    -0.369679
      3 C                    -0.370043
      4 C                     0.504084
      5 C                     0.503409
      6 C                     0.212894
      7 C                    -1.068824
      8 C                     0.574245
      9 C                     0.574613
     10 C                    -1.069658
     11 O                    -0.213559
     12 O                    -0.213533
     13 H                     0.200578
     14 H                     0.200601
     15 Br                   -0.076524
     16 Br                   -0.076473
     17 H                     0.237426
     18 H                     0.237446
  ----------------------------------------
  Sum of atomic charges =     0.000000

                    Cartesian Multipole Moments
 -----------------------------------------------------------------
    Charge (ESU x 10^10)
                 0.0000
    Dipole Moment (Debye)
         X       4.3904      Y      -0.0004      Z      -0.0084
       Tot       4.3904
    Quadrupole Moments (Debye-Ang)
        XX     -75.9578     XY      -0.0023     YY    -119.4103
        XZ      -0.0147     YZ       0.0002     ZZ    -105.1194

 Total job time:  36.07s(wall), 263.39s(cpu)
        *  Thank you very much for using Q-Chem.  Have a nice day.  *
