 Q-Chem 5.4, Q-Chem, Inc., Pleasanton, CA (2021)
 Q-Chem 5.4.0 for Intel X86 EM64T Linux

User input:
--------------------------------------------------------------
$molecule
0 1
C                 -1.8256780000      0.3069460000     -1.0900260000
C                 -1.1979400000      0.1390470000      0.3168200000
C                 -1.8963980000     -1.0454030000      1.0110560000
C                 -1.4520710000      1.4093740000      1.1671580000
C                  0.3097660000     -0.1076000000      0.1876470000
C                  0.9164700000     -1.2215860000      0.6312060000
C                  2.3643420000     -1.4926850000      0.5235930000
O                  2.8337390000     -2.5282730000      0.9513190000
C                  3.2154930000     -0.4459040000     -0.1283950000
C                  2.6504350000      0.6870040000     -0.5876680000
Br                 3.6295710000      2.0700980000     -1.4242180000
C                  1.1663820000      0.9441390000     -0.4675880000
O                  0.7008340000      1.9787300000     -0.8955310000
Br                 5.0572870000     -0.8395210000     -0.2413300000
H                 -2.9068480000      0.4356900000     -0.9880120000
H                 -1.6523900000     -0.5823630000     -1.7031210000
H                 -1.4260310000      1.1748310000     -1.6116780000
H                 -1.7845120000     -1.9766430000      0.4488840000
H                 -2.9655540000     -0.8337080000      1.0844380000
H                 -1.5235370000     -1.2056970000      2.0264580000
H                 -1.0124250000      1.3060960000      2.1635660000
H                 -2.5295740000      1.5489520000      1.2913550000
H                 -1.0441520000      2.3017100000      0.6955740000
H                  0.3727920000     -2.0232340000      1.1128030000
$end
$rem
MAX_SCF_CYCLES=200
BASIS  =  6-311++G(d,p)
GUI  =  2
JOB_TYPE  =  SP
METHOD  =  B3LYP
SOLVENT_METHOD = PCM
$end
$pcm
theory = CPCM
$end
$solvent
dielectric 37.219
opticaldielectric 1.43
$end

--------------------------------------------------------------

             Standard Nuclear Orientation (Angstroms)
    I     Atom           X                Y                Z
 ----------------------------------------------------------------
    1      C      -1.8256780000     0.3069460000    -1.0900260000
    2      C      -1.1979400000     0.1390470000     0.3168200000
    3      C      -1.8963980000    -1.0454030000     1.0110560000
    4      C      -1.4520710000     1.4093740000     1.1671580000
    5      C       0.3097660000    -0.1076000000     0.1876470000
    6      C       0.9164700000    -1.2215860000     0.6312060000
    7      C       2.3643420000    -1.4926850000     0.5235930000
    8      O       2.8337390000    -2.5282730000     0.9513190000
    9      C       3.2154930000    -0.4459040000    -0.1283950000
   10      C       2.6504350000     0.6870040000    -0.5876680000
   11      Br      3.6295710000     2.0700980000    -1.4242180000
   12      C       1.1663820000     0.9441390000    -0.4675880000
   13      O       0.7008340000     1.9787300000    -0.8955310000
   14      Br      5.0572870000    -0.8395210000    -0.2413300000
   15      H      -2.9068480000     0.4356900000    -0.9880120000
   16      H      -1.6523900000    -0.5823630000    -1.7031210000
   17      H      -1.4260310000     1.1748310000    -1.6116780000
   18      H      -1.7845120000    -1.9766430000     0.4488840000
   19      H      -2.9655540000    -0.8337080000     1.0844380000
   20      H      -1.5235370000    -1.2056970000     2.0264580000
   21      H      -1.0124250000     1.3060960000     2.1635660000
   22      H      -2.5295740000     1.5489520000     1.2913550000
   23      H      -1.0441520000     2.3017100000     0.6955740000
   24      H       0.3727920000    -2.0232340000     1.1128030000
 ----------------------------------------------------------------

    8   -5685.9434834209      8.61e-06  Convergence criterion met
 Total energy in the final basis set =    -5685.9434834209

                    Orbital Energies (a.u.)
 --------------------------------------------------------------

 Alpha MOs
 -- Occupied --
********-482.8557 -62.5092 -62.5085 -56.3298 -56.3291 -56.3259 -56.3254
-56.3252 -56.3247 -19.1543 -19.1523 -10.3071 -10.3029 -10.2748 -10.2731
-10.2272 -10.2101 -10.2058 -10.1601 -10.1593 -10.1593  -8.7180  -8.7173
 -6.5499  -6.5492  -6.5368  -6.5361  -6.5353  -6.5346  -2.6607  -2.6601
 -2.6572  -2.6565  -2.6562  -2.6555  -2.6457  -2.6456  -2.6450  -2.6449
 -1.0916  -1.0868  -0.9010  -0.8590  -0.8246  -0.8068  -0.7535  -0.7119
 -0.6895  -0.6894  -0.6356  -0.6174  -0.5590  -0.5459  -0.5069  -0.4874
 -0.4719  -0.4706  -0.4509  -0.4485  -0.4438  -0.4386  -0.4319  -0.4110
 -0.3929  -0.3829  -0.3758  -0.3666  -0.3631  -0.3439  -0.3408  -0.3281
 -0.3273  -0.3058  -0.3037  -0.3009  -0.2865  -0.2752

          Ground-State Mulliken Net Atomic Charges

     Atom                 Charge (a.u.)
  ----------------------------------------
      1 C                    -0.715577
      2 C                     0.588151
      3 C                    -0.509089
      4 C                    -0.715184
      5 C                     1.448585
      6 C                    -0.562358
      7 C                    -0.846708
      8 O                    -0.225903
      9 C                     1.060364
     10 C                    -0.320784
     11 Br                   -0.095235
     12 C                    -0.662506
     13 O                    -0.171319
     14 Br                   -0.064261
     15 H                     0.178537
     16 H                     0.156504
     17 H                     0.178435
     18 H                     0.151235
     19 H                     0.192107
     20 H                     0.151198
     21 H                     0.156610
     22 H                     0.178473
     23 H                     0.178257
     24 H                     0.270468
  ----------------------------------------
  Sum of atomic charges =     0.000000

                    Cartesian Multipole Moments
 -----------------------------------------------------------------
    Charge (ESU x 10^10)
                -0.0000
    Dipole Moment (Debye)
         X      -3.2935      Y      -0.0006      Z       0.5451
       Tot       3.3383
    Quadrupole Moments (Debye-Ang)
        XX    -111.9007     XY       8.3114     YY    -120.7956
        XZ      -3.8795     YZ       5.2943     ZZ    -108.9765

 Total job time:  34.75s(wall), 250.17s(cpu)
        *  Thank you very much for using Q-Chem.  Have a nice day.  *
