 Q-Chem 5.4, Q-Chem, Inc., Pleasanton, CA (2021)
 Q-Chem 5.4.0 for Intel X86 EM64T Linux

User input:
--------------------------------------------------------------
$molecule
-1 2
C                 -4.0962640000      3.6185530000      1.5406020000
C                 -4.5738490000      3.8342000000      0.2593170000
C                 -3.9805760000      3.1857550000     -0.8413480000
C                 -2.9097360000      2.3271780000     -0.6224070000
C                 -2.4027800000      2.0871050000      0.6582430000
C                 -3.0119950000      2.7496350000      1.7654290000
C                 -2.5161670000      2.5277040000      3.1102000000
C                 -1.4006070000      1.6196940000      3.2437410000
C                 -0.8028910000      0.9739560000      2.1874480000
C                 -1.2574150000      1.1610900000      0.8377290000
O                 -2.9868920000      3.0678110000      4.1655630000
O                 -0.7291590000      0.5833600000     -0.1448130000
O                 -0.9785550000      1.4502910000      4.5274560000
O                 -5.6434650000      4.7066220000      0.1449990000
C                 -6.1655030000      4.9583750000     -1.1417930000
H                 -4.5544160000      4.1184590000      2.3852300000
H                 -4.3420620000      3.3434830000     -1.8494360000
H                 -2.4340670000      1.8148560000     -1.4513800000
H                  0.0327000000      0.3034750000      2.3553760000
H                 -1.5942860000      2.0320650000      5.0245200000
H                 -6.9880700000      5.6614630000     -1.0023170000
H                 -6.5513500000      4.0455590000     -1.6136910000
H                 -5.4178460000      5.4099030000     -1.8065690000
$end
$rem
MAX_SCF_CYCLES=200
BASIS  =  6-311++G(d,p)
GUI  =  2
JOB_TYPE  =  SP
METHOD  =  B3LYP
SOLVENT_METHOD = PCM
$end
$pcm
theory = CPCM
$end
$solvent
dielectric 37.219
opticaldielectric 1.43
$end

--------------------------------------------------------------

             Standard Nuclear Orientation (Angstroms)
    I     Atom           X                Y                Z
 ----------------------------------------------------------------
    1      C      -4.0962640000     3.6185530000     1.5406020000
    2      C      -4.5738490000     3.8342000000     0.2593170000
    3      C      -3.9805760000     3.1857550000    -0.8413480000
    4      C      -2.9097360000     2.3271780000    -0.6224070000
    5      C      -2.4027800000     2.0871050000     0.6582430000
    6      C      -3.0119950000     2.7496350000     1.7654290000
    7      C      -2.5161670000     2.5277040000     3.1102000000
    8      C      -1.4006070000     1.6196940000     3.2437410000
    9      C      -0.8028910000     0.9739560000     2.1874480000
   10      C      -1.2574150000     1.1610900000     0.8377290000
   11      O      -2.9868920000     3.0678110000     4.1655630000
   12      O      -0.7291590000     0.5833600000    -0.1448130000
   13      O      -0.9785550000     1.4502910000     4.5274560000
   14      O      -5.6434650000     4.7066220000     0.1449990000
   15      C      -6.1655030000     4.9583750000    -1.1417930000
   16      H      -4.5544160000     4.1184590000     2.3852300000
   17      H      -4.3420620000     3.3434830000    -1.8494360000
   18      H      -2.4340670000     1.8148560000    -1.4513800000
   19      H       0.0327000000     0.3034750000     2.3553760000
   20      H      -1.5942860000     2.0320650000     5.0245200000
   21      H      -6.9880700000     5.6614630000    -1.0023170000
   22      H      -6.5513500000     4.0455590000    -1.6136910000
   23      H      -5.4178460000     5.4099030000    -1.8065690000
 ----------------------------------------------------------------

    9    -725.2336336509      4.51e-06  Convergence criterion met
 Total energy in the final basis set =     -725.2336336509

                    Orbital Energies (a.u.)
 --------------------------------------------------------------

 Alpha MOs
 -- Occupied --
-19.1553 -19.1477 -19.0888 -19.0778 -10.2371 -10.2297 -10.2281 -10.2232
-10.2149 -10.1807 -10.1752 -10.1738 -10.1710 -10.1692 -10.1560  -1.0674
 -1.0667  -1.0036  -0.9989  -0.8616  -0.8035  -0.7619  -0.7436  -0.7000
 -0.6726  -0.6273  -0.6028  -0.5765  -0.5441  -0.5246  -0.4897  -0.4843
 -0.4804  -0.4668  -0.4375  -0.4359  -0.4278  -0.4221  -0.4143  -0.4085
 -0.3915  -0.3883  -0.3766  -0.3626  -0.3565  -0.3553  -0.3311  -0.3162
 -0.2689  -0.2630  -0.2490  -0.2442  -0.2275  -0.1543

 Beta MOs
 -- Occupied --
-19.1552 -19.1471 -19.0822 -19.0731 -10.2371 -10.2285 -10.2268 -10.2200
-10.2149 -10.1806 -10.1754 -10.1731 -10.1702 -10.1683 -10.1550  -1.0665
 -1.0650  -0.9954  -0.9876  -0.8595  -0.7989  -0.7602  -0.7419  -0.6978
 -0.6639  -0.6256  -0.6002  -0.5740  -0.5429  -0.5227  -0.4864  -0.4833
 -0.4789  -0.4663  -0.4357  -0.4273  -0.4216  -0.4197  -0.4108  -0.4055
 -0.3868  -0.3837  -0.3621  -0.3614  -0.3529  -0.3407  -0.3307  -0.3084
 -0.2572  -0.2538  -0.2397  -0.2347  -0.2226

          Ground-State Mulliken Net Atomic Charges

     Atom                 Charge (a.u.)    Spin (a.u.)
  --------------------------------------------------------
      1 C                    -0.265895       0.097221
      2 C                    -0.510797      -0.012588
      3 C                     0.090141       0.055696
      4 C                     0.089869      -0.010065
      5 C                     0.368799       0.044911
      6 C                     0.716154       0.000960
      7 C                    -0.810251       0.181234
      8 C                    -0.362839       0.096163
      9 C                     0.565994       0.075784
     10 C                    -0.595426       0.058216
     11 O                    -0.527379       0.242464
     12 O                    -0.513289       0.169090
     13 O                    -0.299925       0.018313
     14 O                    -0.224958       0.003022
     15 C                    -0.361534       0.000539
     16 H                     0.192546      -0.006644
     17 H                     0.246232      -0.003491
     18 H                     0.170591      -0.000475
     19 H                     0.209068      -0.007201
     20 H                     0.296738      -0.003205
     21 H                     0.192307       0.000007
     22 H                     0.166983       0.000026
     23 H                     0.166872       0.000021
  --------------------------------------------------------
  Sum of atomic charges =    -1.000000

                    Cartesian Multipole Moments
 -----------------------------------------------------------------
    Charge (ESU x 10^10)
                -4.8032
    Dipole Moment (Debye)
         X       7.1514      Y      -7.5965      Z     -11.7858
       Tot      15.7402
    Quadrupole Moments (Debye-Ang)
        XX    -104.8392     XY      16.0076     YY    -110.3034
        XZ      37.3506     YZ     -36.1671     ZZ    -128.4169

 Total job time:  50.85s(wall), 289.80s(cpu)
        *  Thank you very much for using Q-Chem.  Have a nice day.  *
