 Gaussian 16, Revision A.03,
 Gaussian 16:  ES64L-G16RevA.03 25-Dec-2016

 --------------------------------------
 #P UB3LYP/6-311++G(d,p) nosym opt freq
 --------------------------------------

 -------
 Radical
 -------
 Symbolic Z-matrix:
 Charge = -1 Multiplicity = 2

 SCF Done:  E(UB3LYP) =  -725.148972212     A.U. after   24 cycles
 Optimization completed.
    -- Stationary point found.
 Normal termination of Gaussian 16 at Mon Jan  8 21:25:58 2024.

 ----------------------------------------------------------------------
 #P Geom=AllCheck Guess=TCheck SCRF=Check GenChk UB3LYP/6-311++G(d,p) F
 req
 ----------------------------------------------------------------------

 Structure from the checkpoint file:  "304-rad.chk"
 -------
 Radical
 -------
 Charge = -1 Multiplicity = 2

                          Input orientation:
 ---------------------------------------------------------------------
 Center     Atomic      Atomic             Coordinates (Angstroms)
 Number     Number       Type             X           Y           Z
 ---------------------------------------------------------------------
      1          6           0       -4.096264    3.618553    1.540602
      2          6           0       -4.573849    3.834200    0.259317
      3          6           0       -3.980576    3.185755   -0.841348
      4          6           0       -2.909736    2.327178   -0.622407
      5          6           0       -2.402780    2.087105    0.658243
      6          6           0       -3.011995    2.749635    1.765429
      7          6           0       -2.516167    2.527704    3.110200
      8          6           0       -1.400607    1.619694    3.243741
      9          6           0       -0.802891    0.973956    2.187448
     10          6           0       -1.257415    1.161090    0.837729
     11          8           0       -2.986892    3.067811    4.165563
     12          8           0       -0.729159    0.583360   -0.144813
     13          8           0       -0.978555    1.450291    4.527456
     14          8           0       -5.643465    4.706622    0.144999
     15          6           0       -6.165503    4.958375   -1.141793
     16          1           0       -4.554416    4.118459    2.385230
     17          1           0       -4.342062    3.343483   -1.849436
     18          1           0       -2.434067    1.814856   -1.451380
     19          1           0        0.032700    0.303475    2.355376
     20          1           0       -1.594286    2.032065    5.024520
     21          1           0       -6.988070    5.661463   -1.002317
     22          1           0       -6.551350    4.045559   -1.613691
     23          1           0       -5.417846    5.409903   -1.806569
 ---------------------------------------------------------------------

 SCF Done:  E(UB3LYP) =  -725.148972212     A.U. after    1 cycles

 Alpha  occ. eigenvalues --  -19.05118 -19.01517 -18.95211 -18.93780 -10.13692
 Alpha  occ. eigenvalues --  -10.11878 -10.09467 -10.09255 -10.08732 -10.05864
 Alpha  occ. eigenvalues --  -10.05344 -10.05245 -10.04592 -10.04364 -10.02394
 Alpha  occ. eigenvalues --   -0.96370  -0.93432  -0.86300  -0.86148  -0.73782
 Alpha  occ. eigenvalues --   -0.67610  -0.64712  -0.62131  -0.59334  -0.54501
 Alpha  occ. eigenvalues --   -0.50367  -0.48361  -0.44999  -0.42930  -0.40402
 Alpha  occ. eigenvalues --   -0.37744  -0.37364  -0.36319  -0.35279  -0.32240
 Alpha  occ. eigenvalues --   -0.30685  -0.30255  -0.30200  -0.28483  -0.27381
 Alpha  occ. eigenvalues --   -0.26959  -0.26025  -0.24887  -0.24696  -0.22827
 Alpha  occ. eigenvalues --   -0.22481  -0.21568  -0.19755  -0.14143  -0.12545
 Alpha  occ. eigenvalues --   -0.12011  -0.10301  -0.10280  -0.01908
 Alpha virt. eigenvalues --    0.06478   0.09043   0.09208   0.10576   0.10715
 Alpha virt. eigenvalues --    0.11482   0.11965   0.11973   0.12602   0.14184
 Alpha virt. eigenvalues --    0.14414   0.16340   0.17038   0.17102   0.18086

  Beta  occ. eigenvalues --  -19.05109 -19.01479 -18.94502 -18.93250 -10.13692
  Beta  occ. eigenvalues --  -10.11882 -10.09373 -10.09186 -10.08444 -10.05780
  Beta  occ. eigenvalues --  -10.05392 -10.05215 -10.04513 -10.04262 -10.02288
  Beta  occ. eigenvalues --   -0.96353  -0.93242  -0.85377  -0.84963  -0.73586
  Beta  occ. eigenvalues --   -0.67167  -0.64589  -0.61928  -0.59181  -0.53581
  Beta  occ. eigenvalues --   -0.50235  -0.48090  -0.44788  -0.42821  -0.40207
  Beta  occ. eigenvalues --   -0.37720  -0.37304  -0.36056  -0.35033  -0.32140
  Beta  occ. eigenvalues --   -0.30638  -0.30071  -0.28958  -0.28224  -0.26892
  Beta  occ. eigenvalues --   -0.26629  -0.25782  -0.24733  -0.23486  -0.22304
  Beta  occ. eigenvalues --   -0.21378  -0.20939  -0.18682  -0.12622  -0.11905
  Beta  occ. eigenvalues --   -0.10602  -0.09789  -0.09381
  Beta virt. eigenvalues --    0.04768   0.06474   0.09203   0.09631   0.10594
  Beta virt. eigenvalues --    0.10726   0.11487   0.11972   0.12610   0.13028
  Beta virt. eigenvalues --    0.14186   0.14419   0.16387   0.17144   0.17337

 Mulliken charges and spin densities:
               1          2
     1  C   -0.245261   0.087189
     2  C   -0.447165  -0.010496
     3  C    0.197101   0.067458
     4  C    0.038642  -0.027970
     5  C    0.418921   0.071632
     6  C    0.824471   0.024057
     7  C   -1.028318   0.150482
     8  C   -0.390612   0.076266
     9  C    0.716773   0.094712
    10  C   -0.799490   0.019664
    11  O   -0.444153   0.262145
    12  O   -0.401536   0.191729
    13  O   -0.266647   0.013735
    14  O   -0.181461   0.002043
    15  C   -0.329550   0.001009
    16  H    0.183914  -0.006214
    17  H    0.160116  -0.004723
    18  H    0.154675   0.000059
    19  H    0.165562  -0.008095
    20  H    0.256296  -0.003931
    21  H    0.152000   0.000013
    22  H    0.132862  -0.000382
    23  H    0.132860  -0.000382
 Sum of Mulliken charges =  -1.00000   1.00000

 Dipole moment (field-independent basis, Debye):
    X=              9.0368    Y=             -8.9291    Z=            -10.1317  Tot=             16.2495
 Quadrupole moment (field-independent basis, Debye-Ang):
   XX=           -118.6742   YY=           -118.0034   ZZ=           -128.7696
   XY=             26.0676   XZ=             29.0997   YZ=            -29.3156

  Exact polarizability: 166.473 -64.589 137.633  25.043  -3.445 207.314
 Approx polarizability: 252.327-100.197 216.803   8.769  23.695 349.505

                      1                      2                      3
                      A                      A                      A
 Frequencies --     47.9336                90.3132               106.4189
 Red. masses --      3.2077                 8.4552                 4.7741
 Frc consts  --      0.0043                 0.0406                 0.0319
 IR Inten    --      3.0429                 0.5720                 3.4307

                      4                      5                      6
                      A                      A                      A
 Frequencies --    162.6246               168.1148               221.5988
 Red. masses --      7.4946                 5.3268                 2.5716
 Frc consts  --      0.1168                 0.0887                 0.0744
 IR Inten    --      3.4561                 2.1764                 0.0706

                      7                      8                      9
                      A                      A                      A
 Frequencies --    235.6623               284.4579               309.6026
 Red. masses --      1.6299                 3.9949                 4.1008
 Frc consts  --      0.0533                 0.1905                 0.2316
 IR Inten    --      0.3332                 1.3549                 0.7677

                     10                     11                     12
                      A                      A                      A
 Frequencies --    324.9093               329.4684               386.9044
 Red. masses --      8.4819                 5.9854                 5.4349
 Frc consts  --      0.5276                 0.3828                 0.4793
 IR Inten    --      4.9171                10.6619                 0.0439

                     13                     14                     15
                      A                      A                      A
 Frequencies --    414.4412               425.6764               467.0616
 Red. masses --      9.3879                 7.9140                 3.5338
 Frc consts  --      0.9501                 0.8449                 0.4542
 IR Inten    --      5.8905                 7.1161                 2.5210

                     16                     17                     18
                      A                      A                      A
 Frequencies --    499.1475               544.2513               555.7603
 Red. masses --     10.4392                 4.6738                 4.9588
 Frc consts  --      1.5324                 0.8157                 0.9024
 IR Inten    --      3.8645                13.5625                 4.6044

                     19                     20                     21
                      A                      A                      A
 Frequencies --    644.1407               657.3023               688.7611
 Red. masses --      6.4005                 2.9598                 6.8636
 Frc consts  --      1.5647                 0.7534                 1.9184
 IR Inten    --      7.9184                 2.0255                 3.0693

                     22                     23                     24
                      A                      A                      A
 Frequencies --    695.6180               702.2537               726.5407
 Red. masses --      4.7627                 4.8993                 3.7141
 Frc consts  --      1.3578                 1.4235                 1.1551
 IR Inten    --      7.3367                 0.2883                 2.5829

                     25                     26                     27
                      A                      A                      A
 Frequencies --    729.0654               760.9406               782.0547
 Red. masses --      1.3295                 6.0279                 1.5015
 Frc consts  --      0.4164                 2.0565                 0.5411
 IR Inten    --     85.6079                43.7788                27.7633

                     28                     29                     30
                      A                      A                      A
 Frequencies --    824.2467               884.5349               888.1464
 Red. masses --      1.5144                 4.7312                 1.4086
 Frc consts  --      0.6062                 2.1810                 0.6546
 IR Inten    --     36.1914                62.0979                14.4388

                     31                     32                     33
                      A                      A                      A
 Frequencies --    960.9765              1029.6813              1059.7312
 Red. masses --      1.3055                 3.0729                 4.0371
 Frc consts  --      0.7103                 1.9196                 2.6712
 IR Inten    --      3.5275                33.3828                59.2784

                     34                     35                     36
                      A                      A                      A
 Frequencies --   1102.7435              1151.1928              1164.5312
 Red. masses --      2.5482                 1.6437                 1.2761
 Frc consts  --      1.8257                 1.2834                 1.0196
 IR Inten    --      3.0868                22.7548                 0.5753

                     37                     38                     39
                      A                      A                      A
 Frequencies --   1175.8126              1201.8129              1214.3721
 Red. masses --      2.9237                 1.9660                 2.9522
 Frc consts  --      2.3815                 1.6731                 2.5650
 IR Inten    --     75.5383                18.9635               218.0865

                     40                     41                     42
                      A                      A                      A
 Frequencies --   1222.0437              1254.9461              1271.2117
 Red. masses --      1.5192                 2.5293                 3.2558
 Frc consts  --      1.3367                 2.3469                 3.0998
 IR Inten    --     97.2327                13.9213               145.8251

                     43                     44                     45
                      A                      A                      A
 Frequencies --   1318.3420              1349.6625              1435.8457
 Red. masses --      2.2005                 8.9574                 3.1108
 Frc consts  --      2.2534                 9.6136                 3.7787
 IR Inten    --     33.9803                33.0963               148.3794

                     46                     47                     48
                      A                      A                      A
 Frequencies --   1455.1192              1473.6448              1484.4690
 Red. masses --      2.1039                 1.8088                 2.5006
 Frc consts  --      2.6246                 2.3144                 3.2467
 IR Inten    --    291.7691               161.2299                47.7066

                     49                     50                     51
                      A                      A                      A
 Frequencies --   1484.9296              1507.8342              1529.7358
 Red. masses --      1.0752                 1.0575                 5.3414
 Frc consts  --      1.3969                 1.4166                 7.3644
 IR Inten    --      7.6390                43.5702               377.7458

                     52                     53                     54
                      A                      A                      A
 Frequencies --   1549.1428              1575.6255              1623.1415
 Red. masses --      7.4734                 4.6574                 5.9251
 Frc consts  --     10.5670                 6.8123                 9.1973
 IR Inten    --    178.7618                86.9172               154.3836

                     55                     56                     57
                      A                      A                      A
 Frequencies --   1647.1071              2979.5554              3026.6098
 Red. masses --      7.1225                 1.0351                 1.1047
 Frc consts  --     11.3848                 5.4142                 5.9624
 IR Inten    --     93.3373                99.8342                59.4791

                     58                     59                     60
                      A                      A                      A
 Frequencies --   3099.7211              3171.9892              3173.0065
 Red. masses --      1.0970                 1.0870                 1.0894
 Frc consts  --      6.2103                 6.4436                 6.4619
 IR Inten    --     50.7232                 0.8153                20.4020

                     61                     62                     63
                      A                      A                      A
 Frequencies --   3190.4526              3193.4270              3496.2115
 Red. masses --      1.0922                 1.0899                 1.0635
 Frc consts  --      6.5502                 6.5484                 7.6589
 IR Inten    --     23.8852                 4.8378                79.9469

 - Thermochemistry -
 -------------------
 Temperature   298.150 Kelvin.  Pressure   1.00000 Atm.
 Atom     1 has atomic number  6 and mass  12.00000

 Molecular mass:   204.04226 amu.
 Principal axes and moments of inertia in atomic units:
                           1         2         3
     Eigenvalues --  1618.900024382.412515989.85520
           X            0.66935  -0.38526   0.63525
           Y           -0.47538   0.43500   0.76471
           Z            0.57095   0.81385  -0.10803
 This molecule is an asymmetric top.
 Rotational symmetry number  1.
 Warning -- assumption of classical behavior for rotation
           may cause significant error
 Rotational temperatures (Kelvin)      0.05350     0.01976     0.01446
 Rotational constants (GHZ):           1.11479     0.41181     0.30130
 Zero-point vibrational energy     437430.0 (Joules/Mol)
                                  104.54827 (Kcal/Mol)
 Warning -- explicit consideration of  18 degrees of freedom as
           vibrations may cause significant error
 Vibrational temperatures:     68.97   129.94   153.11   233.98   241.88
          (Kelvin)            318.83   339.07   409.27   445.45   467.47
                              474.03   556.67   596.29   612.45   672.00
                              718.16   783.06   799.62   926.77   945.71
                              990.97  1000.84  1010.39  1045.33  1048.96
                             1094.82  1125.20  1185.91  1272.65  1277.84
                             1382.63  1481.48  1524.72  1586.60  1656.31
                             1675.50  1691.73  1729.14  1747.21  1758.25
                             1805.59  1828.99  1896.80  1941.86  2065.86
                             2093.59  2120.25  2135.82  2136.48  2169.44
                             2200.95  2228.87  2266.97  2335.34  2369.82
                             4286.92  4354.62  4459.81  4563.78  4565.25
                             4590.35  4594.63  5030.27

 Zero-point correction=                           0.166608 (Hartree/Particle)
 Thermal correction to Energy=                    0.178911
 Thermal correction to Enthalpy=                  0.179855
 Thermal correction to Gibbs Free Energy=         0.127264
 Sum of electronic and zero-point Energies=           -724.982364
 Sum of electronic and thermal Energies=              -724.970061
 Sum of electronic and thermal Enthalpies=            -724.969117
 Sum of electronic and thermal Free Energies=         -725.021709

                     E (Thermal)             CV                S
                      KCal/Mol        Cal/Mol-Kelvin    Cal/Mol-Kelvin
 Total                  112.268             47.995            110.688
 Electronic               0.000              0.000              1.377
 Translational            0.889              2.981             41.844
 Rotational               0.889              2.981             32.119
 Vibrational            110.491             42.033             35.348
 Vibration     1          0.595              1.978              4.901
 Vibration     2          0.602              1.956              3.653
 Vibration     3          0.605              1.944              3.333
 Vibration     4          0.623              1.888              2.519
 Vibration     5          0.625              1.882              2.456
 Vibration     6          0.648              1.808              1.946
 Vibration     7          0.655              1.786              1.835
 Vibration     8          0.683              1.702              1.507
 Vibration     9          0.699              1.655              1.364
 Vibration    10          0.709              1.626              1.285
 Vibration    11          0.712              1.617              1.263
 Vibration    12          0.755              1.498              1.012
 Vibration    13          0.778              1.439              0.911
 Vibration    14          0.788              1.414              0.873
 Vibration    15          0.824              1.323              0.746
 Vibration    16          0.855              1.252              0.660
 Vibration    17          0.899              1.152              0.556
 Vibration    18          0.911              1.127              0.532

 Optimization completed.
    -- Stationary point found.
 Normal termination of Gaussian 16 at Mon Jan  8 21:54:23 2024.
