 Gaussian 16, Revision A.03,
 Gaussian 16:  ES64L-G16RevA.03 25-Dec-2016

 ----------------------------------------------------------------
 #P UB3LYP/6-311++G(d,p) SCRF=(PCM,Solvent=n,n-DiMethylFormamide)
 ----------------------------------------------------------------

 ------------------
 Radical PCM in DMF
 ------------------
 Symbolic Z-matrix:
 Charge = -1 Multiplicity = 2

                         Standard orientation:
 ---------------------------------------------------------------------
 Center     Atomic      Atomic             Coordinates (Angstroms)
 Number     Number       Type             X           Y           Z
 ---------------------------------------------------------------------
      1          6           0        5.103770   -0.229949   -1.266508
      2          6           0        4.390625    0.277601    0.000869
      3          6           0        5.101783   -0.231323    1.268812
      4          6           0        2.906964   -0.060205   -0.000262
      5          6           0        2.455184   -1.398397   -0.000315
      6          6           0        1.101707   -1.687801   -0.000599
      7          6           0        0.115480   -0.677245   -0.000809
      8          6           0        0.564632    0.668094   -0.000994
      9          6           0        1.951281    0.939169   -0.000817
     10          6           0       -0.364330    1.804859   -0.001044
     11          8           0        0.061442    2.980018   -0.001622
     12          6           0       -1.822696    1.518294    0.000226
     13          8           0       -2.635478    2.467752    0.001221
     14          6           0       -2.270428    0.106122    0.000071
     15          6           0       -3.667925   -0.215637    0.000565
     16          6           0       -4.766704    0.825023    0.001397
     17          6           0       -4.063174   -1.547938    0.000284
     18          6           0       -3.131288   -2.592876   -0.000535
     19          6           0       -1.782705   -2.297313   -0.000974
     20          6           0       -1.319261   -0.966452   -0.000601
     21          1           0        4.624550    0.163638   -2.166653
     22          1           0        5.075622   -1.322737   -1.325958
     23          1           0        6.155661    0.078130   -1.274340
     24          1           0        4.462698    1.371219    0.001476
     25          1           0        4.621715    0.161998    2.168623
     26          1           0        6.153932    0.075818    1.278232
     27          1           0        5.072598   -1.324114    1.327438
     28          1           0        3.167846   -2.218091    0.000109
     29          1           0        0.809446   -2.730667   -0.000513
     30          1           0        2.237241    1.985844   -0.000850
     31          1           0       -4.700319    1.484719   -0.865167
     32          1           0       -5.741313    0.323796    0.001326
     33          1           0       -4.699964    1.483694    0.868729
     34          1           0       -5.124869   -1.778240    0.000663
     35          1           0       -3.465838   -3.625737   -0.000865
     36          1           0       -1.074207   -3.115585   -0.001629
 ---------------------------------------------------------------------

 SCF Done:  E(UB3LYP) =  -846.384386726     A.U. after   19 cycles

 The electronic state is 2-A.
 Alpha  occ. eigenvalues --  -19.07181 -19.06974 -10.21411 -10.21125 -10.18344
 Alpha  occ. eigenvalues --  -10.18180 -10.18002 -10.17658 -10.17498 -10.17442
 Alpha  occ. eigenvalues --  -10.17113 -10.16984 -10.16863 -10.16807 -10.16798
 Alpha  occ. eigenvalues --  -10.16440 -10.16181 -10.15647 -10.15646 -10.15204
 Alpha  occ. eigenvalues --   -1.01249  -0.98325  -0.87102  -0.84905  -0.80766
 Alpha  occ. eigenvalues --   -0.77186  -0.76895  -0.74787  -0.71634  -0.69323
 Alpha  occ. eigenvalues --   -0.68226  -0.66140  -0.62867  -0.60505  -0.59110
 Alpha  occ. eigenvalues --   -0.57335  -0.55906  -0.51884  -0.49872  -0.48264
 Alpha  occ. eigenvalues --   -0.46636  -0.45964  -0.45141  -0.43495  -0.43040
 Alpha  occ. eigenvalues --   -0.42686  -0.41693  -0.41447  -0.41288  -0.40561
 Alpha  occ. eigenvalues --   -0.39914  -0.39463  -0.38943  -0.38507  -0.37182
 Alpha  occ. eigenvalues --   -0.36971  -0.35684  -0.35533  -0.34441  -0.34208
 Alpha  occ. eigenvalues --   -0.33539  -0.32987  -0.32475  -0.32044  -0.28148
 Alpha  occ. eigenvalues --   -0.25685  -0.25090  -0.24753  -0.21965  -0.21825
 Alpha  occ. eigenvalues --   -0.14639
 Alpha virt. eigenvalues --   -0.03644  -0.02742  -0.00533   0.00120   0.00436
 Alpha virt. eigenvalues --    0.00888   0.01676   0.01832   0.01866   0.02489
 Alpha virt. eigenvalues --    0.03368   0.03601   0.04019   0.04048   0.04773

  Beta  occ. eigenvalues --  -19.06584 -19.06346 -10.21237 -10.20917 -10.18254
  Beta  occ. eigenvalues --  -10.18107 -10.17910 -10.17658 -10.17524 -10.17466
  Beta  occ. eigenvalues --  -10.17154 -10.16900 -10.16824 -10.16823 -10.16768
  Beta  occ. eigenvalues --  -10.16452 -10.16106 -10.15647 -10.15647 -10.15206
  Beta  occ. eigenvalues --   -1.00185  -0.97189  -0.86935  -0.84806  -0.80664
  Beta  occ. eigenvalues --   -0.77081  -0.76621  -0.74610  -0.71534  -0.68950
  Beta  occ. eigenvalues --   -0.68227  -0.65676  -0.62773  -0.60275  -0.58823
  Beta  occ. eigenvalues --   -0.57195  -0.55759  -0.51765  -0.49674  -0.48152
  Beta  occ. eigenvalues --   -0.46398  -0.45822  -0.45065  -0.43415  -0.42981
  Beta  occ. eigenvalues --   -0.41816  -0.41642  -0.41239  -0.41196  -0.40043
  Beta  occ. eigenvalues --   -0.39234  -0.39106  -0.38885  -0.38415  -0.37044
  Beta  occ. eigenvalues --   -0.35656  -0.35594  -0.35127  -0.34358  -0.33757
  Beta  occ. eigenvalues --   -0.33490  -0.32419  -0.32009  -0.30866  -0.27522
  Beta  occ. eigenvalues --   -0.24781  -0.24489  -0.23963  -0.21425  -0.21409
  Beta virt. eigenvalues --   -0.08172  -0.03340  -0.01514  -0.00528   0.00123
  Beta virt. eigenvalues --    0.00899   0.01592   0.01691   0.01836   0.01934
  Beta virt. eigenvalues --    0.02812   0.03368   0.03612   0.04036   0.04145

 Mulliken charges and spin densities:
               1          2
     1  C   -0.677002   0.000573
     2  C    0.147700   0.007063
     3  C   -0.676639   0.000570
     4  C    0.641842  -0.028223
     5  C   -0.807543   0.084193
     6  C   -0.213677  -0.024197
     7  C    0.412810   0.054293
     8  C    0.903577   0.018886
     9  C   -0.389019   0.072482
    10  C   -0.742491   0.138976
    11  O   -0.475273   0.226124
    12  C   -0.866910   0.097364
    13  O   -0.429432   0.233648
    14  C    0.611506  -0.016374
    15  C    0.519511   0.062409
    16  C   -0.352789  -0.001398
    17  C   -0.485842  -0.015001
    18  C   -0.634160   0.076217
    19  C   -0.405189  -0.025473
    20  C    0.518517   0.048334
    21  H    0.139325   0.000134
    22  H    0.155241  -0.000221
    23  H    0.154986  -0.000368
    24  H    0.191605  -0.000008
    25  H    0.139279   0.000132
    26  H    0.154915  -0.000366
    27  H    0.155212  -0.000223
    28  H    0.188472  -0.005456
    29  H    0.102827   0.002462
    30  H    0.154500  -0.006726
    31  H    0.158531   0.001797
    32  H    0.143114  -0.000333
    33  H    0.158576   0.001801
    34  H    0.116491   0.000159
    35  H    0.203264  -0.005268
    36  H    0.084167   0.002018
 Sum of Mulliken charges =  -1.00000   1.00000

 Dipole moment (field-independent basis, Debye):
    X=              6.2042    Y=            -12.2102    Z=              0.0028  Tot=             13.6960
 Quadrupole moment (field-independent basis, Debye-Ang):
   XX=           -130.6402   YY=           -155.3569   ZZ=           -126.5651
   XY=             13.8116   XZ=              0.0117   YZ=              0.0068

 Normal termination of Gaussian 16 at Sat Jan 13 19:24:40 2024.
