 Gaussian 16, Revision A.03,
 Gaussian 16:  ES64L-G16RevA.03 25-Dec-2016

 ----------------------------------------------------------------------
 #P UB3LYP/6-311++G(d,p) nosym opt freq SCRF=(PCM,Solvent=n,n-DiMethylF
 ormamide)
 ----------------------------------------------------------------------

 --------
 Oxidized
 --------
 Symbolic Z-matrix:
 Charge = -1 Multiplicity = 1

 SCF Done:  E(UB3LYP) =  -1312.41252805     A.U. after   16 cycles
 SCF Done:  E(UB3LYP) =  -1312.41356630     A.U. after   14 cycles
 SCF Done:  E(UB3LYP) =  -1312.41409127     A.U. after   14 cycles
 SCF Done:  E(UB3LYP) =  -1312.41376751     A.U. after   14 cycles
 SCF Done:  E(UB3LYP) =  -1312.41426532     A.U. after   13 cycles
 SCF Done:  E(UB3LYP) =  -1312.41430976     A.U. after   13 cycles
 SCF Done:  E(UB3LYP) =  -1312.41432974     A.U. after   12 cycles
 SCF Done:  E(UB3LYP) =  -1312.41433803     A.U. after   11 cycles
 SCF Done:  E(UB3LYP) =  -1312.41433958     A.U. after   11 cycles
 SCF Done:  E(UB3LYP) =  -1312.41433982     A.U. after   11 cycles
 SCF Done:  E(UB3LYP) =  -1312.41433995     A.U. after   10 cycles
 SCF Done:  E(UB3LYP) =  -1312.41434000     A.U. after   10 cycles
 Optimization completed.
    -- Stationary point found.
 Normal termination of Gaussian 16 at Sun Feb 11 00:05:02 2024.

 ----------------------------------------------------------------------
 #P Geom=AllCheck Guess=TCheck SCRF=Check GenChk UB3LYP/6-311++G(d,p) F
 req
 ----------------------------------------------------------------------

 Structure from the checkpoint file:  "222.chk"
 --------
 Oxidized
 --------
 Charge = -1 Multiplicity = 1

                          Input orientation:
 ---------------------------------------------------------------------
 Center     Atomic      Atomic             Coordinates (Angstroms)
 Number     Number       Type             X           Y           Z
 ---------------------------------------------------------------------
      1          8           0       -1.869713   -2.755846   -1.528653
      2         16           0       -2.850332   -2.295544   -0.512419
      3          8           0       -2.893972   -3.110000    0.729538
      4          8           0       -4.208645   -2.088056   -1.092548
      5          6           0       -2.327816   -0.589730   -0.030557
      6          6           0       -3.361756    0.345259    0.009050
      7          6           0       -3.110753    1.689876    0.275303
      8          6           0       -1.806627    2.123434    0.451876
      9          6           0       -0.752162    1.208349    0.397834
     10          6           0        0.637232    1.752934    0.508488
     11          8           0        0.831013    2.935709    0.758538
     12          6           0        1.764808    0.823135    0.254106
     13          6           0        3.067493    1.317168    0.129525
     14          6           0        4.122648    0.444351   -0.110421
     15          6           0        3.885711   -0.930046   -0.208605
     16          6           0        2.595872   -1.429981   -0.062085
     17          6           0        1.527146   -0.556507    0.158262
     18          6           0        0.154584   -1.112695    0.342190
     19          8           0        0.001972   -2.282858    0.643194
     20          6           0       -1.000738   -0.170107    0.203846
     21          1           0       -4.369448    0.008696   -0.192730
     22          1           0       -3.933234    2.394113    0.314170
     23          1           0       -1.580334    3.168271    0.619501
     24          1           0        3.235797    2.382920    0.218961
     25          1           0        5.129541    0.829731   -0.219082
     26          1           0        4.709072   -1.609169   -0.396287
     27          1           0        2.402644   -2.493409   -0.123133
 ---------------------------------------------------------------------

 SCF Done:  E(UB3LYP) =  -1312.41434000     A.U. after    2 cycles

 Alpha  occ. eigenvalues --  -89.04693 -19.13137 -19.12929 -19.08838 -19.08809
 Alpha  occ. eigenvalues --  -19.08722 -10.28394 -10.28289 -10.22169 -10.22024
 Alpha  occ. eigenvalues --  -10.21214 -10.20855 -10.20747 -10.19918 -10.19874
 Alpha  occ. eigenvalues --  -10.19845 -10.19818 -10.19810 -10.19738 -10.19724
 Alpha  occ. eigenvalues --   -8.10538  -6.06798  -6.06786  -6.06751  -1.10782
 Alpha  occ. eigenvalues --   -1.06561  -1.06361  -0.97160  -0.96814  -0.89652
 Alpha  occ. eigenvalues --   -0.88383  -0.81433  -0.78626  -0.77809  -0.77152
 Alpha  occ. eigenvalues --   -0.69269  -0.67333  -0.64664  -0.63671  -0.60130
 Alpha  occ. eigenvalues --   -0.56879  -0.56264  -0.54874  -0.50867  -0.49264
 Alpha  occ. eigenvalues --   -0.49073  -0.48797  -0.47651  -0.45879  -0.45712
 Alpha  occ. eigenvalues --   -0.45142  -0.45046  -0.45037  -0.44287  -0.43703
 Alpha  occ. eigenvalues --   -0.41704  -0.39893  -0.39378  -0.39199  -0.37759
 Alpha  occ. eigenvalues --   -0.37078  -0.36975  -0.33329  -0.33053  -0.31090
 Alpha  occ. eigenvalues --   -0.30144  -0.29403  -0.29003  -0.28224  -0.27971
 Alpha  occ. eigenvalues --   -0.27547  -0.26923  -0.26728  -0.25163
 Alpha virt. eigenvalues --   -0.11569  -0.07679  -0.03714  -0.03147  -0.00437
 Alpha virt. eigenvalues --    0.00435   0.01324   0.01989   0.02380   0.02694
 Alpha virt. eigenvalues --    0.03094   0.03605   0.04061   0.04397   0.04598

  Beta  occ. eigenvalues --  -89.04693 -19.13137 -19.12929 -19.08838 -19.08809
  Beta  occ. eigenvalues --  -19.08722 -10.28394 -10.28289 -10.22169 -10.22024
  Beta  occ. eigenvalues --  -10.21214 -10.20855 -10.20747 -10.19918 -10.19874
  Beta  occ. eigenvalues --  -10.19845 -10.19818 -10.19810 -10.19738 -10.19724
  Beta  occ. eigenvalues --   -8.10538  -6.06798  -6.06786  -6.06751  -1.10782
  Beta  occ. eigenvalues --   -1.06561  -1.06361  -0.97160  -0.96814  -0.89652
  Beta  occ. eigenvalues --   -0.88383  -0.81433  -0.78626  -0.77809  -0.77152
  Beta  occ. eigenvalues --   -0.69269  -0.67333  -0.64664  -0.63671  -0.60130
  Beta  occ. eigenvalues --   -0.56879  -0.56264  -0.54874  -0.50867  -0.49264
  Beta  occ. eigenvalues --   -0.49073  -0.48797  -0.47651  -0.45879  -0.45712
  Beta  occ. eigenvalues --   -0.45142  -0.45046  -0.45037  -0.44287  -0.43703
  Beta  occ. eigenvalues --   -0.41704  -0.39893  -0.39378  -0.39199  -0.37759
  Beta  occ. eigenvalues --   -0.37078  -0.36975  -0.33329  -0.33053  -0.31090
  Beta  occ. eigenvalues --   -0.30144  -0.29403  -0.29003  -0.28224  -0.27971
  Beta  occ. eigenvalues --   -0.27547  -0.26923  -0.26728  -0.25163
  Beta virt. eigenvalues --   -0.11569  -0.07679  -0.03714  -0.03147  -0.00437
  Beta virt. eigenvalues --    0.00435   0.01324   0.01989   0.02380   0.02694
  Beta virt. eigenvalues --    0.03094   0.03605   0.04061   0.04397   0.04598

 Mulliken charges and spin densities:
               1          2
     1  O   -0.416754  -0.000000
     2  S    0.538660   0.000000
     3  O   -0.366651   0.000000
     4  O   -0.391198   0.000000
     5  C   -1.063336   0.000000
     6  C    0.416845  -0.000000
     7  C   -0.395672  -0.000000
     8  C   -0.382942   0.000000
     9  C    0.950334  -0.000000
    10  C   -0.383653   0.000000
    11  O   -0.272440   0.000000
    12  C    0.401806  -0.000000
    13  C    0.259104   0.000000
    14  C   -0.440945   0.000000
    15  C   -0.390532   0.000000
    16  C    0.082725   0.000000
    17  C    0.365257  -0.000000
    18  C   -1.114707   0.000000
    19  O   -0.220021   0.000000
    20  C    0.362988  -0.000000
    21  H    0.250203   0.000000
    22  H    0.218987  -0.000000
    23  H    0.184335   0.000000
    24  H    0.192384  -0.000000
    25  H    0.205376  -0.000000
    26  H    0.213601  -0.000000
    27  H    0.196247   0.000000
 Sum of Mulliken charges =  -1.00000  -0.00000

 Dipole moment (field-independent basis, Debye):
    X=             15.1500    Y=             14.7136    Z=              1.7512  Tot=             21.1915
 Quadrupole moment (field-independent basis, Debye-Ang):
   XX=           -147.7554   YY=           -175.5947   ZZ=           -136.9859
   XY=            -51.0037   XZ=            -12.3249   YZ=             -6.9264

  Exact polarizability: 375.227   3.171 333.598  -3.439  20.240 157.942
 Approx polarizability: 407.930   1.243 411.886  -5.913  20.401 188.936

                      1                      2                      3
                      A                      A                      A
 Frequencies --     35.0657                42.6332                80.9324
 Red. masses --     10.0218                 8.0901                10.0878
 Frc consts  --      0.0073                 0.0087                 0.0389
 IR Inten    --      3.8200                12.5546                 1.3892

                      4                      5                      6
                      A                      A                      A
 Frequencies --    107.0585               132.7293               147.6153
 Red. masses --      4.9832                 8.9656                 6.7011
 Frc consts  --      0.0337                 0.0931                 0.0860
 IR Inten    --      2.7633                 3.6909                 0.7750

                      7                      8                      9
                      A                      A                      A
 Frequencies --    157.4904               203.8607               223.0727
 Red. masses --      8.6705                 7.2467                 6.6538
 Frc consts  --      0.1267                 0.1774                 0.1951
 IR Inten    --      1.4585                 1.1096                 1.3712

                     10                     11                     12
                      A                      A                      A
 Frequencies --    264.5405               276.6906               306.9665
 Red. masses --     10.9526                 7.2782                 7.6245
 Frc consts  --      0.4516                 0.3283                 0.4233
 IR Inten    --      1.7777                 2.5477                 2.9587

                     13                     14                     15
                      A                      A                      A
 Frequencies --    337.5749               382.8347               388.8040
 Red. masses --      6.3083                 8.3157                 8.3233
 Frc consts  --      0.4235                 0.7181                 0.7413
 IR Inten    --      1.3897                 7.3547                44.3800

                     16                     17                     18
                      A                      A                      A
 Frequencies --    421.7155               428.5525               438.9020
 Red. masses --      5.1753                 4.0463                 8.3372
 Frc consts  --      0.5423                 0.4378                 0.9463
 IR Inten    --      4.2096                 4.8042                10.2649

                     19                     20                     21
                      A                      A                      A
 Frequencies --    480.9619               490.1270               497.6646
 Red. masses --      9.1573                 6.7448                 5.3252
 Frc consts  --      1.2481                 0.9546                 0.7771
 IR Inten    --     13.8985                 4.7659                 3.3115

                     22                     23                     24
                      A                      A                      A
 Frequencies --    516.8998               558.5920               587.3521
 Red. masses --     12.7438                 6.8370                16.2597
 Frc consts  --      2.0062                 1.2569                 3.3049
 IR Inten    --     27.4024                44.3059               342.7097

                     25                     26                     27
                      A                      A                      A
 Frequencies --    622.5180               659.0213               680.3080
 Red. masses --      5.6696                 6.9864                 5.1929
 Frc consts  --      1.2945                 1.7877                 1.4160
 IR Inten    --      8.6861                27.0646                15.0192

                     28                     29                     30
                      A                      A                      A
 Frequencies --    690.1963               723.1968               744.0192
 Red. masses --      6.5226                 2.4493                 3.4198
 Frc consts  --      1.8307                 0.7547                 1.1154
 IR Inten    --      0.9779               112.7118                14.3561

                     31                     32                     33
                      A                      A                      A
 Frequencies --    751.8114               795.3112               814.2569
 Red. masses --      7.3610                 1.5391                 5.2325
 Frc consts  --      2.4513                 0.5736                 2.0440
 IR Inten    --     21.2146                 0.9065                12.0052

                     34                     35                     36
                      A                      A                      A
 Frequencies --    823.4416               844.6539               913.8683
 Red. masses --      2.7275                 2.7704                 1.5260
 Frc consts  --      1.0896                 1.1645                 0.7509
 IR Inten    --     32.2864                13.9438                 0.8229

                     37                     38                     39
                      A                      A                      A
 Frequencies --    926.8694               957.1419               969.0715
 Red. masses --      6.4019                 8.0838                 1.4243
 Frc consts  --      3.2404                 4.3634                 0.7880
 IR Inten    --     35.3758               134.6857                21.1881

                     40                     41                     42
                      A                      A                      A
 Frequencies --    977.5998               998.1927              1020.8202
 Red. masses --      9.8385                 1.3954                 1.3352
 Frc consts  --      5.5399                 0.8192                 0.8198
 IR Inten    --    377.1313                 5.4727                 0.2534

                     43                     44                     45
                      A                      A                      A
 Frequencies --   1021.0872              1054.8001              1092.3626
 Red. masses --      1.3416                 2.1138                 2.3847
 Frc consts  --      0.8241                 1.3857                 1.6765
 IR Inten    --      0.9402                 0.4712                59.3665

                     46                     47                     48
                      A                      A                      A
 Frequencies --   1113.0735              1119.5433              1140.3740
 Red. masses --      2.2865                 8.8535                15.1450
 Frc consts  --      1.6690                 6.5380                11.6042
 IR Inten    --      2.7090               450.1887               525.4918

                     49                     50                     51
                      A                      A                      A
 Frequencies --   1147.4492              1175.2446              1181.3181
 Red. masses --      4.0705                 1.6248                 1.2756
 Frc consts  --      3.1576                 1.3222                 1.0489
 IR Inten    --     70.2681                10.0281                28.5808

                     52                     53                     54
                      A                      A                      A
 Frequencies --   1195.5879              1207.3452              1259.9384
 Red. masses --      1.6583                 1.7235                 2.0271
 Frc consts  --      1.3966                 1.4802                 1.8959
 IR Inten    --      1.7117                28.8046               104.9744

                     55                     56                     57
                      A                      A                      A
 Frequencies --   1284.3456              1319.6783              1334.4595
 Red. masses --      3.8580                 2.5370                 8.4224
 Frc consts  --      3.7496                 2.6032                 8.8369
 IR Inten    --    831.7359               111.1753               134.7222

                     58                     59                     60
                      A                      A                      A
 Frequencies --   1358.5467              1441.7571              1470.7676
 Red. masses --      7.9127                 3.6560                 2.2456
 Frc consts  --      8.6045                 4.4775                 2.8620
 IR Inten    --     13.8914                16.8804                 4.3548

                     61                     62                     63
                      A                      A                      A
 Frequencies --   1481.7649              1505.8396              1594.2756
 Red. masses --      2.4304                 2.5957                 6.3228
 Frc consts  --      3.1440                 3.4679                 9.4686
 IR Inten    --      3.5784                10.6321                 2.2225

                     64                     65                     66
                      A                      A                      A
 Frequencies --   1606.1373              1615.8797              1624.3287
 Red. masses --      5.7633                 7.1003                 5.7878
 Frc consts  --      8.7597                10.9230                 8.9973
 IR Inten    --    213.5500                 1.5173               106.0405

                     67                     68                     69
                      A                      A                      A
 Frequencies --   1696.9176              1722.6709              3178.2675
 Red. masses --     12.0544                12.6889                 1.0875
 Frc consts  --     20.4510                22.1860                 6.4722
 IR Inten    --    366.9536               431.1933                 2.9971

                     70                     71                     72
                      A                      A                      A
 Frequencies --   3185.7212              3190.4427              3202.6844
 Red. masses --      1.0892                 1.0913                 1.0928
 Frc consts  --      6.5130                 6.5449                 6.6039
 IR Inten    --      9.4090                10.7316                 4.6055

                     73                     74                     75
                      A                      A                      A
 Frequencies --   3205.7925              3207.9656              3214.0206
 Red. masses --      1.0955                 1.0924                 1.0932
 Frc consts  --      6.6335                 6.6233                 6.6532
 IR Inten    --     20.7575                 4.4989                 8.4713

 - Thermochemistry -
 -------------------
 Temperature   298.150 Kelvin.  Pressure   1.00000 Atm.
 Atom     1 has atomic number  8 and mass  15.99491

 Molecular mass:   287.00142 amu.
 Principal axes and moments of inertia in atomic units:
                           1         2         3
     Eigenvalues --  3072.204287321.996269876.38042
           X            0.91852  -0.39455  -0.02553
           Y            0.38525   0.90766  -0.16654
           Z            0.08888   0.14314   0.98570
 This molecule is an asymmetric top.
 Rotational symmetry number  1.
 Warning -- assumption of classical behavior for rotation
           may cause significant error
 Rotational temperatures (Kelvin)      0.02819     0.01183     0.00877
 Rotational constants (GHZ):           0.58744     0.24648     0.18273
 Zero-point vibrational energy     475942.2 (Joules/Mol)
                                  113.75292 (Kcal/Mol)
 Warning -- explicit consideration of  24 degrees of freedom as
           vibrations may cause significant error
 Vibrational temperatures:     50.45    61.34   116.44   154.03   190.97
          (Kelvin)            212.39   226.59   293.31   320.95   380.61
                              398.10   441.66   485.70   550.81   559.40
                              606.75   616.59   631.48   692.00   705.18
                              716.03   743.70   803.69   845.07   895.66
                              948.18   978.81   993.04  1040.52  1070.48
                             1081.69  1144.28  1171.53  1184.75  1215.27
                             1314.85  1333.56  1377.11  1394.28  1406.55
                             1436.18  1468.73  1469.12  1517.62  1571.67
                             1601.46  1610.77  1640.74  1650.92  1690.91
                             1699.65  1720.18  1737.10  1812.77  1847.89
                             1898.72  1919.99  1954.65  2074.37  2116.11
                             2131.93  2166.57  2293.81  2310.87  2324.89
                             2337.05  2441.49  2478.54  4572.82  4583.54
                             4590.34  4607.95  4612.42  4615.55  4624.26

 Zero-point correction=                           0.181277 (Hartree/Particle)
 Thermal correction to Energy=                    0.196543
 Thermal correction to Enthalpy=                  0.197488
 Thermal correction to Gibbs Free Energy=         0.137938
 Sum of electronic and zero-point Energies=          -1312.233063
 Sum of electronic and thermal Energies=             -1312.217797
 Sum of electronic and thermal Enthalpies=           -1312.216852
 Sum of electronic and thermal Free Energies=        -1312.276402

                     E (Thermal)             CV                S
                      KCal/Mol        Cal/Mol-Kelvin    Cal/Mol-Kelvin
 Total                  123.333             59.761            125.334
 Electronic               0.000              0.000              0.000
 Translational            0.889              2.981             42.861
 Rotational               0.889              2.981             33.762
 Vibrational            121.555             53.799             48.710
 Vibration     1          0.594              1.982              5.520
 Vibration     2          0.595              1.980              5.133
 Vibration     3          0.600              1.962              3.868
 Vibration     4          0.606              1.944              3.322
 Vibration     5          0.613              1.921              2.906
 Vibration     6          0.617              1.905              2.703
 Vibration     7          0.621              1.894              2.580
 Vibration     8          0.640              1.834              2.098
 Vibration     9          0.649              1.806              1.934
 Vibration    10          0.671              1.738              1.632
 Vibration    11          0.678              1.717              1.554
 Vibration    12          0.697              1.660              1.379
 Vibration    13          0.718              1.600              1.224
 Vibration    14          0.752              1.507              1.028
 Vibration    15          0.757              1.494              1.005
 Vibration    16          0.784              1.423              0.886
 Vibration    17          0.790              1.408              0.863
 Vibration    18          0.799              1.385              0.830
 Vibration    19          0.837              1.292              0.707
 Vibration    20          0.846              1.272              0.683
 Vibration    21          0.853              1.255              0.664
 Vibration    22          0.872              1.213              0.617
 Vibration    23          0.914              1.121              0.527
 Vibration    24          0.944              1.059              0.472

 Optimization completed.
    -- Stationary point found.
 Normal termination of Gaussian 16 at Sun Feb 11 01:22:23 2024.
