 Q-Chem 5.4, Q-Chem, Inc., Pleasanton, CA (2021)
 Q-Chem 5.4.0 for Intel X86 EM64T Linux

User input:
--------------------------------------------------------------
$molecule
-2 1
C                  5.1144260000     -2.7587260000      0.1716500000
C                  5.9156290000     -2.1480780000     -0.7597770000
C                  5.2940590000     -1.2778000000     -1.7117280000
C                  3.7097170000     -2.5582640000      0.2286100000
C                  3.1006240000     -1.6698260000     -0.7442530000
C                  3.9248810000     -1.0430120000     -1.6901480000
C                  2.9424850000     -3.2380270000      1.2446900000
C                  1.5070650000     -2.9576750000      1.2026160000
C                  0.8979760000     -2.0692390000      0.2297490000
C                  1.6652160000     -1.3894490000     -0.7863110000
C                  0.6828030000     -3.5845150000      2.1484790000
C                 -0.5067380000     -1.8688180000      0.2866830000
C                 -1.3079530000     -2.4795200000      1.2180680000
O                  3.4625200000     -4.0169190000      2.1044390000
O                  1.1451810000     -0.6105170000     -1.6460270000
H                  5.5355910000     -3.4343400000      0.9085810000
H                  6.9828520000     -2.3237970000     -0.8017710000
S                  6.2884800000     -0.4307030000     -2.8571540000
H                 -2.3751840000     -2.3038610000      1.2600340000
H                  3.4509450000     -0.3802140000     -2.4046250000
H                  1.1567580000     -4.2472950000      2.8629630000
H                 -0.9279000000     -1.1931870000     -0.4502350000
C                 -0.6863890000     -3.3497690000      2.1700470000
S                 -1.6808100000     -4.1970750000      3.3153310000
O                 -0.9336560000     -4.7096620000      4.4698710000
O                 -2.9449880000     -3.4891480000      3.5753890000
O                 -2.1268150000     -5.5700570000      2.4171090000
C                 -3.0065750000     -6.4695900000      3.0915660000
H                 -2.5430640000     -6.8641330000      4.0018750000
H                 -3.1908290000     -7.2878060000      2.3919230000
H                 -3.9536910000     -5.9799140000      3.3420940000
O                  5.5410850000      0.0824810000     -4.0112600000
O                  7.5521780000     -1.1392290000     -3.1179040000
O                  6.7355400000      0.9418120000     -1.9586440000
C                  7.6153880000      1.8411440000     -2.6332200000
H                  7.1517010000      2.2360690000     -3.5432760000
H                  8.5622280000      1.3511660000     -2.8842080000
H                  7.8002150000      2.6591430000     -1.9334710000
$end
$rem
MAX_SCF_CYCLES=200
BASIS  =  6-311++G(d,p)
GUI  =  2
JOB_TYPE  =  SP
METHOD  =  B3LYP
SOLVENT_METHOD = COSMO
$end
$solvent
dielectric 37.219
opticaldielectric 1.43
$end

--------------------------------------------------------------

             Standard Nuclear Orientation (Angstroms)
    I     Atom           X                Y                Z
 ----------------------------------------------------------------
    1      C      -1.9798070574    -2.0437611672     0.0603408056
    2      C      -3.3110175129    -1.7450051008     0.2052442889
    3      C      -3.6793331740    -0.3671026503     0.3304328631
    4      C      -0.9669893612    -1.0489584157     0.0256330291
    5      C      -1.3628109304     0.3418165469     0.1515261105
    6      C      -2.7254319436     0.6423043472     0.2928901792
    7      C       0.4097792896    -1.4516603173    -0.1339931121
    8      C       1.3628456254    -0.3416388274    -0.1517383409
    9      C       0.9670197795     1.0491343421    -0.0258414525
   10      C      -0.4097555593     1.4518371604     0.1337508149
   11      C       2.7254644935    -0.6421230133    -0.2930610897
   12      C       1.9798444571     2.0439289565    -0.0605016155
   13      C       3.3110642314     1.7451694591    -0.2053363574
   14      O       0.7708805422    -2.6653102240    -0.2477352823
   15      O      -0.7708560101     2.6654944099     0.2474416583
   16      H      -1.6484422905    -3.0728960739    -0.0289915407
   17      H      -4.0704022030    -2.5151903023     0.2471399056
   18      S      -5.3620889202     0.0509003347     0.4402225588
   19      H       4.0704648114     2.5153382719    -0.2471693088
   20      H      -3.0001215245     1.6869089134     0.3808722155
   21      H       3.0001360105    -1.6867326711    -0.3810626650
   22      H       1.6484772319     3.0730655531     0.0288093275
   23      C       3.6793871112     0.3672742018    -0.3305643923
   24      S       5.3621542773    -0.0507820477    -0.4401073543
   25      O       5.5950181322    -1.3986263026    -0.9721199796
   26      O       6.1680631866     1.0522012557    -0.9886285287
   27      O       5.7928978161    -0.1303268941     1.2027363433
   28      C       7.1682809408    -0.4223793209     1.4498317922
   29      H       7.4431759193    -1.3985485881     1.0366787769
   30      H       7.2788694627    -0.4418286504     2.5362567500
   31      H       7.8170485839     0.3527850810     1.0281728348
   32      O      -5.5947882150     1.3990380908     0.9715354534
   33      O      -6.1677476094    -1.0517868397     0.9897017324
   34      O      -5.7932958276     0.1293501350    -1.2026062579
   35      C      -7.1687256403     0.4212860457    -1.4494859518
   36      H      -7.4435114825     1.3976692488    -1.0367609898
   37      H      -7.8173983740    -0.3536527461    -1.0272621297
   38      H      -7.2796064734     0.4401868434    -2.5358929877
 ----------------------------------------------------------------

   11   -2015.4031765700      5.55e-06  Convergence criterion met
 Total energy in the final basis set =    -2015.4031765700
    5   -2015.6480929079      7.54e-06  Convergence criterion met
 Total energy in the final basis set =    -2015.6480929079

                    Orbital Energies (a.u.)
 --------------------------------------------------------------

 Alpha MOs
 -- Occupied --
-89.0829 -89.0829 -19.1642 -19.1642 -19.1346 -19.1346 -19.1327 -19.1327
-19.0469 -19.0469 -10.2186 -10.2186 -10.2095 -10.2095 -10.2047 -10.2047
-10.1885 -10.1885 -10.1779 -10.1779 -10.1694 -10.1694 -10.1678 -10.1678
-10.1618 -10.1618  -8.1440  -8.1440  -6.1075  -6.1075  -6.1063  -6.1063
 -6.1044  -6.1044  -1.1444  -1.1443  -1.0343  -1.0343  -1.0220  -1.0220
 -0.9730  -0.9699  -0.8657  -0.8622  -0.8006  -0.7779  -0.7597  -0.7526
 -0.7280  -0.7143  -0.6730  -0.6706  -0.6303  -0.6300  -0.5938  -0.5886
 -0.5595  -0.5578  -0.5361  -0.5326  -0.5211  -0.5117  -0.4906  -0.4873
 -0.4713  -0.4660  -0.4640  -0.4555  -0.4518  -0.4478  -0.4473  -0.4315
 -0.4287  -0.4222  -0.4082  -0.4054  -0.4023  -0.4018  -0.3985  -0.3890
 -0.3734  -0.3649  -0.3593  -0.3542  -0.3478  -0.3476  -0.3443  -0.3439
 -0.3399  -0.3315  -0.3307  -0.3302  -0.3232  -0.3218  -0.2964  -0.2964
 -0.2650  -0.2569  -0.2539  -0.2486  -0.2290  -0.2216  -0.1328

          Ground-State Mulliken Net Atomic Charges

     Atom                 Charge (a.u.)
  ----------------------------------------
      1 C                    -0.064779
      2 C                    -0.398987
      3 C                    -1.009890
      4 C                     0.590444
      5 C                     0.169824
      6 C                     0.112497
      7 C                    -0.527660
      8 C                     0.171846
      9 C                     0.589093
     10 C                    -0.527857
     11 C                     0.113854
     12 C                    -0.066312
     13 C                    -0.399425
     14 O                    -0.606924
     15 O                    -0.607040
     16 H                     0.171608
     17 H                     0.242224
     18 S                     0.347527
     19 H                     0.242342
     20 H                     0.225921
     21 H                     0.225856
     22 H                     0.171646
     23 C                    -1.008625
     24 S                     0.347602
     25 O                    -0.262325
     26 O                    -0.284593
     27 O                    -0.104239
     28 C                    -0.141563
     29 H                     0.174077
     30 H                     0.194457
     31 H                     0.171765
     32 O                    -0.262300
     33 O                    -0.284380
     34 O                    -0.104538
     35 C                    -0.141770
     36 H                     0.174127
     37 H                     0.171907
     38 H                     0.194396
  ----------------------------------------
  Sum of atomic charges =    -2.000190

                    Cartesian Multipole Moments
 -----------------------------------------------------------------
    Charge (ESU x 10^10)
                -9.6073
    Dipole Moment (Debye)
         X      -0.0016      Y      -0.0034      Z       0.0020
       Tot       0.0043
    Quadrupole Moments (Debye-Ang)
        XX    -271.8458     XY      10.6993     YY    -221.7377
        XZ      45.8534     YZ      -6.5483     ZZ    -179.0074

 Total job time:  188.77s(wall), 1096.83s(cpu)
        *  Thank you very much for using Q-Chem.  Have a nice day.  *
