 Gaussian 16, Revision A.03,
 Gaussian 16:  ES64L-G16RevA.03 25-Dec-2016

 --------------------------------------
 #P UB3LYP/6-311++G(d,p) nosym opt freq
 --------------------------------------

 --------
 Oxidized
 --------
 Symbolic Z-matrix:
 Charge =  0 Multiplicity = 1

 SCF Done:  E(UB3LYP) =  -693.528057134     A.U. after   15 cycles
 SCF Done:  E(UB3LYP) =  -693.551475575     A.U. after   13 cycles
 SCF Done:  E(UB3LYP) =  -693.554929618     A.U. after   12 cycles
 SCF Done:  E(UB3LYP) =  -693.555428180     A.U. after   11 cycles
 SCF Done:  E(UB3LYP) =  -693.555405851     A.U. after   10 cycles
 SCF Done:  E(UB3LYP) =  -693.555473454     A.U. after   10 cycles
 SCF Done:  E(UB3LYP) =  -693.555490353     A.U. after   10 cycles
 SCF Done:  E(UB3LYP) =  -693.555493204     A.U. after    9 cycles
 SCF Done:  E(UB3LYP) =  -693.555495363     A.U. after   10 cycles
 SCF Done:  E(UB3LYP) =  -693.555495624     A.U. after    9 cycles
 SCF Done:  E(UB3LYP) =  -693.555495683     A.U. after    8 cycles
 SCF Done:  E(UB3LYP) =  -693.555495700     A.U. after    7 cycles
 Optimization completed.
    -- Stationary point found.
 Normal termination of Gaussian 16 at Sat Jan  6 03:05:59 2024.

 ----------------------------------------------------------------------
 #P Geom=AllCheck Guess=TCheck SCRF=Check GenChk UB3LYP/6-311++G(d,p) F
 req
 ----------------------------------------------------------------------

 Structure from the checkpoint file:  "341.chk"
 --------
 Oxidized
 --------
 Charge =  0 Multiplicity = 1

                          Input orientation:
 ---------------------------------------------------------------------
 Center     Atomic      Atomic             Coordinates (Angstroms)
 Number     Number       Type             X           Y           Z
 ---------------------------------------------------------------------
      1          6           0       -0.336548   -2.050407    0.920756
      2          6           0       -0.230336   -0.945684   -0.167943
      3          6           0       -0.542387   -1.558801   -1.562115
      4          6           0       -1.273023    0.135276    0.132433
      5          6           0       -2.632542   -0.212413    0.176737
      6          6           0       -3.615593    0.730971    0.444863
      7          6           0       -3.267891    2.064149    0.679250
      8          6           0       -1.933899    2.428514    0.640307
      9          6           0       -0.936098    1.477167    0.369541
     10          6           0        0.473655    1.944975    0.345177
     11          8           0        0.758922    3.116374    0.553077
     12          6           0        1.523151    0.933502    0.058290
     13          6           0        2.858729    1.368973    0.033757
     14          6           0        3.888052    0.482185   -0.226851
     15          6           0        3.584047   -0.860578   -0.467180
     16          6           0        2.265369   -1.295090   -0.443822
     17          6           0        1.205442   -0.412563   -0.181493
     18          1           0        0.369866   -2.859705    0.726857
     19          1           0       -1.339065   -2.481662    0.943663
     20          1           0       -0.120218   -1.639346    1.909449
     21          1           0       -1.548982   -1.980303   -1.587416
     22          1           0       -0.472458   -0.797569   -2.342449
     23          1           0        0.159956   -2.358822   -1.803478
     24          1           0       -2.934391   -1.237531   -0.000890
     25          1           0       -4.656347    0.426974    0.471352
     26          1           0       -4.033581    2.802178    0.888670
     27          1           0       -1.621356    3.450412    0.816194
     28          1           0        3.050440    2.417533    0.225212
     29          1           0        4.916647    0.823507   -0.244593
     30          1           0        4.377963   -1.570159   -0.673284
     31          1           0        2.062476   -2.342057   -0.634069
 ---------------------------------------------------------------------

 SCF Done:  E(UB3LYP) =  -693.555495700     A.U. after    1 cycles

 Alpha  occ. eigenvalues --  -19.10480 -10.25890 -10.21608 -10.20269 -10.20268
 Alpha  occ. eigenvalues --  -10.19106 -10.19106 -10.18974 -10.18973 -10.18663
 Alpha  occ. eigenvalues --  -10.18662 -10.18434 -10.18433 -10.18344 -10.18343
 Alpha  occ. eigenvalues --  -10.17584 -10.17584  -1.03985  -0.89199  -0.86951
 Alpha  occ. eigenvalues --   -0.82834  -0.78482  -0.76471  -0.75777  -0.74139
 Alpha  occ. eigenvalues --   -0.70348  -0.66149  -0.64861  -0.62928  -0.60707
 Alpha  occ. eigenvalues --   -0.57669  -0.55083  -0.54482  -0.49845  -0.47809
 Alpha  occ. eigenvalues --   -0.47530  -0.47345  -0.45342  -0.44942  -0.44792
 Alpha  occ. eigenvalues --   -0.43509  -0.42760  -0.42545  -0.41379  -0.41196
 Alpha  occ. eigenvalues --   -0.39884  -0.38809  -0.37870  -0.37478  -0.36973
 Alpha  occ. eigenvalues --   -0.36466  -0.35239  -0.34224  -0.33172  -0.26827
 Alpha  occ. eigenvalues --   -0.26653  -0.26467  -0.25989  -0.25753
 Alpha virt. eigenvalues --   -0.07981  -0.02838  -0.02735  -0.01731  -0.01496
 Alpha virt. eigenvalues --   -0.00405   0.00450   0.01280   0.01438   0.01506
 Alpha virt. eigenvalues --    0.02805   0.03539   0.03871   0.04398   0.04660

  Beta  occ. eigenvalues --  -19.10480 -10.25890 -10.21608 -10.20269 -10.20268
  Beta  occ. eigenvalues --  -10.19106 -10.19106 -10.18974 -10.18973 -10.18663
  Beta  occ. eigenvalues --  -10.18662 -10.18434 -10.18433 -10.18344 -10.18343
  Beta  occ. eigenvalues --  -10.17584 -10.17584  -1.03985  -0.89199  -0.86951
  Beta  occ. eigenvalues --   -0.82834  -0.78482  -0.76471  -0.75777  -0.74139
  Beta  occ. eigenvalues --   -0.70348  -0.66149  -0.64861  -0.62928  -0.60707
  Beta  occ. eigenvalues --   -0.57669  -0.55083  -0.54482  -0.49845  -0.47809
  Beta  occ. eigenvalues --   -0.47530  -0.47345  -0.45342  -0.44942  -0.44792
  Beta  occ. eigenvalues --   -0.43509  -0.42760  -0.42545  -0.41379  -0.41196
  Beta  occ. eigenvalues --   -0.39884  -0.38809  -0.37870  -0.37478  -0.36973
  Beta  occ. eigenvalues --   -0.36466  -0.35239  -0.34224  -0.33172  -0.26827
  Beta  occ. eigenvalues --   -0.26653  -0.26467  -0.25989  -0.25753
  Beta virt. eigenvalues --   -0.07981  -0.02838  -0.02735  -0.01731  -0.01496
  Beta virt. eigenvalues --   -0.00405   0.00450   0.01280   0.01438   0.01506
  Beta virt. eigenvalues --    0.02805   0.03539   0.03871   0.04398   0.04660

 Mulliken charges and spin densities:
               1          2
     1  C   -0.758606  -0.000000
     2  C    0.145445   0.000000
     3  C   -0.758487   0.000000
     4  C    0.331143  -0.000000
     5  C   -0.111159   0.000000
     6  C   -0.401684   0.000000
     7  C   -0.351638   0.000000
     8  C    0.175703   0.000000
     9  C    0.332108  -0.000000
    10  C   -0.584179  -0.000000
    11  O   -0.247783   0.000000
    12  C    0.332002   0.000000
    13  C    0.175716   0.000000
    14  C   -0.351924   0.000000
    15  C   -0.401423  -0.000000
    16  C   -0.110968  -0.000000
    17  C    0.330713   0.000000
    18  H    0.144390   0.000000
    19  H    0.144368  -0.000000
    20  H    0.176472  -0.000000
    21  H    0.144408  -0.000000
    22  H    0.176408  -0.000000
    23  H    0.144410   0.000000
    24  H    0.117994   0.000000
    25  H    0.170818   0.000000
    26  H    0.165475  -0.000000
    27  H    0.208034  -0.000000
    28  H    0.208050  -0.000000
    29  H    0.165467   0.000000
    30  H    0.170842  -0.000000
    31  H    0.117885  -0.000000
 Sum of Mulliken charges =  -0.00000  -0.00000

 Dipole moment (field-independent basis, Debye):
    X=             -0.9090    Y=             -3.7319    Z=             -0.6625  Tot=              3.8977
 Quadrupole moment (field-independent basis, Debye-Ang):
   XX=            -86.8286   YY=           -105.2723   ZZ=           -104.3528
   XY=             -4.3253   XZ=             -2.3290   YZ=              0.2241

  Exact polarizability: 247.808  -9.208 199.215 -13.342  18.616 113.675
 Approx polarizability: 362.491   2.004 352.666 -15.442  35.616 179.936

                      1                      2                      3
                      A                      A                      A
 Frequencies --     37.8670                96.6955                97.9773
 Red. masses --      5.0271                 3.7659                 3.6657
 Frc consts  --      0.0042                 0.0207                 0.0207
 IR Inten    --      1.2821                 2.2515                 0.0486

                      4                      5                      6
                      A                      A                      A
 Frequencies --    149.0148               185.3674               223.5381
 Red. masses --      5.4752                 1.8763                 3.9372
 Frc consts  --      0.0716                 0.0380                 0.1159
 IR Inten    --      0.1040                 0.0000                 0.3367

                      7                      8                      9
                      A                      A                      A
 Frequencies --    247.9337               262.1456               302.0078
 Red. masses --      1.5142                 1.0448                 3.2332
 Frc consts  --      0.0548                 0.0423                 0.1737
 IR Inten    --      0.0004                 0.0978                 1.9289

                     10                     11                     12
                      A                      A                      A
 Frequencies --    308.8108               337.1686               357.1911
 Red. masses --      3.1596                 2.6778                 3.8793
 Frc consts  --      0.1775                 0.1794                 0.2916
 IR Inten    --      1.4919                 0.0017                 0.1068

                     13                     14                     15
                      A                      A                      A
 Frequencies --    358.7405               364.2678               415.4503
 Red. masses --      5.3010                 5.9223                 3.6881
 Frc consts  --      0.4019                 0.4630                 0.3751
 IR Inten    --     12.9678                 1.2709                 0.1982

                     16                     17                     18
                      A                      A                      A
 Frequencies --    427.8657               464.3812               506.1023
 Red. masses --      8.0316                 3.4248                 4.5042
 Frc consts  --      0.8663                 0.4351                 0.6797
 IR Inten    --      0.1413                 0.0000                 0.5953

                     19                     20                     21
                      A                      A                      A
 Frequencies --    543.4621               576.3078               609.0645
 Red. masses --      3.3451                 3.2229                 5.7001
 Frc consts  --      0.5821                 0.6307                 1.2458
 IR Inten    --      0.0000                15.7006                 0.0041

                     22                     23                     24
                      A                      A                      A
 Frequencies --    625.1138               660.3475               684.2627
 Red. masses --      4.7711                 5.5799                 5.9592
 Frc consts  --      1.0985                 1.4336                 1.6439
 IR Inten    --      0.0936                15.8908                 0.0313

                     25                     26                     27
                      A                      A                      A
 Frequencies --    701.0350               761.6778               777.6929
 Red. masses --      2.9296                 3.3750                 5.7477
 Frc consts  --      0.8483                 1.1536                 2.0481
 IR Inten    --     52.2306                 0.0000                 0.0057

                     28                     29                     30
                      A                      A                      A
 Frequencies --    778.7478               779.1025               826.3044
 Red. masses --      1.3218                 1.7446                 2.7891
 Frc consts  --      0.4723                 0.6239                 1.1220
 IR Inten    --      0.1044                65.7976                 0.0508

                     31                     32                     33
                      A                      A                      A
 Frequencies --    830.5228               897.6429               901.1785
 Red. masses --      2.8130                 1.3978                 1.5782
 Frc consts  --      1.1432                 0.6636                 0.7551
 IR Inten    --      6.6342                 0.0001                 0.1560

                     34                     35                     36
                      A                      A                      A
 Frequencies --    919.4345               936.0228               946.1582
 Red. masses --      2.7512                 1.5784                 6.7902
 Frc consts  --      1.3703                 0.8148                 3.5814
 IR Inten    --      1.2171                 0.1217                44.4629

                     37                     38                     39
                      A                      A                      A
 Frequencies --    987.1114               988.6543              1009.1813
 Red. masses --      1.3602                 1.3741                 1.3133
 Frc consts  --      0.7809                 0.7913                 0.7880
 IR Inten    --      0.0042                 1.9645                 0.0000

                     40                     41                     42
                      A                      A                      A
 Frequencies --   1010.9059              1036.0543              1056.1756
 Red. masses --      1.3257                 1.2819                 2.5159
 Frc consts  --      0.7982                 0.8107                 1.6536
 IR Inten    --      0.4668                 0.0002                12.8237

                     43                     44                     45
                      A                      A                      A
 Frequencies --   1062.2919              1105.9934              1107.2040
 Red. masses --      2.5246                 2.5912                 1.9168
 Frc consts  --      1.6785                 1.8675                 1.3844
 IR Inten    --      1.0091                 7.4155                 1.0506

                     46                     47                     48
                      A                      A                      A
 Frequencies --   1116.3329              1132.9800              1153.6961
 Red. masses --      2.0056                 3.4247                 1.8022
 Frc consts  --      1.4726                 2.5901                 1.4133
 IR Inten    --      9.3008                 1.4268                 2.3178

                     49                     50                     51
                      A                      A                      A
 Frequencies --   1186.5644              1190.1384              1193.1940
 Red. masses --      1.1153                 1.1550                 2.2783
 Frc consts  --      0.9252                 0.9639                 1.9111
 IR Inten    --      5.3564                 1.7433                 9.7093

                     52                     53                     54
                      A                      A                      A
 Frequencies --   1221.8686              1241.1650              1296.6679
 Red. masses --      2.9313                 1.5868                 1.6222
 Frc consts  --      2.5784                 1.4402                 1.6070
 IR Inten    --      0.0183                 1.2357                 0.2246

                     55                     56                     57
                      A                      A                      A
 Frequencies --   1303.7233              1334.4103              1338.9512
 Red. masses --      3.6999                 3.7424                 3.6371
 Frc consts  --      3.7052                 3.9262                 3.8418
 IR Inten    --    154.3170               108.6472                33.7353

                     58                     59                     60
                      A                      A                      A
 Frequencies --   1351.4899              1400.0239              1424.1888
 Red. masses --      7.3904                 1.1858                 1.2015
 Frc consts  --      7.9532                 1.3695                 1.4359
 IR Inten    --     11.6533                 7.7415                 3.8831

                     61                     62                     63
                      A                      A                      A
 Frequencies --   1474.3695              1477.5721              1485.2692
 Red. masses --      2.2380                 2.1401                 1.0462
 Frc consts  --      2.8663                 2.7529                 1.3599
 IR Inten    --      0.9046                33.8554                 0.0013

                     64                     65                     66
                      A                      A                      A
 Frequencies --   1491.2817              1498.9156              1505.1813
 Red. masses --      1.0480                 1.6515                 1.0535
 Frc consts  --      1.3732                 2.1862                 1.4063
 IR Inten    --      2.5183                 0.9208                13.5041

                     67                     68                     69
                      A                      A                      A
 Frequencies --   1515.9263              1516.2697              1603.2034
 Red. masses --      2.3821                 1.4903                 6.1794
 Frc consts  --      3.2253                 2.0187                 9.3577
 IR Inten    --      4.4381                19.3037                 1.4920

                     70                     71                     72
                      A                      A                      A
 Frequencies --   1619.9622              1638.3280              1640.7148
 Red. masses --      7.2018                 5.7406                 5.5668
 Frc consts  --     11.1352                 9.0784                 8.8292
 IR Inten    --      0.0800                36.7098                53.5435

                     73                     74                     75
                      A                      A                      A
 Frequencies --   1713.7904              3037.3481              3040.3510
 Red. masses --     11.9536                 1.0336                 1.0346
 Frc consts  --     20.6854                 5.6180                 5.6344
 IR Inten    --    250.9867                21.4963                20.4692

                     76                     77                     78
                      A                      A                      A
 Frequencies --   3106.5270              3107.6763              3109.3449
 Red. masses --      1.1022                 1.1029                 1.1025
 Frc consts  --      6.2671                 6.2757                 6.2801
 IR Inten    --      0.0149                 8.7146                26.0973

                     79                     80                     81
                      A                      A                      A
 Frequencies --   3110.5267              3163.5300              3163.6393
 Red. masses --      1.1016                 1.0859                 1.0860
 Frc consts  --      6.2795                 6.4031                 6.4040
 IR Inten    --     55.0635                 2.0127                 0.4480

                     82                     83                     84
                      A                      A                      A
 Frequencies --   3178.1465              3178.4067              3187.0441
 Red. masses --      1.0895                 1.0896                 1.0944
 Frc consts  --      6.4837                 6.4855                 6.5491
 IR Inten    --      9.5310                17.8912                19.9284

                     85                     86                     87
                      A                      A                      A
 Frequencies --   3187.5185              3199.9186              3200.3454
 Red. masses --      1.0943                 1.0941                 1.0943
 Frc consts  --      6.5506                 6.6007                 6.6039
 IR Inten    --     13.3841                18.9110                 0.1402

 - Thermochemistry -
 -------------------
 Temperature   298.150 Kelvin.  Pressure   1.00000 Atm.
 Atom     1 has atomic number  6 and mass  12.00000

 Molecular mass:   222.10447 amu.
 Principal axes and moments of inertia in atomic units:
                           1         2         3
     Eigenvalues --  2076.631854307.848405991.84936
           X            0.96904   0.23319   0.08110
           Y           -0.21423   0.95747  -0.19330
           Z           -0.12272   0.16994   0.97778
 This molecule is an asymmetric top.
 Rotational symmetry number  1.
 Warning -- assumption of classical behavior for rotation
           may cause significant error
 Rotational temperatures (Kelvin)      0.04171     0.02011     0.01446
 Rotational constants (GHZ):           0.86907     0.41894     0.30120
 Zero-point vibrational energy     665702.0 (Joules/Mol)
                                  159.10659 (Kcal/Mol)
 Warning -- explicit consideration of  21 degrees of freedom as
           vibrations may cause significant error
 Vibrational temperatures:     54.48   139.12   140.97   214.40   266.70
          (Kelvin)            321.62   356.72   377.17   434.52   444.31
                              485.11   513.92   516.15   524.10   597.74
                              615.60   668.14   728.17   781.92   829.18
                              876.31   899.40   950.09   984.50  1008.63
                             1095.88  1118.93  1120.44  1120.95  1188.87
                             1194.94  1291.51  1296.59  1322.86  1346.73
                             1361.31  1420.23  1422.45  1451.99  1454.47
                             1490.65  1519.60  1528.40  1591.28  1593.02
                             1606.15  1630.11  1659.91  1707.20  1712.34
                             1716.74  1758.00  1785.76  1865.62  1875.77
                             1919.92  1926.45  1944.49  2014.32  2049.09
                             2121.29  2125.90  2136.97  2145.62  2156.61
                             2165.62  2181.08  2181.57  2306.65  2330.76
                             2357.19  2360.62  2465.76  4370.07  4374.39
                             4469.60  4471.25  4473.65  4475.35  4551.61
                             4551.77  4572.64  4573.02  4585.45  4586.13
                             4603.97  4604.58

 Zero-point correction=                           0.253552 (Hartree/Particle)
 Thermal correction to Energy=                    0.267061
 Thermal correction to Enthalpy=                  0.268005
 Thermal correction to Gibbs Free Energy=         0.213918
 Sum of electronic and zero-point Energies=           -693.301943
 Sum of electronic and thermal Energies=              -693.288435
 Sum of electronic and thermal Enthalpies=            -693.287491
 Sum of electronic and thermal Free Energies=         -693.341578

                     E (Thermal)             CV                S
                      KCal/Mol        Cal/Mol-Kelvin    Cal/Mol-Kelvin
 Total                  167.583             55.624            113.835
 Electronic               0.000              0.000              0.000
 Translational            0.889              2.981             42.097
 Rotational               0.889              2.981             32.350
 Vibrational            165.806             49.662             39.389
 Vibration     1          0.594              1.982              5.368
 Vibration     2          0.603              1.952              3.520
 Vibration     3          0.603              1.951              3.494
 Vibration     4          0.618              1.904              2.685
 Vibration     5          0.631              1.860              2.274
 Vibration     6          0.649              1.805              1.930
 Vibration     7          0.662              1.766              1.745
 Vibration     8          0.669              1.742              1.647
 Vibration     9          0.694              1.670              1.406
 Vibration    10          0.698              1.657              1.369
 Vibration    11          0.718              1.601              1.226
 Vibration    12          0.732              1.560              1.134
 Vibration    13          0.734              1.557              1.128
 Vibration    14          0.738              1.546              1.104
 Vibration    15          0.779              1.437              0.908
 Vibration    16          0.789              1.410              0.866
 Vibration    17          0.822              1.329              0.753
 Vibration    18          0.861              1.236              0.643
 Vibration    19          0.899              1.154              0.558
 Vibration    20          0.933              1.083              0.492
 Vibration    21          0.968              1.013              0.434

 Optimization completed.
    -- Stationary point found.
 Normal termination of Gaussian 16 at Sat Jan  6 04:58:15 2024.
