 Gaussian 16, Revision A.03,
 Gaussian 16:  ES64L-G16RevA.03 25-Dec-2016

 ----------------------------------------------------------------
 #P UB3LYP/6-311++G(d,p) SCRF=(PCM,Solvent=n,n-DiMethylFormamide)
 ----------------------------------------------------------------

 ------------------
 Quinone PCM in DMF
 ------------------
 Symbolic Z-matrix:
 Charge =  0 Multiplicity = 1

                         Standard orientation:
 ---------------------------------------------------------------------
 Center     Atomic      Atomic             Coordinates (Angstroms)
 Number     Number       Type             X           Y           Z
 ---------------------------------------------------------------------
      1         17           0        2.719134    1.615047    0.000023
      2          6           0        1.279599    0.673687    0.000017
      3          6           0        1.279636   -0.673744    0.000006
      4         17           0        2.719977   -1.614078   -0.000031
      5          6           0        0.000686   -1.456942    0.000018
      6          8           0        0.000299   -2.663574    0.000068
      7          6           0       -1.279581   -0.673712   -0.000011
      8          6           0       -1.279802    0.673668    0.000002
      9         17           0       -2.720085    1.614403    0.000027
     10          6           0       -0.000781    1.456999    0.000003
     11          8           0       -0.000500    2.663543   -0.000073
     12         17           0       -2.718845   -1.615341   -0.000029
 ---------------------------------------------------------------------

 SCF Done:  E(UB3LYP) =  -2220.03820061     A.U. after   21 cycles

 The electronic state is 1-A.
 Alpha  occ. eigenvalues -- -101.59292-101.59291-101.59284-101.59283 -19.17075
 Alpha  occ. eigenvalues --  -19.17074 -10.32722 -10.32720 -10.29511 -10.29509
 Alpha  occ. eigenvalues --  -10.29434 -10.29434  -9.50733  -9.50732  -9.50725
 Alpha  occ. eigenvalues --   -9.50725  -7.27232  -7.27231  -7.27223  -7.27223
 Alpha  occ. eigenvalues --   -7.26238  -7.26237  -7.26229  -7.26229  -7.26115
 Alpha  occ. eigenvalues --   -7.26114  -7.26106  -7.26106  -1.11119  -1.10897
 Alpha  occ. eigenvalues --   -0.95407  -0.94213  -0.89494  -0.89263  -0.83978
 Alpha  occ. eigenvalues --   -0.76712  -0.72613  -0.63998  -0.63887  -0.58595
 Alpha  occ. eigenvalues --   -0.53146  -0.51006  -0.49883  -0.49312  -0.48287
 Alpha  occ. eigenvalues --   -0.47761  -0.46090  -0.45808  -0.42902  -0.39600
 Alpha  occ. eigenvalues --   -0.37447  -0.36721  -0.36663  -0.35924  -0.34627
 Alpha  occ. eigenvalues --   -0.33929  -0.32576  -0.31557  -0.30926  -0.28520
 Alpha virt. eigenvalues --   -0.16069  -0.05887  -0.04265  -0.02885  -0.01547
 Alpha virt. eigenvalues --    0.00366   0.00573   0.02524   0.02752   0.02972
 Alpha virt. eigenvalues --    0.04444   0.04994   0.05181   0.06744   0.06827

  Beta  occ. eigenvalues -- -101.59292-101.59291-101.59284-101.59283 -19.17075
  Beta  occ. eigenvalues --  -19.17074 -10.32722 -10.32720 -10.29511 -10.29509
  Beta  occ. eigenvalues --  -10.29434 -10.29434  -9.50733  -9.50732  -9.50725
  Beta  occ. eigenvalues --   -9.50725  -7.27232  -7.27231  -7.27223  -7.27223
  Beta  occ. eigenvalues --   -7.26238  -7.26237  -7.26229  -7.26229  -7.26115
  Beta  occ. eigenvalues --   -7.26114  -7.26106  -7.26106  -1.11119  -1.10897
  Beta  occ. eigenvalues --   -0.95407  -0.94213  -0.89494  -0.89263  -0.83978
  Beta  occ. eigenvalues --   -0.76712  -0.72613  -0.63998  -0.63887  -0.58595
  Beta  occ. eigenvalues --   -0.53146  -0.51006  -0.49883  -0.49312  -0.48287
  Beta  occ. eigenvalues --   -0.47761  -0.46090  -0.45808  -0.42902  -0.39600
  Beta  occ. eigenvalues --   -0.37447  -0.36721  -0.36663  -0.35924  -0.34627
  Beta  occ. eigenvalues --   -0.33929  -0.32576  -0.31557  -0.30926  -0.28520
  Beta virt. eigenvalues --   -0.16069  -0.05887  -0.04265  -0.02885  -0.01547
  Beta virt. eigenvalues --    0.00366   0.00573   0.02524   0.02752   0.02972
  Beta virt. eigenvalues --    0.04444   0.04994   0.05181   0.06744   0.06827

 Mulliken charges and spin densities:
               1          2
     1  Cl   0.417495  -0.000000
     2  C    0.673681  -0.000000
     3  C    0.677851   0.000000
     4  Cl   0.416674  -0.000000
     5  C   -2.036219  -0.000000
     6  O   -0.149898   0.000000
     7  C    0.673484  -0.000000
     8  C    0.678525   0.000000
     9  Cl   0.416684  -0.000000
    10  C   -2.035737  -0.000000
    11  O   -0.149876   0.000000
    12  Cl   0.417335  -0.000000
 Sum of Mulliken charges =  -0.00000  -0.00000

 Dipole moment (field-independent basis, Debye):
    X=              0.0008    Y=              0.0007    Z=              0.0000  Tot=              0.0011
 Quadrupole moment (field-independent basis, Debye-Ang):
   XX=            -90.4705   YY=           -111.2568   ZZ=            -92.1062
   XY=              0.0217   XZ=             -0.0000   YZ=              0.0008

 Normal termination of Gaussian 16 at Sun Jan 21 06:52:45 2024.
