 Gaussian 16, Revision A.03,
 Gaussian 16:  ES64L-G16RevA.03 25-Dec-2016

 ----------------------------------------------------------------------
 #P UB3LYP/6-311++G(d,p) nosym opt freq SCRF=(PCM,Solvent=n,n-DiMethylF
 ormamide)
 ----------------------------------------------------------------------

 --------
 Oxidized
 --------
 Symbolic Z-matrix:
 Charge =  0 Multiplicity = 1

 SCF Done:  E(UB3LYP) =  -1004.28613416     A.U. after   18 cycles
 SCF Done:  E(UB3LYP) =  -1004.28612707     A.U. after   13 cycles
 SCF Done:  E(UB3LYP) =  -1004.28092886     A.U. after   14 cycles
 SCF Done:  E(UB3LYP) =  -1004.28064272     A.U. after   14 cycles
 SCF Done:  E(UB3LYP) =  -1004.28631494     A.U. after   10 cycles
 SCF Done:  E(UB3LYP) =  -1004.28664258     A.U. after   13 cycles
 SCF Done:  E(UB3LYP) =  -1004.28666523     A.U. after   11 cycles
 SCF Done:  E(UB3LYP) =  -1004.28666963     A.U. after   12 cycles
 SCF Done:  E(UB3LYP) =  -1004.28667871     A.U. after   11 cycles
 SCF Done:  E(UB3LYP) =  -1004.28668628     A.U. after   12 cycles
 SCF Done:  E(UB3LYP) =  -1004.28672841     A.U. after   11 cycles
 SCF Done:  E(UB3LYP) =  -1004.28672988     A.U. after   11 cycles
 SCF Done:  E(UB3LYP) =  -1004.28673333     A.U. after   12 cycles
 SCF Done:  E(UB3LYP) =  -1004.28673488     A.U. after   10 cycles
 SCF Done:  E(UB3LYP) =  -1004.28673787     A.U. after   11 cycles
 SCF Done:  E(UB3LYP) =  -1004.28673877     A.U. after   10 cycles
 SCF Done:  E(UB3LYP) =  -1004.28673906     A.U. after    8 cycles
 SCF Done:  E(UB3LYP) =  -1004.28673920     A.U. after   10 cycles
 SCF Done:  E(UB3LYP) =  -1004.28673923     A.U. after    9 cycles
 Optimization completed.
    -- Stationary point found.
 Normal termination of Gaussian 16 at Sat Feb 10 17:44:57 2024.

 ----------------------------------------------------------------------
 #P Geom=AllCheck Guess=TCheck SCRF=Check GenChk UB3LYP/6-311++G(d,p) F
 req
 ----------------------------------------------------------------------

 Structure from the checkpoint file:  "176.chk"
 --------
 Oxidized
 --------
 Charge =  0 Multiplicity = 1

                          Input orientation:
 ---------------------------------------------------------------------
 Center     Atomic      Atomic             Coordinates (Angstroms)
 Number     Number       Type             X           Y           Z
 ---------------------------------------------------------------------
      1          7           0       -2.915326   -2.516169   -0.162655
      2          6           0       -2.573650   -1.231386    0.082445
      3          6           0       -3.613401   -0.316074    0.440286
      4          6           0       -3.354086    0.990597    0.700475
      5          6           0       -2.027102    1.520908    0.630413
      6          7           0       -1.854234    2.833181    0.903356
      7          6           0       -0.967937    0.645958    0.281806
      8          6           0        0.383115    1.165823    0.207952
      9          8           0        0.671710    2.357858    0.433983
     10          6           0        1.477867    0.231532   -0.155469
     11          6           0        1.214013   -1.121926   -0.429161
     12          6           0        2.254563   -1.992911   -0.774266
     13          6           0        3.561098   -1.536515   -0.852409
     14          6           0        3.848834   -0.196853   -0.584775
     15          6           0        2.811845    0.654230   -0.243902
     16          7           0        3.213575    2.061156    0.027512
     17          8           0        3.548977    2.337967    1.169064
     18          8           0        3.280141    2.819814   -0.927675
     19          6           0       -0.173975   -1.656486   -0.356768
     20          8           0       -0.360504   -2.863905   -0.607905
     21          6           0       -1.245072   -0.747249    0.003691
     22          1           0       -3.876408   -2.809083   -0.092064
     23          1           0       -2.185124   -3.169897   -0.416810
     24          1           0       -4.630247   -0.687506    0.501726
     25          1           0       -4.164632    1.659150    0.969210
     26          1           0       -2.645179    3.410939    1.137516
     27          1           0       -0.921011    3.221514    0.852366
     28          1           0        2.013506   -3.027683   -0.977578
     29          1           0        4.364213   -2.211992   -1.119664
     30          1           0        4.864430    0.175004   -0.640699
 ---------------------------------------------------------------------

 SCF Done:  E(UB3LYP) =  -1004.28673923     A.U. after    1 cycles

 Alpha  occ. eigenvalues --  -19.18374 -19.18370 -19.12012 -19.11696 -14.57470
 Alpha  occ. eigenvalues --  -14.34273 -14.34188 -10.27651 -10.27198 -10.25975
 Alpha  occ. eigenvalues --  -10.25191 -10.25102 -10.22511 -10.21584 -10.21496
 Alpha  occ. eigenvalues --  -10.20741 -10.20549 -10.20477 -10.20293 -10.20182
 Alpha  occ. eigenvalues --  -10.20039  -1.25990  -1.08635  -1.05367  -1.04787
 Alpha  occ. eigenvalues --   -0.95549  -0.94596  -0.91109  -0.85939  -0.82870
 Alpha  occ. eigenvalues --   -0.81553  -0.78137  -0.75097  -0.72384  -0.69320
 Alpha  occ. eigenvalues --   -0.67237  -0.66440  -0.61684  -0.60035  -0.59400
 Alpha  occ. eigenvalues --   -0.57509  -0.56290  -0.55263  -0.54297  -0.54010
 Alpha  occ. eigenvalues --   -0.52959  -0.51124  -0.50355  -0.49407  -0.48190
 Alpha  occ. eigenvalues --   -0.47544  -0.45947  -0.45225  -0.44873  -0.43333
 Alpha  occ. eigenvalues --   -0.42020  -0.41963  -0.41633  -0.40580  -0.39702
 Alpha  occ. eigenvalues --   -0.38466  -0.38324  -0.37257  -0.34148  -0.33519
 Alpha  occ. eigenvalues --   -0.33408  -0.30053  -0.28937  -0.28344  -0.28290
 Alpha  occ. eigenvalues --   -0.28205  -0.27375  -0.20717
 Alpha virt. eigenvalues --   -0.11532  -0.09810  -0.07349  -0.04406  -0.01573
 Alpha virt. eigenvalues --   -0.00683   0.00048   0.00435   0.01526   0.02025
 Alpha virt. eigenvalues --    0.02808   0.02846   0.03912   0.03978   0.04272

  Beta  occ. eigenvalues --  -19.18374 -19.18370 -19.12012 -19.11696 -14.57470
  Beta  occ. eigenvalues --  -14.34273 -14.34188 -10.27651 -10.27198 -10.25975
  Beta  occ. eigenvalues --  -10.25191 -10.25102 -10.22511 -10.21584 -10.21496
  Beta  occ. eigenvalues --  -10.20741 -10.20549 -10.20477 -10.20293 -10.20182
  Beta  occ. eigenvalues --  -10.20039  -1.25990  -1.08635  -1.05367  -1.04787
  Beta  occ. eigenvalues --   -0.95549  -0.94596  -0.91109  -0.85939  -0.82870
  Beta  occ. eigenvalues --   -0.81553  -0.78137  -0.75097  -0.72384  -0.69320
  Beta  occ. eigenvalues --   -0.67237  -0.66440  -0.61684  -0.60035  -0.59400
  Beta  occ. eigenvalues --   -0.57509  -0.56290  -0.55263  -0.54297  -0.54010
  Beta  occ. eigenvalues --   -0.52959  -0.51124  -0.50355  -0.49407  -0.48190
  Beta  occ. eigenvalues --   -0.47544  -0.45947  -0.45225  -0.44873  -0.43333
  Beta  occ. eigenvalues --   -0.42020  -0.41963  -0.41633  -0.40580  -0.39702
  Beta  occ. eigenvalues --   -0.38466  -0.38324  -0.37257  -0.34148  -0.33519
  Beta  occ. eigenvalues --   -0.33408  -0.30053  -0.28937  -0.28344  -0.28290
  Beta  occ. eigenvalues --   -0.28205  -0.27375  -0.20717
  Beta virt. eigenvalues --   -0.11532  -0.09810  -0.07349  -0.04406  -0.01573
  Beta virt. eigenvalues --   -0.00683   0.00048   0.00435   0.01526   0.02025
  Beta virt. eigenvalues --    0.02808   0.02846   0.03912   0.03978   0.04272

 Mulliken charges and spin densities:
               1          2
     1  N   -0.422171  -0.000000
     2  C   -0.028495  -0.000000
     3  C   -0.388019   0.000000
     4  C   -0.235083   0.000000
     5  C   -0.072906  -0.000000
     6  N   -0.424565   0.000000
     7  C    0.353290  -0.000000
     8  C   -0.409391  -0.000000
     9  O   -0.315191  -0.000000
    10  C    0.317226   0.000000
    11  C    0.423328  -0.000000
    12  C   -0.283876   0.000000
    13  C   -0.323469   0.000000
    14  C    0.041870  -0.000000
    15  C   -0.222867   0.000000
    16  N   -0.177554  -0.000000
    17  O   -0.007169  -0.000000
    18  O   -0.006570  -0.000000
    19  C   -0.374574  -0.000000
    20  O   -0.357928  -0.000000
    21  C    0.515071  -0.000000
    22  H    0.317037   0.000000
    23  H    0.343856   0.000000
    24  H    0.206726   0.000000
    25  H    0.208362   0.000000
    26  H    0.317294  -0.000000
    27  H    0.351278  -0.000000
    28  H    0.189390   0.000000
    29  H    0.226574   0.000000
    30  H    0.238527  -0.000000
 Sum of Mulliken charges =  -0.00000   0.00000

 Dipole moment (field-independent basis, Debye):
    X=             -8.2735    Y=             -3.9123    Z=              0.2477  Tot=              9.1552
 Quadrupole moment (field-independent basis, Debye-Ang):
   XX=            -83.7813   YY=           -127.3277   ZZ=           -125.7164
   XY=            -22.7993   XZ=            -11.3888   YZ=              3.1993

  Exact polarizability: 472.644  -3.537 351.545 -46.211  45.981 169.535
 Approx polarizability: 539.386  -5.352 433.773 -50.004  54.401 218.320

                      1                      2                      3
                      A                      A                      A
 Frequencies --     17.5399                42.9687                74.4029
 Red. masses --     10.8120                 6.2966                 9.2148
 Frc consts  --      0.0020                 0.0068                 0.0301
 IR Inten    --      0.3683                22.7142                 2.5712

                      4                      5                      6
                      A                      A                      A
 Frequencies --    115.8876               122.7372               139.8634
 Red. masses --     10.9217                 8.2787                 9.8003
 Frc consts  --      0.0864                 0.0735                 0.1130
 IR Inten    --      6.4401                20.0031                 3.9701

                      7                      8                      9
                      A                      A                      A
 Frequencies --    160.7642               173.5120               216.7332
 Red. masses --      5.1794                 4.1557                 2.0374
 Frc consts  --      0.0789                 0.0737                 0.0564
 IR Inten    --     16.0520                57.2902               172.9868

                     10                     11                     12
                      A                      A                      A
 Frequencies --    220.0223               236.3869               253.0272
 Red. masses --      1.2394                 6.5120                 2.1058
 Frc consts  --      0.0354                 0.2144                 0.0794
 IR Inten    --      7.8469                 3.4817               294.0563

                     13                     14                     15
                      A                      A                      A
 Frequencies --    319.1521               330.1827               340.5526
 Red. masses --      5.5807                 5.9049                 3.6899
 Frc consts  --      0.3349                 0.3793                 0.2521
 IR Inten    --      5.2111                21.7717                 0.0442

                     16                     17                     18
                      A                      A                      A
 Frequencies --    367.9577               375.8591               406.9647
 Red. masses --      8.3577                 6.4601                 8.0161
 Frc consts  --      0.6667                 0.5377                 0.7822
 IR Inten    --      1.5283                 0.3886                 0.1852

                     19                     20                     21
                      A                      A                      A
 Frequencies --    409.9435               428.9386               437.4737
 Red. masses --      4.7275                 6.1412                10.2080
 Frc consts  --      0.4681                 0.6657                 1.1510
 IR Inten    --     10.9201                 0.0152                96.1992

                     22                     23                     24
                      A                      A                      A
 Frequencies --    450.2128               485.9717               487.5329
 Red. masses --      7.2879                 3.5996                 4.6875
 Frc consts  --      0.8703                 0.5009                 0.6564
 IR Inten    --     59.7318                 3.7763                 0.0320

                     25                     26                     27
                      A                      A                      A
 Frequencies --    518.4901               570.6160               598.7074
 Red. masses --      7.5035                 2.5173                 3.1172
 Frc consts  --      1.1885                 0.4829                 0.6583
 IR Inten    --      0.1179                61.3950                 8.6095

                     28                     29                     30
                      A                      A                      A
 Frequencies --    604.5860               641.3426               659.7431
 Red. masses --      5.8185                 1.1978                 1.2813
 Frc consts  --      1.2531                 0.2903                 0.3286
 IR Inten    --      7.5435                 1.1557                 6.0697

                     31                     32                     33
                      A                      A                      A
 Frequencies --    686.8268               702.4874               718.2743
 Red. masses --      3.7958                 6.8667                 9.1098
 Frc consts  --      1.0550                 1.9965                 2.7691
 IR Inten    --     13.1614                 6.3858                91.7580

                     34                     35                     36
                      A                      A                      A
 Frequencies --    728.5843               745.6436               772.9358
 Red. masses --      4.2621                 8.2775                 4.1822
 Frc consts  --      1.3330                 2.7115                 1.4721
 IR Inten    --     18.1682                 3.9819                33.7781

                     37                     38                     39
                      A                      A                      A
 Frequencies --    783.2429               788.7246               829.8954
 Red. masses --      7.4346                 5.1793                 2.0028
 Frc consts  --      2.6872                 1.8983                 0.8127
 IR Inten    --      4.9243                 3.2197                37.5382

                     40                     41                     42
                      A                      A                      A
 Frequencies --    845.5983               854.9263               900.5850
 Red. masses --      1.6893                10.3388                 6.9845
 Frc consts  --      0.7117                 4.4522                 3.3376
 IR Inten    --     41.8532                31.8925                24.6156

                     43                     44                     45
                      A                      A                      A
 Frequencies --    944.2842               950.7241               979.1583
 Red. masses --      6.6934                 1.3995                 4.0019
 Frc consts  --      3.5164                 0.7453                 2.2606
 IR Inten    --      2.7009                 0.0917                19.8508

                     46                     47                     48
                      A                      A                      A
 Frequencies --    986.2735              1015.4718              1016.7768
 Red. masses --      1.2970                 1.3323                 2.0350
 Frc consts  --      0.7434                 0.8094                 1.2396
 IR Inten    --      0.0419                 0.9646                46.9920

                     49                     50                     51
                      A                      A                      A
 Frequencies --   1086.9397              1089.3662              1160.7340
 Red. masses --      1.7020                 2.2267                 2.2011
 Frc consts  --      1.1847                 1.5569                 1.7472
 IR Inten    --     44.1633                51.1370               106.1616

                     52                     53                     54
                      A                      A                      A
 Frequencies --   1169.2879              1189.4316              1202.2940
 Red. masses --      2.3371                 1.7155                 1.2291
 Frc consts  --      1.8827                 1.4300                 1.0467
 IR Inten    --      7.8190                 4.1944               348.3974

                     55                     56                     57
                      A                      A                      A
 Frequencies --   1231.6266              1273.9854              1312.6355
 Red. masses --      2.1376                 5.7595                 4.3288
 Frc consts  --      1.9104                 5.5076                 4.3945
 IR Inten    --      8.3019              1408.1064                17.9092

                     58                     59                     60
                      A                      A                      A
 Frequencies --   1325.9247              1345.1700              1387.2993
 Red. masses --      2.2969                 8.9815                 3.2514
 Frc consts  --      2.3792                 9.5753                 3.6869
 IR Inten    --     80.2455                 8.1472                 2.2558

                     61                     62                     63
                      A                      A                      A
 Frequencies --   1414.9352              1425.3205              1450.5558
 Red. masses --     13.6272                 5.7308                 4.7089
 Frc consts  --     16.0743                 6.8595                 5.8377
 IR Inten    --    252.6809                99.9724               455.6731

                     64                     65                     66
                      A                      A                      A
 Frequencies --   1454.1942              1475.2637              1484.8533
 Red. masses --      2.4269                 3.6209                 2.5537
 Frc consts  --      3.0237                 4.6430                 3.3174
 IR Inten    --     74.0679                17.0218                26.3105

                     67                     68                     69
                      A                      A                      A
 Frequencies --   1557.4716              1558.0522              1559.2469
 Red. masses --      4.4591                 4.1815                14.6025
 Frc consts  --      6.3729                 5.9806                20.9174
 IR Inten    --    232.7199               111.2135               695.2897

                     70                     71                     72
                      A                      A                      A
 Frequencies --   1587.8837              1594.1723              1611.3770
 Red. masses --      1.9079                 2.1932                 3.6008
 Frc consts  --      2.8343                 3.2840                 5.5087
 IR Inten    --   1402.8084               202.3658               214.0178

                     73                     74                     75
                      A                      A                      A
 Frequencies --   1615.5868              1644.9330              1683.1434
 Red. masses --      3.1400                 7.0555                 7.4277
 Frc consts  --      4.8288                11.2481                12.3979
 IR Inten    --    480.6845               178.1653                73.5682

                     76                     77                     78
                      A                      A                      A
 Frequencies --   3171.2644              3186.2039              3190.4965
 Red. masses --      1.0875                 1.0968                 1.0887
 Frc consts  --      6.4441                 6.5602                 6.5293
 IR Inten    --      7.7630                21.3120                 2.3905

                     79                     80                     81
                      A                      A                      A
 Frequencies --   3202.0260              3213.8654              3504.0466
 Red. masses --      1.0939                 1.0945                 1.0520
 Frc consts  --      6.6081                 6.6605                 7.6105
 IR Inten    --      1.6741                 8.6343                84.5128

                     82                     83                     84
                      A                      A                      A
 Frequencies --   3510.8651              3683.7361              3686.6226
 Red. masses --      1.0516                 1.0998                 1.1000
 Frc consts  --      7.6372                 8.7930                 8.8087
 IR Inten    --    190.8649               170.1311               183.2310

 - Thermochemistry -
 -------------------
 Temperature   298.150 Kelvin.  Pressure   1.00000 Atm.
 Atom     1 has atomic number  7 and mass  14.00307

 Molecular mass:   283.05931 amu.
 Principal axes and moments of inertia in atomic units:
                           1         2         3
     Eigenvalues --  3440.202686732.635889904.31847
           X            0.95617  -0.25961   0.13544
           Y            0.28459   0.93279  -0.22116
           Z           -0.06892   0.25001   0.96579
 This molecule is an asymmetric top.
 Rotational symmetry number  1.
 Warning -- assumption of classical behavior for rotation
           may cause significant error
 Rotational temperatures (Kelvin)      0.02518     0.01286     0.00875
 Rotational constants (GHZ):           0.52460     0.26806     0.18222
 Zero-point vibrational energy     560446.3 (Joules/Mol)
                                  133.94987 (Kcal/Mol)
 Warning -- explicit consideration of  28 degrees of freedom as
           vibrations may cause significant error
 Vibrational temperatures:     25.24    61.82   107.05   166.74   176.59
          (Kelvin)            201.23   231.30   249.65   311.83   316.56
                              340.11   364.05   459.19   475.06   489.98
                              529.41   540.78   585.53   589.82   617.15
                              629.43   647.76   699.20   701.45   745.99
                              820.99   861.41   869.86   922.75   949.22
                              988.19  1010.72  1033.44  1048.27  1072.81
                             1112.08  1126.91  1134.80  1194.03  1216.63
                             1230.05  1295.74  1358.61  1367.88  1408.79
                             1419.03  1461.04  1462.92  1563.86  1567.35
                             1670.04  1682.34  1711.33  1729.83  1772.04
                             1832.98  1888.59  1907.71  1935.40  1996.01
                             2035.78  2050.72  2087.03  2092.26  2122.58
                             2136.37  2240.85  2241.69  2243.41  2284.61
                             2293.66  2318.41  2324.47  2366.69  2421.67
                             4562.74  4584.24  4590.41  4607.00  4624.04
                             5041.54  5051.35  5300.07  5304.23

 Zero-point correction=                           0.213463 (Hartree/Particle)
 Thermal correction to Energy=                    0.230399
 Thermal correction to Enthalpy=                  0.231343
 Thermal correction to Gibbs Free Energy=         0.168371
 Sum of electronic and zero-point Energies=          -1004.073277
 Sum of electronic and thermal Energies=             -1004.056340
 Sum of electronic and thermal Enthalpies=           -1004.055396
 Sum of electronic and thermal Free Energies=        -1004.118369

                     E (Thermal)             CV                S
                      KCal/Mol        Cal/Mol-Kelvin    Cal/Mol-Kelvin
 Total                  144.578             66.347            132.538
 Electronic               0.000              0.000              0.000
 Translational            0.889              2.981             42.819
 Rotational               0.889              2.981             33.794
 Vibrational            142.800             60.385             55.924
 Vibration     1          0.593              1.986              6.895
 Vibration     2          0.595              1.980              5.117
 Vibration     3          0.599              1.966              4.033
 Vibration     4          0.608              1.936              3.168
 Vibration     5          0.610              1.930              3.057
 Vibration     6          0.615              1.913              2.806
 Vibration     7          0.622              1.890              2.541
 Vibration     8          0.627              1.875              2.397
 Vibration     9          0.646              1.816              1.986
 Vibration    10          0.647              1.811              1.959
 Vibration    11          0.655              1.785              1.830
 Vibration    12          0.664              1.758              1.709
 Vibration    13          0.705              1.637              1.314
 Vibration    14          0.713              1.615              1.259
 Vibration    15          0.720              1.594              1.210
 Vibration    16          0.741              1.538              1.088
 Vibration    17          0.747              1.522              1.056
 Vibration    18          0.772              1.455              0.937
 Vibration    19          0.774              1.449              0.927
 Vibration    20          0.790              1.407              0.862
 Vibration    21          0.798              1.388              0.835
 Vibration    22          0.809              1.360              0.795
 Vibration    23          0.842              1.281              0.694
 Vibration    24          0.843              1.278              0.690
 Vibration    25          0.873              1.209              0.613
 Vibration    26          0.927              1.095              0.503
 Vibration    27          0.957              1.035              0.452
 Vibration    28          0.963              1.022              0.442

                           ! Non-Optimized Parameters !
 Normal termination of Gaussian 16 at Sat Feb 10 18:36:21 2024.
