 Gaussian 16, Revision A.03,
 Gaussian 16:  ES64L-G16RevA.03 25-Dec-2016

 --------------------------------------
 #P UB3LYP/6-311++G(d,p) nosym opt freq
 --------------------------------------

 --------
 Oxidized
 --------
 Symbolic Z-matrix:
 Charge =  0 Multiplicity = 1

 SCF Done:  E(UB3LYP) =  -1140.37520197     A.U. after   15 cycles
 SCF Done:  E(UB3LYP) =  -1140.41946555     A.U. after   14 cycles
 SCF Done:  E(UB3LYP) =  -1140.44836912     A.U. after   14 cycles
 SCF Done:  E(UB3LYP) =  -1140.45106943     A.U. after   13 cycles
 SCF Done:  E(UB3LYP) =  -1140.45146644     A.U. after   13 cycles
 SCF Done:  E(UB3LYP) =  -1140.45150923     A.U. after   11 cycles
 SCF Done:  E(UB3LYP) =  -1140.45152636     A.U. after   10 cycles
 SCF Done:  E(UB3LYP) =  -1140.45152693     A.U. after   10 cycles
 SCF Done:  E(UB3LYP) =  -1140.45152774     A.U. after    9 cycles
 Optimization completed.
    -- Stationary point found.
 Normal termination of Gaussian 16 at Thu Dec 21 19:36:39 2023.

 ----------------------------------------------------------------------
 #P Geom=AllCheck Guess=TCheck SCRF=Check GenChk UB3LYP/6-311++G(d,p) F
 req
 ----------------------------------------------------------------------

 Structure from the checkpoint file:  "208.chk"
 --------
 Oxidized
 --------
 Charge =  0 Multiplicity = 1

                          Input orientation:
 ---------------------------------------------------------------------
 Center     Atomic      Atomic             Coordinates (Angstroms)
 Number     Number       Type             X           Y           Z
 ---------------------------------------------------------------------
      1          8           0        4.555965    1.491136   -1.330362
      2          6           0        3.520611    0.881856   -0.675598
      3          6           0        2.243740    1.140330   -1.184641
      4          6           0        1.128661    0.573774   -0.596455
      5          6           0       -0.209062    0.866331   -1.157968
      6          8           0       -0.342108    1.610047   -2.144562
      7          6           0       -1.368540    0.253759   -0.515300
      8          6           0       -2.656895    0.507828   -1.019548
      9          8           0       -2.892819    1.299284   -2.083115
     10          6           0       -3.792826   -0.065353   -0.424922
     11          8           0       -5.024354    0.186084   -0.918127
     12          6           0       -3.637820   -0.901532    0.685916
     13          8           0       -4.766580   -1.429024    1.221892
     14          6           0       -2.360655   -1.159069    1.193158
     15          6           0       -1.235653   -0.594004    0.607631
     16          6           0        0.099314   -0.887141    1.169025
     17          8           0        0.221897   -1.632127    2.156979
     18          6           0        1.264785   -0.275745    0.529079
     19          6           0        2.553372   -0.535269    1.041032
     20          8           0        2.766971   -1.322357    2.095609
     21          6           0        3.688223    0.049361    0.432207
     22          8           0        4.887497   -0.264392    1.003222
     23          1           0        5.416379    1.289032   -0.952563
     24          1           0        2.137046    1.788672   -2.044141
     25          1           0       -2.008905    1.628333   -2.393615
     26          1           0       -4.924803    0.778834   -1.677474
     27          1           0       -4.539932   -1.984370    1.975957
     28          1           0       -2.230676   -1.805971    2.053887
     29          1           0        1.876084   -1.642003    2.391703
     30          1           0        5.631084    0.153696    0.561093
 ---------------------------------------------------------------------

 SCF Done:  E(UB3LYP) =  -1140.45152774     A.U. after    2 cycles

 Alpha  occ. eigenvalues --  -19.19827 -19.19533 -19.18260 -19.17560 -19.17264
 Alpha  occ. eigenvalues --  -19.16298 -19.13791 -19.13628 -10.28949 -10.28834
 Alpha  occ. eigenvalues --  -10.27730 -10.27470 -10.27176 -10.27111 -10.27050
 Alpha  occ. eigenvalues --  -10.26229 -10.21468 -10.21426 -10.21017 -10.20968
 Alpha  occ. eigenvalues --  -10.20428 -10.20220  -1.12026  -1.11108  -1.09985
 Alpha  occ. eigenvalues --   -1.09626  -1.08650  -1.07892  -1.05972  -1.05836
 Alpha  occ. eigenvalues --   -0.89992  -0.88355  -0.81891  -0.78564  -0.77741
 Alpha  occ. eigenvalues --   -0.77649  -0.71124  -0.69509  -0.67784  -0.65710
 Alpha  occ. eigenvalues --   -0.63974  -0.61137  -0.60495  -0.58345  -0.57822
 Alpha  occ. eigenvalues --   -0.56210  -0.55132  -0.52836  -0.51194  -0.50521
 Alpha  occ. eigenvalues --   -0.48990  -0.48514  -0.48035  -0.47507  -0.46358
 Alpha  occ. eigenvalues --   -0.45049  -0.44571  -0.44329  -0.44141  -0.43559
 Alpha  occ. eigenvalues --   -0.43437  -0.42091  -0.41041  -0.40396  -0.40100
 Alpha  occ. eigenvalues --   -0.39617  -0.39439  -0.39360  -0.38488  -0.38221
 Alpha  occ. eigenvalues --   -0.34593  -0.34175  -0.29920  -0.28508  -0.26787
 Alpha  occ. eigenvalues --   -0.25658  -0.24632  -0.24031
 Alpha virt. eigenvalues --   -0.12136  -0.06675  -0.05752  -0.02737  -0.02042
 Alpha virt. eigenvalues --   -0.01667  -0.00387   0.00576   0.01546   0.03205
 Alpha virt. eigenvalues --    0.03318   0.03421   0.03624   0.04121   0.04982

  Beta  occ. eigenvalues --  -19.19827 -19.19533 -19.18260 -19.17560 -19.17264
  Beta  occ. eigenvalues --  -19.16298 -19.13791 -19.13628 -10.28949 -10.28834
  Beta  occ. eigenvalues --  -10.27730 -10.27470 -10.27176 -10.27111 -10.27050
  Beta  occ. eigenvalues --  -10.26229 -10.21468 -10.21426 -10.21017 -10.20968
  Beta  occ. eigenvalues --  -10.20428 -10.20220  -1.12026  -1.11108  -1.09985
  Beta  occ. eigenvalues --   -1.09626  -1.08650  -1.07892  -1.05972  -1.05836
  Beta  occ. eigenvalues --   -0.89992  -0.88355  -0.81891  -0.78564  -0.77741
  Beta  occ. eigenvalues --   -0.77649  -0.71124  -0.69509  -0.67784  -0.65710
  Beta  occ. eigenvalues --   -0.63974  -0.61137  -0.60495  -0.58345  -0.57822
  Beta  occ. eigenvalues --   -0.56210  -0.55132  -0.52836  -0.51194  -0.50521
  Beta  occ. eigenvalues --   -0.48990  -0.48514  -0.48035  -0.47507  -0.46358
  Beta  occ. eigenvalues --   -0.45049  -0.44571  -0.44329  -0.44141  -0.43559
  Beta  occ. eigenvalues --   -0.43437  -0.42091  -0.41041  -0.40396  -0.40100
  Beta  occ. eigenvalues --   -0.39617  -0.39439  -0.39360  -0.38488  -0.38221
  Beta  occ. eigenvalues --   -0.34593  -0.34175  -0.29920  -0.28508  -0.26787
  Beta  occ. eigenvalues --   -0.25658  -0.24632  -0.24031
  Beta virt. eigenvalues --   -0.12136  -0.06675  -0.05752  -0.02737  -0.02042
  Beta virt. eigenvalues --   -0.01667  -0.00387   0.00576   0.01546   0.03205
  Beta virt. eigenvalues --    0.03318   0.03421   0.03624   0.04121   0.04982

 Mulliken charges and spin densities:
               1          2
     1  O   -0.212177  -0.000000
     2  C   -0.217062   0.000000
     3  C   -0.330516   0.000000
     4  C    0.655886   0.000000
     5  C   -0.610117   0.000000
     6  O   -0.291597   0.000000
     7  C    0.738218   0.000000
     8  C   -0.105469  -0.000000
     9  O   -0.364926  -0.000000
    10  C   -0.202889  -0.000000
    11  O   -0.240342   0.000000
    12  C   -0.295099   0.000000
    13  O   -0.217957  -0.000000
    14  C    0.018842  -0.000000
    15  C    0.788114   0.000000
    16  C   -0.660056   0.000000
    17  O   -0.299040   0.000000
    18  C    0.614722   0.000000
    19  C   -0.372807  -0.000000
    20  O   -0.314135  -0.000000
    21  C   -0.029026  -0.000000
    22  O   -0.207238   0.000000
    23  H    0.238466  -0.000000
    24  H    0.214385   0.000000
    25  H    0.356067  -0.000000
    26  H    0.301851  -0.000000
    27  H    0.278614   0.000000
    28  H    0.160994  -0.000000
    29  H    0.373594   0.000000
    30  H    0.230702  -0.000000
 Sum of Mulliken charges =  -0.00000   0.00000

 Dipole moment (field-independent basis, Debye):
    X=              2.8973    Y=              0.2964    Z=              0.0026  Tot=              2.9124
 Quadrupole moment (field-independent basis, Debye-Ang):
   XX=           -106.9962   YY=           -126.5182   ZZ=           -129.7189
   XY=              9.2718   XZ=             -9.4992   YZ=              1.8115

  Exact polarizability: 344.645  19.803 141.767   8.450 -64.763 175.590
 Approx polarizability: 524.355  23.368 259.823  20.510-145.795 338.347

 ******    2 imaginary frequencies (negative Signs) ******

                      1                      2                      3
                      A                      A                      A
 Frequencies --   -583.6098              -148.4796                35.5816
 Red. masses --      1.0538                 1.2811                 8.7111
 Frc consts  --      0.2115                 0.0166                 0.0065
 IR Inten    --      0.7820               191.6593                 2.2898

                      4                      5                      6
                      A                      A                      A
 Frequencies --     63.2796                99.3796               123.6134
 Red. masses --      8.2919                11.2654                 6.0135
 Frc consts  --      0.0196                 0.0656                 0.0541
 IR Inten    --      0.1975                 0.1952                 9.1051

                      7                      8                      9
                      A                      A                      A
 Frequencies --    138.5512               146.4156               150.2789
 Red. masses --      7.7234                 9.8131                 7.4017
 Frc consts  --      0.0874                 0.1239                 0.0985
 IR Inten    --      3.6138                 1.9385                 0.0357

                     10                     11                     12
                      A                      A                      A
 Frequencies --    185.3623               259.9634               267.2336
 Red. masses --      9.9559                 7.7430                 5.1591
 Frc consts  --      0.2015                 0.3083                 0.2171
 IR Inten    --      0.0001                 2.3749                 5.9227

                     13                     14                     15
                      A                      A                      A
 Frequencies --    267.8539               277.0410               303.3919
 Red. masses --      7.5751                 6.1656                 1.3005
 Frc consts  --      0.3202                 0.2788                 0.0705
 IR Inten    --      4.3985                 2.2542                78.8830

                     16                     17                     18
                      A                      A                      A
 Frequencies --    310.8509               348.6799               351.7206
 Red. masses --      6.5975                 6.1655                 4.2576
 Frc consts  --      0.3756                 0.4416                 0.3103
 IR Inten    --     14.0318                16.0521                 0.3561

                     19                     20                     21
                      A                      A                      A
 Frequencies --    354.2302               365.2976               377.1471
 Red. masses --      5.7949                 9.4541                 4.7798
 Frc consts  --      0.4284                 0.7433                 0.4006
 IR Inten    --      4.6139                 0.9739                 0.1004

                     22                     23                     24
                      A                      A                      A
 Frequencies --    377.8905               415.6280               446.2166
 Red. masses --      6.8597                12.9221                 1.2319
 Frc consts  --      0.5771                 1.3152                 0.1445
 IR Inten    --      1.9546                21.5673               147.0352

                     25                     26                     27
                      A                      A                      A
 Frequencies --    457.2899               474.9253               493.8067
 Red. masses --      7.8622                12.8278                 8.1462
 Frc consts  --      0.9687                 1.7047                 1.1704
 IR Inten    --     15.1843                 0.8141                 0.0278

                     28                     29                     30
                      A                      A                      A
 Frequencies --    526.4968               539.6673               547.6566
 Red. masses --      9.6387                 9.8874                 7.3049
 Frc consts  --      1.5742                 1.6966                 1.2909
 IR Inten    --      1.3851                 0.6077                 0.0417

                     31                     32                     33
                      A                      A                      A
 Frequencies --    569.6767               600.4302               613.3693
 Red. masses --      7.3906                 6.4008                10.4341
 Frc consts  --      1.4131                 1.3596                 2.3129
 IR Inten    --      0.9647                 3.1108                 1.1383

                     34                     35                     36
                      A                      A                      A
 Frequencies --    619.1333               641.4709               645.0258
 Red. masses --      5.2242                 7.4668                11.1451
 Frc consts  --      1.1799                 1.8102                 2.7321
 IR Inten    --      8.3143                27.8669                 0.5309

                     37                     38                     39
                      A                      A                      A
 Frequencies --    653.9463               695.4975               716.8977
 Red. masses --      7.2689                 5.4322                11.0374
 Frc consts  --      1.8315                 1.5482                 3.3422
 IR Inten    --      0.0296                95.5273                 0.1778

                     40                     41                     42
                      A                      A                      A
 Frequencies --    747.4038               788.1318               801.9543
 Red. masses --      4.8217                 6.9145                 1.0722
 Frc consts  --      1.5869                 2.5305                 0.4063
 IR Inten    --     11.4686                53.8794                59.5162

                     43                     44                     45
                      A                      A                      A
 Frequencies --    810.6701               824.9427               869.9120
 Red. masses --      1.0833                 6.4874                 1.3641
 Frc consts  --      0.4195                 2.6012                 0.6082
 IR Inten    --    132.9142                 5.1437                 8.3705

                     46                     47                     48
                      A                      A                      A
 Frequencies --    873.7880               888.9387              1009.4155
 Red. masses --      6.8383                 1.3885                 3.3074
 Frc consts  --      3.0762                 0.6465                 1.9855
 IR Inten    --     11.8366                15.8984                21.9080

                     49                     50                     51
                      A                      A                      A
 Frequencies --   1035.1916              1079.6085              1115.8679
 Red. masses --      3.5400                 6.2265                 3.3593
 Frc consts  --      2.2351                 4.2759                 2.4644
 IR Inten    --     51.5343                88.4708                33.6887

                     52                     53                     54
                      A                      A                      A
 Frequencies --   1168.3575              1189.8927              1197.4793
 Red. masses --      1.6513                 3.1452                 1.3986
 Frc consts  --      1.3281                 2.6237                 1.1816
 IR Inten    --    351.2325               155.2147                 0.1937

                     55                     56                     57
                      A                      A                      A
 Frequencies --   1209.4122              1223.8043              1254.7237
 Red. masses --      2.1424                 1.9534                 1.8862
 Frc consts  --      1.8463                 1.7237                 1.7496
 IR Inten    --    629.4535               167.3782                17.4380

                     58                     59                     60
                      A                      A                      A
 Frequencies --   1315.1668              1330.8554              1349.8085
 Red. masses --      2.6909                 5.7865                 2.6723
 Frc consts  --      2.7423                 6.0385                 2.8687
 IR Inten    --    324.3323               212.1120                63.0437

                     61                     62                     63
                      A                      A                      A
 Frequencies --   1361.2428              1365.9996              1378.9811
 Red. masses --      3.5734                 2.5417                 2.4242
 Frc consts  --      3.9012                 2.7943                 2.7160
 IR Inten    --    579.4017               614.6855               305.2008

                     64                     65                     66
                      A                      A                      A
 Frequencies --   1404.3800              1433.2172              1452.1815
 Red. masses --      4.1934                 4.9898                 4.3845
 Frc consts  --      4.8728                 6.0389                 5.4477
 IR Inten    --    209.5484               263.9237                13.5094

                     67                     68                     69
                      A                      A                      A
 Frequencies --   1476.2431              1485.3703              1520.0749
 Red. masses --      4.0163                 4.8274                 4.7994
 Frc consts  --      5.1569                 6.2752                 6.5338
 IR Inten    --    521.2190                 8.7702                40.5482

                     70                     71                     72
                      A                      A                      A
 Frequencies --   1531.0973              1605.6166              1612.4562
 Red. masses --      5.8095                 6.1756                 4.6804
 Frc consts  --      8.0241                 9.3802                 7.1699
 IR Inten    --     50.1391                24.6685                76.6888

                     73                     74                     75
                      A                      A                      A
 Frequencies --   1631.3990              1646.5134              1665.3254
 Red. masses --      4.1644                 5.8575                 9.6983
 Frc consts  --      6.5302                 9.3561                15.8469
 IR Inten    --    234.4623               357.2322               136.8569

                     76                     77                     78
                      A                      A                      A
 Frequencies --   1676.8620              3178.6787              3213.6981
 Red. masses --      7.0404                 1.0905                 1.0911
 Frc consts  --     11.6639                 6.4919                 6.6393
 IR Inten    --      1.4992                 4.8822                 3.2077

                     79                     80                     81
                      A                      A                      A
 Frequencies --   3250.7312              3264.9524              3755.6956
 Red. masses --      1.0687                 1.0691                 1.0653
 Frc consts  --      6.6541                 6.7148                 8.8533
 IR Inten    --    170.1243               429.4063               140.1007

                     82                     83                     84
                      A                      A                      A
 Frequencies --   3828.7014              3851.5124              3857.8817
 Red. masses --      1.0663                 1.0667                 1.0664
 Frc consts  --      9.2094                 9.3226                 9.3511
 IR Inten    --    110.2762                34.6320               108.4888

 - Thermochemistry -
 -------------------
 Temperature   298.150 Kelvin.  Pressure   1.00000 Atm.
 Atom     1 has atomic number  8 and mass  15.99491

 Molecular mass:   304.02192 amu.
 Principal axes and moments of inertia in atomic units:
                           1         2         3
     Eigenvalues --  2905.42765********************
           X            0.99665  -0.00453  -0.08163
           Y            0.06200  -0.60898   0.79076
           Z            0.05330   0.79317   0.60666
 This molecule is an asymmetric top.
 Rotational symmetry number  1.
 Warning -- assumption of classical behavior for rotation
           may cause significant error
 Rotational temperatures (Kelvin)      0.02981     0.00839     0.00655
 Rotational constants (GHZ):           0.62116     0.17474     0.13638
    2 imaginary frequencies ignored.
 Zero-point vibrational energy     532308.5 (Joules/Mol)
                                  127.22479 (Kcal/Mol)
 Warning -- explicit consideration of  32 degrees of freedom as
           vibrations may cause significant error
 Vibrational temperatures:     51.19    91.05   142.99   177.85   199.34
          (Kelvin)            210.66   216.22   266.69   374.03   384.49
                              385.38   398.60   436.51   447.25   501.67
                              506.05   509.66   525.58   542.63   543.70
                              598.00   642.01   657.94   683.31   710.48
                              757.51   776.46   787.96   819.64   863.89
                              882.50   890.79   922.93   928.05   940.88
                             1000.67  1031.46  1075.35  1133.95  1153.83
                             1166.37  1186.91  1251.61  1257.19  1278.98
                             1452.32  1489.41  1553.32  1605.49  1681.01
                             1711.99  1722.91  1740.07  1760.78  1805.27
                             1892.23  1914.80  1942.07  1958.52  1965.37
                             1984.05  2020.59  2062.08  2089.37  2123.98
                             2137.12  2187.05  2202.91  2310.12  2319.96
                             2347.22  2368.97  2396.03  2412.63  4573.41
                             4623.79  4677.08  4697.54  5403.61  5508.65
                             5541.47  5550.63

 Zero-point correction=                           0.202746 (Hartree/Particle)
 Thermal correction to Energy=                    0.220031
 Thermal correction to Enthalpy=                  0.220975
 Thermal correction to Gibbs Free Energy=         0.158482
 Sum of electronic and zero-point Energies=          -1140.248782
 Sum of electronic and thermal Energies=             -1140.231497
 Sum of electronic and thermal Enthalpies=           -1140.230553
 Sum of electronic and thermal Free Energies=        -1140.293046

                     E (Thermal)             CV                S
                      KCal/Mol        Cal/Mol-Kelvin    Cal/Mol-Kelvin
 Total                  138.072             68.688            131.528
 Electronic               0.000              0.000              0.000
 Translational            0.889              2.981             43.032
 Rotational               0.889              2.981             34.339
 Vibrational            136.294             62.726             54.156
 Vibration     1          0.594              1.982              5.491
 Vibration     2          0.597              1.972              4.352
 Vibration     3          0.604              1.950              3.466
 Vibration     4          0.610              1.929              3.043
 Vibration     5          0.614              1.915              2.824
 Vibration     6          0.617              1.907              2.718
 Vibration     7          0.618              1.902              2.669
 Vibration     8          0.631              1.860              2.274
 Vibration     9          0.668              1.746              1.662
 Vibration    10          0.672              1.733              1.614
 Vibration    11          0.673              1.732              1.610
 Vibration    12          0.678              1.716              1.552
 Vibration    13          0.695              1.667              1.398
 Vibration    14          0.700              1.653              1.358
 Vibration    15          0.726              1.578              1.172
 Vibration    16          0.728              1.572              1.158
 Vibration    17          0.730              1.567              1.147
 Vibration    18          0.739              1.544              1.099
 Vibration    19          0.748              1.519              1.051
 Vibration    20          0.748              1.517              1.048
 Vibration    21          0.779              1.436              0.907
 Vibration    22          0.805              1.369              0.807
 Vibration    23          0.815              1.345              0.774
 Vibration    24          0.832              1.306              0.724
 Vibration    25          0.849              1.264              0.674
 Vibration    26          0.881              1.191              0.595
 Vibration    27          0.895              1.162              0.566
 Vibration    28          0.903              1.145              0.549
 Vibration    29          0.926              1.097              0.505
 Vibration    30          0.959              1.031              0.449
 Vibration    31          0.973              1.004              0.427
 Vibration    32          0.979              0.991              0.418

                           ! Non-Optimized Parameters !
 Normal termination of Gaussian 16 at Thu Dec 21 20:28:26 2023.
