 Q-Chem 5.4, Q-Chem, Inc., Pleasanton, CA (2021)
 Q-Chem 5.4.0 for Intel X86 EM64T Linux

User input:
--------------------------------------------------------------
$molecule
-1 2
O                  3.8859540000     -2.4581060000     -0.0750130000
C                  3.0215220000     -1.5497150000     -0.0033630000
C                  3.3894900000     -0.1581880000      0.2297870000
C                  4.7497580000      0.1880290000      0.3874970000
C                  5.1307510000      1.4963710000      0.6046700000
C                  4.1493980000      2.5104570000      0.6696810000
C                  2.8152930000      2.1913450000      0.5162980000
C                  2.4006630000      0.8578610000      0.2956540000
C                  0.9670200000      0.5823320000      0.1407140000
O                  0.1471840000      1.5376110000      0.1810320000
C                  0.5725030000     -0.8176280000     -0.0656400000
C                 -0.7988210000     -1.2417980000     -0.1993340000
C                 -1.0865270000     -2.5792540000     -0.4269380000
C                 -0.0795850000     -3.5561600000     -0.5228450000
C                  1.2356160000     -3.1793940000     -0.3787130000
C                  1.5877730000     -1.8334330000     -0.1488280000
N                 -1.9548490000     -0.3910920000     -0.1118200000
C                 -2.2686630000      0.1834010000      1.1978160000
C                 -3.7819260000      0.4676030000      1.2894950000
C                 -4.3459690000      0.9792430000     -0.0597810000
C                 -3.2257980000      1.5665670000     -0.9252770000
C                 -2.1794060000      0.4953610000     -1.2648570000
H                  5.4770330000     -0.6136230000      0.3302410000
H                  6.1804740000      1.7476980000      0.7247380000
H                  4.4459690000      3.5413340000      0.8401900000
H                  2.0434680000      2.9504340000      0.5603210000
H                 -2.1326040000     -2.8498070000     -0.5215500000
H                 -0.3435140000     -4.5944140000     -0.7008820000
H                  2.0467110000     -3.8954680000     -0.4344800000
H                 -1.6886530000      1.0937620000      1.3927020000
H                 -1.9820290000     -0.5487140000      1.9569900000
H                 -3.9494680000      1.2120500000      2.0776810000
H                 -4.3174130000     -0.4398250000      1.5886630000
H                 -5.1348790000      1.7207540000      0.1102720000
H                 -4.8097510000      0.1485180000     -0.6037930000
H                 -3.6267980000      1.9845620000     -1.8552780000
H                 -2.7385400000      2.3892800000     -0.3921100000
H                 -1.2547230000      0.9866950000     -1.5863190000
H                 -2.5466630000     -0.1246470000     -2.0964190000
$end
$rem
MAX_SCF_CYCLES=200
BASIS  =  6-311++G(d,p)
GUI  =  2
JOB_TYPE  =  SP
METHOD  =  B3LYP
SOLVENT_METHOD = COSMO
$end
$solvent
dielectric 37.219
opticaldielectric 1.43
$end

--------------------------------------------------------------

             Standard Nuclear Orientation (Angstroms)
    I     Atom           X                Y                Z
 ----------------------------------------------------------------
    1      O       3.4043718377    -2.2597926663     0.0249328938
    2      C       2.5309085634    -1.3573612525     0.0097649732
    3      C       2.8887377278     0.0560468465     0.0282743797
    4      C       4.2495836112     0.4319673086     0.0712857122
    5      C       4.6209097730     1.7608793065     0.0850097939
    6      C       3.6288070024     2.7660775829     0.0540408781
    7      C       2.2938947778     2.4178118671     0.0102766425
    8      C       1.8891800865     1.0632483435    -0.0017678258
    9      C       0.4541348686     0.7571088332    -0.0484444565
   10      O      -0.3769080640     1.7019240819    -0.1032747920
   11      C       0.0711396690    -0.6611011263    -0.0380124859
   12      C      -1.2985054026    -1.1109175727    -0.0458438325
   13      C      -1.5767040904    -2.4693641987    -0.0702391116
   14      C      -0.5610036223    -3.4418826843    -0.0762416996
   15      C       0.7537570817    -3.0379876249    -0.0487936610
   16      C       1.0963119432    -1.6702789823    -0.0263901993
   17      N      -2.4616535814    -0.2657291349    -0.0234171966
   18      C      -2.7234822065     0.4843850300     1.2063967718
   19      C      -4.2349545536     0.7663945793     1.3291268865
   20      C      -4.8677070484     1.0789541567    -0.0501470205
   21      C      -3.7971270273     1.5479889395    -1.0414495309
   22      C      -2.7518116929     0.4482157882    -1.2771356690
   23      H       4.9851438658    -0.3638743278     0.0922691757
   24      H       5.6712360405     2.0350561991     0.1187992261
   25      H       3.9177376031     3.8130476536     0.0644257292
   26      H       1.5138534905     3.1692952841    -0.0157277624
   27      H      -2.6219395902    -2.7589726027    -0.0763357132
   28      H      -0.8175670491    -4.4969493358    -0.0945891198
   29      H       1.5718537436    -3.7482147067    -0.0422840741
   30      H      -2.1485565804     1.4177517098     1.2442975481
   31      H      -2.3916398004    -0.1315506069     2.0460398473
   32      H      -4.3770800747     1.6127470428     2.0124984341
   33      H      -4.7428002835    -0.0943446174     1.7773390510
   34      H      -5.6587775578     1.8305902599     0.0517656459
   35      H      -5.3437137977     0.1763560367    -0.4499982849
   36      H      -4.2464295239     1.8280176552    -2.0006856150
   37      H      -3.2980512475     2.4413219572    -0.6523177096
   38      H      -1.8501427088     0.8970138897    -1.7076689134
   39      H      -3.1476784130    -0.2853497135    -1.9954351739
 ----------------------------------------------------------------

    9    -939.7673646232      7.64e-06  Convergence criterion met
 Total energy in the final basis set =     -939.7673646232
    4    -939.8427570765      6.60e-06  Convergence criterion met
 Total energy in the final basis set =     -939.8427570765

                    Orbital Energies (a.u.)
 --------------------------------------------------------------

 Alpha MOs
 -- Occupied --
-19.0784 -19.0714 -14.2861 -10.2250 -10.2247 -10.2021 -10.1776 -10.1745
-10.1730 -10.1724 -10.1718 -10.1715 -10.1713 -10.1707 -10.1690 -10.1690
-10.1680 -10.1653 -10.1639 -10.1539 -10.1535 -10.1520  -1.0061  -1.0002
 -0.9146  -0.8583  -0.8443  -0.7865  -0.7797  -0.7495  -0.7370  -0.7368
 -0.7306  -0.6662  -0.6413  -0.6256  -0.6147  -0.6136  -0.5783  -0.5538
 -0.5330  -0.5255  -0.5127  -0.4842  -0.4763  -0.4696  -0.4596  -0.4531
 -0.4509  -0.4343  -0.4237  -0.4225  -0.4151  -0.4089  -0.4041  -0.4009
 -0.3954  -0.3876  -0.3802  -0.3719  -0.3692  -0.3574  -0.3523  -0.3486
 -0.3439  -0.3348  -0.3345  -0.3192  -0.3086  -0.3003  -0.2677  -0.2564
 -0.2497  -0.2479  -0.2471  -0.2344  -0.1934  -0.1418

 Beta MOs
 -- Occupied --
-19.0731 -19.0657 -14.2861 -10.2233 -10.2229 -10.2019 -10.1768 -10.1745
-10.1723 -10.1722 -10.1714 -10.1709 -10.1707 -10.1700 -10.1690 -10.1685
-10.1680 -10.1653 -10.1634 -10.1539 -10.1535 -10.1520  -0.9968  -0.9902
 -0.9142  -0.8559  -0.8431  -0.7848  -0.7770  -0.7474  -0.7368  -0.7351
 -0.7290  -0.6590  -0.6402  -0.6244  -0.6144  -0.6114  -0.5776  -0.5520
 -0.5305  -0.5243  -0.5123  -0.4829  -0.4753  -0.4674  -0.4590  -0.4521
 -0.4499  -0.4337  -0.4221  -0.4116  -0.4102  -0.4071  -0.4022  -0.4005
 -0.3924  -0.3849  -0.3708  -0.3700  -0.3619  -0.3540  -0.3518  -0.3439
 -0.3425  -0.3332  -0.3248  -0.3190  -0.3084  -0.3001  -0.2519  -0.2465
 -0.2428  -0.2423  -0.2412  -0.2294  -0.1932

          Ground-State Mulliken Net Atomic Charges

     Atom                 Charge (a.u.)    Spin (a.u.)
  --------------------------------------------------------
      1 O                    -0.497358       0.194621
      2 C                    -0.258248       0.112745
      3 C                     0.385326       0.006557
      4 C                    -0.100915       0.027270
      5 C                    -0.409860       0.029065
      6 C                    -0.427938       0.042389
      7 C                     0.044344       0.029074
      8 C                    -0.015318       0.021807
      9 C                    -0.121134       0.091390
     10 O                    -0.401523       0.218580
     11 C                    -0.055642       0.076108
     12 C                    -1.046731       0.029507
     13 C                     0.073424       0.028927
     14 C                    -0.319395       0.045247
     15 C                    -0.269731       0.028684
     16 C                     0.361721       0.030963
     17 N                     0.600313      -0.005268
     18 C                    -0.104747       0.000965
     19 C                    -0.414835      -0.000667
     20 C                    -0.366451      -0.000516
     21 C                    -0.367741       0.001467
     22 C                    -0.111547       0.004431
     23 H                     0.170650      -0.001362
     24 H                     0.203249      -0.002705
     25 H                     0.204405      -0.003197
     26 H                     0.164326      -0.001449
     27 H                     0.161468      -0.002922
     28 H                     0.216971      -0.003563
     29 H                     0.173323      -0.001158
     30 H                     0.151803       0.001777
     31 H                     0.164534       0.000717
     32 H                     0.147569      -0.000066
     33 H                     0.148067       0.000025
     34 H                     0.169956      -0.000015
     35 H                     0.142089       0.000013
     36 H                     0.178772       0.000100
     37 H                     0.142004      -0.000247
     38 H                     0.133855      -0.000118
     39 H                     0.150945       0.000825
  --------------------------------------------------------
  Sum of atomic charges =    -1.000000

                    Cartesian Multipole Moments
 -----------------------------------------------------------------
    Charge (ESU x 10^10)
                -4.8032
    Dipole Moment (Debye)
         X      -7.1297      Y       2.6226      Z       0.1796
       Tot       7.5989
    Quadrupole Moments (Debye-Ang)
        XX    -160.7827     XY      20.1976     YY    -147.7181
        XZ       0.2771     YZ       0.4573     ZZ    -137.1268

 Total job time:  168.34s(wall), 1264.58s(cpu)
        *  Thank you very much for using Q-Chem.  Have a nice day.  *
