 Gaussian 16, Revision A.03,
 Gaussian 16:  ES64L-G16RevA.03 25-Dec-2016

 ----------------------------------------------------------------
 #P UB3LYP/6-311++G(d,p) SCRF=(PCM,Solvent=n,n-DiMethylFormamide)
 ----------------------------------------------------------------

 ------------------
 Quinone PCM in DMF
 ------------------
 Symbolic Z-matrix:
 Charge =  0 Multiplicity = 1

                         Standard orientation:
 ---------------------------------------------------------------------
 Center     Atomic      Atomic             Coordinates (Angstroms)
 Number     Number       Type             X           Y           Z
 ---------------------------------------------------------------------
      1          6           0        4.151639   -0.008373    0.062929
      2          6           0        4.799085   -1.221905    0.047962
      3          6           0        4.057989   -2.425192   -0.001021
      4          6           0        2.735335    0.053704    0.029426
      5          6           0        1.985109   -1.163232   -0.020633
      6          6           0        2.682634   -2.397424   -0.034552
      7          6           0        2.032209    1.282310    0.044801
      8          6           0        0.656822    1.324948    0.012111
      9          6           0       -0.095203    0.108529   -0.040073
     10          6           0        0.568356   -1.099407   -0.054726
     11          6           0       -0.029576    2.646715    0.033561
     12          6           0       -1.583242    2.641091    0.004903
     13          6           0       -2.249517    1.350594   -0.051770
     14          6           0       -1.565845    0.174532   -0.076008
     15          8           0        0.570302    3.697357    0.072615
     16          8           0       -2.185485    3.697853    0.029465
     17          1           0        4.715878    0.917096    0.100802
     18          1           0        5.881978   -1.260761    0.073902
     19          1           0        4.581015   -3.374684   -0.011945
     20          1           0        2.115346   -3.321199   -0.071719
     21          1           0        2.576165    2.219692    0.083642
     22          1           0        0.000679   -2.020272   -0.091335
     23          1           0       -3.330045    1.387236   -0.072371
     24          8           0       -2.143344   -1.039800   -0.131939
     25          6           0       -3.582070   -1.138739   -0.186238
     26          6           0       -3.938988   -2.585691   -0.307646
     27          6           0       -4.757507   -3.215609    0.529387
     28          1           0       -3.935391   -0.575850   -1.058289
     29          1           0       -4.014434   -0.697102    0.716632
     30          1           0       -3.505855   -3.110126   -1.155306
     31          1           0       -5.197539   -2.711961    1.384588
     32          1           0       -5.022952   -4.256458    0.385801
 ---------------------------------------------------------------------

 SCF Done:  E(UB3LYP) =  -880.923845574     A.U. after   15 cycles

 The electronic state is 1-A.
 Alpha  occ. eigenvalues --  -19.19040 -19.14170 -19.12819 -10.28392 -10.28357
 Alpha  occ. eigenvalues --  -10.27570 -10.24702 -10.21648 -10.20964 -10.20880
 Alpha  occ. eigenvalues --  -10.20825 -10.20656 -10.20283 -10.19519 -10.19492
 Alpha  occ. eigenvalues --  -10.19413 -10.19331 -10.19097 -10.18923 -10.18148
 Alpha  occ. eigenvalues --   -1.10626  -1.08273  -1.05315  -0.90683  -0.86764
 Alpha  occ. eigenvalues --   -0.82712  -0.80719  -0.80108  -0.76485  -0.75800
 Alpha  occ. eigenvalues --   -0.72341  -0.69007  -0.66133  -0.63697  -0.62098
 Alpha  occ. eigenvalues --   -0.60038  -0.58374  -0.55927  -0.55339  -0.54525
 Alpha  occ. eigenvalues --   -0.51962  -0.50816  -0.49217  -0.48475  -0.47286
 Alpha  occ. eigenvalues --   -0.46745  -0.46190  -0.45706  -0.44914  -0.44676
 Alpha  occ. eigenvalues --   -0.43755  -0.43499  -0.42728  -0.41741  -0.39820
 Alpha  occ. eigenvalues --   -0.39452  -0.38870  -0.38465  -0.36964  -0.36094
 Alpha  occ. eigenvalues --   -0.35429  -0.34590  -0.31224  -0.31195  -0.29003
 Alpha  occ. eigenvalues --   -0.28583  -0.26311  -0.25806  -0.24298
 Alpha virt. eigenvalues --   -0.12199  -0.08150  -0.03107  -0.02082  -0.01665
 Alpha virt. eigenvalues --   -0.00716  -0.00041   0.00572   0.01338   0.01514
 Alpha virt. eigenvalues --    0.01772   0.02179   0.02838   0.03517   0.03694

  Beta  occ. eigenvalues --  -19.19040 -19.14170 -19.12819 -10.28392 -10.28357
  Beta  occ. eigenvalues --  -10.27570 -10.24702 -10.21648 -10.20964 -10.20880
  Beta  occ. eigenvalues --  -10.20825 -10.20656 -10.20283 -10.19519 -10.19492
  Beta  occ. eigenvalues --  -10.19413 -10.19331 -10.19097 -10.18923 -10.18148
  Beta  occ. eigenvalues --   -1.10626  -1.08273  -1.05315  -0.90683  -0.86764
  Beta  occ. eigenvalues --   -0.82712  -0.80719  -0.80108  -0.76485  -0.75800
  Beta  occ. eigenvalues --   -0.72341  -0.69007  -0.66133  -0.63697  -0.62098
  Beta  occ. eigenvalues --   -0.60038  -0.58374  -0.55927  -0.55339  -0.54525
  Beta  occ. eigenvalues --   -0.51962  -0.50816  -0.49217  -0.48475  -0.47286
  Beta  occ. eigenvalues --   -0.46745  -0.46190  -0.45706  -0.44914  -0.44676
  Beta  occ. eigenvalues --   -0.43755  -0.43499  -0.42728  -0.41741  -0.39820
  Beta  occ. eigenvalues --   -0.39452  -0.38870  -0.38465  -0.36964  -0.36094
  Beta  occ. eigenvalues --   -0.35429  -0.34590  -0.31224  -0.31195  -0.29003
  Beta  occ. eigenvalues --   -0.28583  -0.26311  -0.25806  -0.24298
  Beta virt. eigenvalues --   -0.12199  -0.08150  -0.03107  -0.02082  -0.01665
  Beta virt. eigenvalues --   -0.00716  -0.00041   0.00572   0.01338   0.01514
  Beta virt. eigenvalues --    0.01772   0.02179   0.02838   0.03517   0.03694

 Mulliken charges and spin densities:
               1          2
     1  C   -0.129929   0.000000
     2  C   -0.287613   0.000000
     3  C   -0.342448   0.000000
     4  C    0.170711   0.000000
     5  C    0.011247  -0.000000
     6  C   -0.137973  -0.000000
     7  C    0.122226   0.000000
     8  C    0.662760   0.000000
     9  C    0.135909  -0.000000
    10  C   -0.062421   0.000000
    11  C   -0.591777  -0.000000
    12  C   -0.032020  -0.000000
    13  C    0.156472   0.000000
    14  C   -0.493520   0.000000
    15  O   -0.283043   0.000000
    16  O   -0.336036   0.000000
    17  H    0.177969  -0.000000
    18  H    0.200669   0.000000
    19  H    0.206005   0.000000
    20  H    0.179974  -0.000000
    21  H    0.160681  -0.000000
    22  H    0.143049   0.000000
    23  H    0.249131   0.000000
    24  O   -0.021079  -0.000000
    25  C   -0.352469   0.000000
    26  C    0.072729   0.000000
    27  C   -0.467803  -0.000000
    28  H    0.185248  -0.000000
    29  H    0.174639   0.000000
    30  H    0.204646   0.000000
    31  H    0.154272  -0.000000
    32  H    0.169793  -0.000000
 Sum of Mulliken charges =  -0.00000   0.00000

 Dipole moment (field-independent basis, Debye):
    X=              1.3019    Y=            -10.7147    Z=             -0.2924  Tot=             10.7974
 Quadrupole moment (field-independent basis, Debye-Ang):
   XX=            -86.0889   YY=           -143.6163   ZZ=           -117.1366
   XY=             11.4606   XZ=             -0.4399   YZ=              0.1297

 Normal termination of Gaussian 16 at Sat Jan 13 19:19:21 2024.
