 Gaussian 16, Revision A.03,
 Gaussian 16:  ES64L-G16RevA.03 25-Dec-2016

 ----------------------------------------------
 #P UB3LYP/6-311++G(d,p) nosym opt freq SCF=YQC
 ----------------------------------------------

 -------
 Reduced
 -------
 Symbolic Z-matrix:
 Charge = -4 Multiplicity = 1

 SCF Done:  E(UB3LYP) =  -1935.25674786     a.u. after    9 cycles
 SCF Done:  E(UB3LYP) =  -1935.25681593     A.U. after   27 cycles
 SCF Done:  E(UB3LYP) =  -1935.30049771     a.u. after   51 cycles
 SCF Done:  E(UB3LYP) =  -1935.30055967     A.U. after   33 cycles
 SCF Done:  E(UB3LYP) =  -1935.30123537     a.u. after   16 cycles
 SCF Done:  E(UB3LYP) =  -1935.32475535     a.u. after  104 cycles
 SCF Done:  E(UB3LYP) =  -1935.32487251     A.U. after   29 cycles
 SCF Done:  E(UB3LYP) =  -1935.32560504     a.u. after   32 cycles
 SCF Done:  E(UB3LYP) =  -1935.32575745     A.U. after   31 cycles
 SCF Done:  E(UB3LYP) =  -1935.32581457     a.u. after   35 cycles
 SCF Done:  E(UB3LYP) =  -1935.32666655     a.u. after   19 cycles
 SCF Done:  E(UB3LYP) =  -1935.32674253     A.U. after   26 cycles
 SCF Done:  E(UB3LYP) =  -1935.32667383     a.u. after    5 cycles
 SCF Done:  E(UB3LYP) =  -1935.32674911     A.U. after   30 cycles
 SCF Done:  E(UB3LYP) =  -1935.32672866     a.u. after    1 cycles
 SCF Done:  E(UB3LYP) =  -1935.32674953     A.U. after   27 cycles
 SCF Done:  E(UB3LYP) =  -1935.32673849     a.u. after    1 cycles
 SCF Done:  E(UB3LYP) =  -1935.32674964     A.U. after   24 cycles
 Optimization completed.
    -- Stationary point found.
 Normal termination of Gaussian 16 at Tue Jan  9 15:49:11 2024.

 ----------------------------------------------------------------------
 #P Geom=AllCheck Guess=TCheck SCRF=Check GenChk UB3LYP/6-311++G(d,p) F
 req
 ----------------------------------------------------------------------

 Structure from the checkpoint file:  "225-an.chk"
 -------
 Reduced
 -------
 Charge = -4 Multiplicity = 1

                          Input orientation:
 ---------------------------------------------------------------------
 Center     Atomic      Atomic             Coordinates (Angstroms)
 Number     Number       Type             X           Y           Z
 ---------------------------------------------------------------------
      1          8           0        5.896188   -1.625361    1.256534
      2         16           0        5.458467   -0.886523    0.020565
      3          8           0        6.235337    0.391753   -0.145371
      4          8           0        5.505316   -1.745300   -1.203447
      5          6           0        3.720340   -0.405853    0.292718
      6          6           0        3.430085    0.426022    1.415404
      7          6           0        2.131339    0.815501    1.653905
      8          6           0        1.041336    0.426364    0.826924
      9          6           0       -0.294611    0.885429    1.155431
     10          8           0       -0.531804    1.634803    2.178260
     11          6           0       -1.335563    0.427649    0.252649
     12          6           0       -2.693656    0.801905    0.487491
     13          6           0       -3.721146    0.405992   -0.343702
     14          6           0       -3.430855   -0.396601   -1.487635
     15          6           0       -2.130984   -0.784461   -1.729004
     16          6           0       -1.042240   -0.416893   -0.889423
     17          6           0        0.293637   -0.889471   -1.209121
     18          8           0        0.530367   -1.651923   -2.220018
     19          6           0        1.336305   -0.424848   -0.311094
     20          6           0        2.693260   -0.811219   -0.535206
     21         16           0       -5.459329    0.861465   -0.024999
     22          8           0       -5.916143    1.673472   -1.205101
     23          8           0       -6.224904   -0.428952    0.077156
     24          8           0       -5.491172    1.645625    1.249696
     25          1           0        4.237350    0.740170    2.069639
     26          1           0        1.886546    1.448658    2.502445
     27          1           0       -2.899520    1.412739    1.358103
     28          1           0       -4.231306   -0.690180   -2.162275
     29          1           0       -1.888935   -1.395648   -2.594617
     30          1           0        2.896292   -1.444315   -1.390614
 ---------------------------------------------------------------------

 SCF Done:  E(UB3LYP) =  -1935.32674964     a.u. after    1 cycles
 SCF Done:  E(UB3LYP) =  -1935.32674964     A.U. after    2 cycles

 Alpha  occ. eigenvalues --  -88.64408 -88.64006 -18.68999 -18.68888 -18.68884
 Alpha  occ. eigenvalues --  -18.68591 -18.68490 -18.68452 -18.63172 -18.63152
 Alpha  occ. eigenvalues --   -9.79066  -9.79046  -9.78876  -9.78633  -9.77505
 Alpha  occ. eigenvalues --   -9.77181  -9.76935  -9.76865  -9.76657  -9.76555
 Alpha  occ. eigenvalues --   -9.75555  -9.75463  -9.75314  -9.75244  -7.70266
 Alpha  occ. eigenvalues --   -7.69863  -5.66554  -5.66542  -5.66409  -5.66151
 Alpha  occ. eigenvalues --   -5.66137  -5.66009  -0.69955  -0.69571  -0.56576
 Alpha  occ. eigenvalues --   -0.56149  -0.56112  -0.55760  -0.54735  -0.54358
 Alpha  occ. eigenvalues --   -0.44587  -0.44087  -0.37341  -0.34494  -0.34171
 Alpha  occ. eigenvalues --   -0.33049  -0.25837  -0.25223  -0.21727  -0.20741
 Alpha  occ. eigenvalues --   -0.17406  -0.16499  -0.13917  -0.12054  -0.10872
 Alpha  occ. eigenvalues --   -0.08401  -0.06259  -0.05645  -0.05438  -0.05052
 Alpha  occ. eigenvalues --   -0.04622  -0.04302  -0.03705  -0.02234  -0.01844
 Alpha  occ. eigenvalues --   -0.01080   0.00800   0.01051   0.01237   0.03148
 Alpha  occ. eigenvalues --    0.03943   0.04945   0.05666   0.06701   0.06757
 Alpha  occ. eigenvalues --    0.06923   0.07177   0.07346   0.07610   0.08456
 Alpha  occ. eigenvalues --    0.10705   0.10888   0.11038   0.11310   0.11506
 Alpha  occ. eigenvalues --    0.11567   0.14758   0.14960   0.15178   0.16038
 Alpha  occ. eigenvalues --    0.16820   0.17238   0.18984   0.19576   0.28365
 Alpha virt. eigenvalues --    0.30088   0.31117   0.33459   0.33875   0.35343
 Alpha virt. eigenvalues --    0.35616   0.35897   0.37093   0.37722   0.37870
 Alpha virt. eigenvalues --    0.38495   0.38906   0.39871   0.39991   0.40499

  Beta  occ. eigenvalues --  -88.64408 -88.64006 -18.68999 -18.68888 -18.68884
  Beta  occ. eigenvalues --  -18.68591 -18.68490 -18.68452 -18.63172 -18.63152
  Beta  occ. eigenvalues --   -9.79066  -9.79046  -9.78876  -9.78633  -9.77505
  Beta  occ. eigenvalues --   -9.77181  -9.76935  -9.76865  -9.76657  -9.76555
  Beta  occ. eigenvalues --   -9.75555  -9.75463  -9.75314  -9.75244  -7.70266
  Beta  occ. eigenvalues --   -7.69863  -5.66554  -5.66542  -5.66409  -5.66151
  Beta  occ. eigenvalues --   -5.66137  -5.66009  -0.69955  -0.69571  -0.56576
  Beta  occ. eigenvalues --   -0.56149  -0.56112  -0.55760  -0.54735  -0.54358
  Beta  occ. eigenvalues --   -0.44587  -0.44087  -0.37341  -0.34494  -0.34171
  Beta  occ. eigenvalues --   -0.33049  -0.25837  -0.25223  -0.21727  -0.20741
  Beta  occ. eigenvalues --   -0.17406  -0.16499  -0.13917  -0.12054  -0.10872
  Beta  occ. eigenvalues --   -0.08401  -0.06259  -0.05645  -0.05438  -0.05052
  Beta  occ. eigenvalues --   -0.04622  -0.04302  -0.03705  -0.02234  -0.01844
  Beta  occ. eigenvalues --   -0.01080   0.00800   0.01051   0.01237   0.03148
  Beta  occ. eigenvalues --    0.03943   0.04945   0.05666   0.06701   0.06757
  Beta  occ. eigenvalues --    0.06923   0.07177   0.07346   0.07610   0.08456
  Beta  occ. eigenvalues --    0.10705   0.10888   0.11038   0.11310   0.11506
  Beta  occ. eigenvalues --    0.11567   0.14758   0.14960   0.15178   0.16038
  Beta  occ. eigenvalues --    0.16820   0.17238   0.18984   0.19576   0.28365
  Beta virt. eigenvalues --    0.30088   0.31117   0.33459   0.33875   0.35343
  Beta virt. eigenvalues --    0.35616   0.35897   0.37093   0.37722   0.37870
  Beta virt. eigenvalues --    0.38495   0.38906   0.39871   0.39991   0.40499

 Mulliken charges and spin densities:
               1          2
     1  O   -0.383962  -0.000000
     2  S    0.693293  -0.000000
     3  O   -0.382700  -0.000000
     4  O   -0.413520  -0.000000
     5  C   -0.737211   0.000000
     6  C   -0.624693   0.000000
     7  C   -0.235111  -0.000000
     8  C    0.668489  -0.000000
     9  C   -0.853896  -0.000000
    10  O   -0.512192  -0.000000
    11  C    0.245144   0.000000
    12  C    0.097888   0.000000
    13  C   -0.487546   0.000000
    14  C   -0.079794   0.000000
    15  C   -0.396729  -0.000000
    16  C    0.802918  -0.000000
    17  C   -0.951726  -0.000000
    18  O   -0.508846  -0.000000
    19  C    0.435410   0.000000
    20  C    0.154703  -0.000000
    21  S    0.924273  -0.000000
    22  O   -0.376144  -0.000000
    23  O   -0.383752  -0.000000
    24  O   -0.420678  -0.000000
    25  H    0.112874  -0.000000
    26  H    0.093625  -0.000000
    27  H    0.193528  -0.000000
    28  H   -0.717836  -0.000000
    29  H   -0.144590   0.000000
    30  H    0.188782  -0.000000
 Sum of Mulliken charges =  -4.00000  -0.00000

 Dipole moment (field-independent basis, Debye):
    X=              2.5934    Y=              0.9206    Z=              2.8554  Tot=              3.9657
 Quadrupole moment (field-independent basis, Debye-Ang):
   XX=           -616.0559   YY=           -215.7590   ZZ=           -231.5569
   XY=             63.5131   XZ=            -12.6879   YZ=            -24.6022

  Exact polarizability:1772.061 340.083 378.2101077.379 435.4141333.736
 Approx polarizability:2081.416 357.005 511.3121203.595 493.3221546.052

                      1                      2                      3
                      A                      A                      A
 Frequencies --     14.1289                17.9861                26.9980
 Red. masses --     14.1313                12.8693                14.3904
 Frc consts  --      0.0017                 0.0025                 0.0062
 IR Inten    --      0.4961                 0.2300                 1.2510

                      4                      5                      6
                      A                      A                      A
 Frequencies --     72.5616                77.8509                80.1487
 Red. masses --     10.2128                12.0016                 6.3757
 Frc consts  --      0.0317                 0.0429                 0.0241
 IR Inten    --      6.5979                19.1637                24.2097

                      7                      8                      9
                      A                      A                      A
 Frequencies --    123.6406               145.2590               164.8036
 Red. masses --     12.1247                 6.0142                 5.9816
 Frc consts  --      0.1092                 0.0748                 0.0957
 IR Inten    --     61.4931                 8.6935                 2.7553

                     10                     11                     12
                      A                      A                      A
 Frequencies --    177.4458               180.8646               221.8683
 Red. masses --     15.2627                11.9795                 9.9019
 Frc consts  --      0.2831                 0.2309                 0.2872
 IR Inten    --     13.3249                 7.3235                21.0731

                     13                     14                     15
                      A                      A                      A
 Frequencies --    237.2531               248.6393               265.5819
 Red. masses --      7.9436                13.8232                13.4459
 Frc consts  --      0.2634                 0.5035                 0.5588
 IR Inten    --      3.1908                12.4786                 0.4951

                     16                     17                     18
                      A                      A                      A
 Frequencies --    329.0849               337.8834               369.4318
 Red. masses --      8.2562                 7.5666                 7.8421
 Frc consts  --      0.5268                 0.5090                 0.6306
 IR Inten    --      4.9448                18.4196               359.2259

                     19                     20                     21
                      A                      A                      A
 Frequencies --    373.1808               381.7037               396.9851
 Red. masses --      7.8148                 9.9240                 7.8338
 Frc consts  --      0.6412                 0.8519                 0.7274
 IR Inten    --      1.2207               127.8587              1414.3255

                     22                     23                     24
                      A                      A                      A
 Frequencies --    425.4284               432.5559               456.3076
 Red. masses --      3.5463                 7.5421                 9.3719
 Frc consts  --      0.3782                 0.8314                 1.1497
 IR Inten    --      6.1403                 7.6525              1340.3800

                     25                     26                     27
                      A                      A                      A
 Frequencies --    483.0562               489.7254               503.2677
 Red. masses --      3.5065                 9.6051                10.7934
 Frc consts  --      0.4821                 1.3572                 1.6107
 IR Inten    --      2.9273                34.0763                81.7354

                     28                     29                     30
                      A                      A                      A
 Frequencies --    515.5880               518.6433               526.2589
 Red. masses --     15.2294                13.4561                11.1188
 Frc consts  --      2.3853                 2.1326                 1.8143
 IR Inten    --      9.0844                 0.3670                 6.7457

                     31                     32                     33
                      A                      A                      A
 Frequencies --    568.4124               596.6947               621.5376
 Red. masses --      5.3772                13.2758                12.6936
 Frc consts  --      1.0236                 2.7849                 2.8892
 IR Inten    --     15.8585               427.9446               483.9857

                     34                     35                     36
                      A                      A                      A
 Frequencies --    638.6671               640.6838               673.9715
 Red. masses --      5.7841                 6.0105                 8.3782
 Frc consts  --      1.3901                 1.4536                 2.2423
 IR Inten    --      9.7074                16.1969               123.6728

                     37                     38                     39
                      A                      A                      A
 Frequencies --    689.5867               711.8351               713.3836
 Red. masses --      6.7832                 4.2982                 8.1234
 Frc consts  --      1.9005                 1.2832                 2.4358
 IR Inten    --     41.9808                12.1736                35.8267

                     40                     41                     42
                      A                      A                      A
 Frequencies --    720.3381               763.2025               817.9285
 Red. masses --      3.7552                 1.9185                 4.8042
 Frc consts  --      1.1480                 0.6584                 1.8937
 IR Inten    --     15.7959                 9.6678                17.7352

                     43                     44                     45
                      A                      A                      A
 Frequencies --    831.4899               872.2785               924.8589
 Red. masses --      7.2686                 1.5555                11.8809
 Frc consts  --      2.9608                 0.6973                 5.9875
 IR Inten    --     62.6864               222.2336              1310.7061

                     46                     47                     48
                      A                      A                      A
 Frequencies --    926.9750               945.5046               951.5490
 Red. masses --      7.1405                 1.2672                 1.4384
 Frc consts  --      3.6151                 0.6674                 0.7674
 IR Inten    --    265.3033                 2.8396                37.5070

                     49                     50                     51
                      A                      A                      A
 Frequencies --    953.8300               958.8122               976.8999
 Red. masses --      5.6136                 1.3763                 3.2326
 Frc consts  --      3.0091                 0.7455                 1.8176
 IR Inten    --    357.8695                12.5482               477.9599

                     52                     53                     54
                      A                      A                      A
 Frequencies --    981.4824              1042.5117              1044.4847
 Red. masses --      1.7303                 2.2604                 2.4555
 Frc consts  --      0.9820                 1.4475                 1.5783
 IR Inten    --    139.9960               226.3198              1910.3096

                     55                     56                     57
                      A                      A                      A
 Frequencies --   1080.7560              1086.3989              1092.9608
 Red. masses --     20.2191                20.1983                 2.8607
 Frc consts  --     13.9145                14.0457                 2.0134
 IR Inten    --    311.2712               371.3705               899.1840

                     58                     59                     60
                      A                      A                      A
 Frequencies --   1103.8051              1114.0148              1124.4498
 Red. masses --      3.7353                 8.0106                 2.3361
 Frc consts  --      2.6814                 5.8573                 1.7403
 IR Inten    --    288.6229               165.2845                10.3738

                     61                     62                     63
                      A                      A                      A
 Frequencies --   1140.9272              1156.3585              1189.7461
 Red. masses --      5.3931                 4.1900                 1.8612
 Frc consts  --      4.1363                 3.3010                 1.5522
 IR Inten    --    115.0534              2192.1060               279.5773

                     64                     65                     66
                      A                      A                      A
 Frequencies --   1194.1772              1234.6711              1294.1032
 Red. masses --      1.7095                 2.0474                 2.0325
 Frc consts  --      1.4363                 1.8389                 2.0055
 IR Inten    --    153.3039                74.4220              1063.3618

                     67                     68                     69
                      A                      A                      A
 Frequencies --   1305.9427              1338.5893              1343.2772
 Red. masses --      7.3326                 7.2594                 3.3427
 Frc consts  --      7.3681                 7.6639                 3.5537
 IR Inten    --   2792.5779               137.5926               537.0907

                     70                     71                     72
                      A                      A                      A
 Frequencies --   1421.7425              1430.4354              1441.0655
 Red. masses --      5.4303                 4.2834                 5.6540
 Frc consts  --      6.4672                 5.1639                 6.9179
 IR Inten    --   3400.6711              2716.5882              1937.8255

                     73                     74                     75
                      A                      A                      A
 Frequencies --   1457.3837              1472.2394              1505.5523
 Red. masses --      3.6755                 3.5414                 6.0884
 Frc consts  --      4.5996                 4.5226                 8.1310
 IR Inten    --    257.5746               116.4026               422.6951

                     76                     77                     78
                      A                      A                      A
 Frequencies --   1526.3573              1571.3964              1573.8932
 Red. masses --      7.8779                 6.0392                 5.8366
 Frc consts  --     10.8136                 8.7863                 8.5185
 IR Inten    --   5927.1730                21.9029               188.2386

                     79                     80                     81
                      A                      A                      A
 Frequencies --   3122.5084              3133.3606              3147.2274
 Red. masses --      1.0850                 1.0841                 1.0930
 Frc consts  --      6.2329                 6.2712                 6.3788
 IR Inten    --   1978.6553                 9.6912              1034.7151

                     82                     83                     84
                      A                      A                      A
 Frequencies --   3155.6449              3192.1775              3193.5876
 Red. masses --      1.0928                 1.0882                 1.0882
 Frc consts  --      6.4119                 6.5333                 6.5389
 IR Inten    --    167.6729                13.5253                 3.1711

 - Thermochemistry -
 -------------------
 Temperature   298.150 Kelvin.  Pressure   1.00000 Atm.
 Atom     1 has atomic number  8 and mass  15.99491

 Molecular mass:   365.95041 amu.
 Principal axes and moments of inertia in atomic units:
                           1         2         3
     Eigenvalues --  2574.52912********************
           X            0.98921   0.06003   0.13366
           Y           -0.14412   0.56291   0.81385
           Z            0.02638   0.82433  -0.56549
 This molecule is an asymmetric top.
 Rotational symmetry number  1.
 Warning -- assumption of classical behavior for rotation
           may cause significant error
 Rotational temperatures (Kelvin)      0.03364     0.00373     0.00345
 Rotational constants (GHZ):           0.70100     0.07775     0.07195
 Zero-point vibrational energy     468372.7 (Joules/Mol)
                                  111.94376 (Kcal/Mol)
 Warning -- explicit consideration of  32 degrees of freedom as
           vibrations may cause significant error
 Vibrational temperatures:     20.33    25.88    38.84   104.40   112.01
          (Kelvin)            115.32   177.89   209.00   237.12   255.30
                              260.22   319.22   341.35   357.74   382.11
                              473.48   486.14   531.53   536.92   549.19
                              571.17   612.10   622.35   656.52   695.01
                              704.61   724.09   741.82   746.21   757.17
                              817.82   858.51   894.25   918.90   921.80
                              969.69   992.16  1024.17  1026.40  1036.41
                             1098.08  1176.82  1196.33  1255.01  1330.67
                             1333.71  1360.37  1369.07  1372.35  1379.52
                             1405.54  1412.13  1499.94  1502.78  1554.97
                             1563.09  1572.53  1588.13  1602.82  1617.83
                             1641.54  1663.74  1711.78  1718.15  1776.42
                             1861.93  1878.96  1925.93  1932.68  2045.57
                             2058.08  2073.37  2096.85  2118.22  2166.15
                             2196.09  2260.89  2264.48  4492.59  4508.21
                             4528.16  4540.27  4592.83  4594.86

 Zero-point correction=                           0.178394 (Hartree/Particle)
 Thermal correction to Energy=                    0.197985
 Thermal correction to Enthalpy=                  0.198929
 Thermal correction to Gibbs Free Energy=         0.127292
 Sum of electronic and zero-point Energies=          -1935.148356
 Sum of electronic and thermal Energies=             -1935.128765
 Sum of electronic and thermal Enthalpies=           -1935.127821
 Sum of electronic and thermal Free Energies=        -1935.199458

                     E (Thermal)             CV                S
                      KCal/Mol        Cal/Mol-Kelvin    Cal/Mol-Kelvin
 Total                  124.237             74.995            150.773
 Electronic               0.000              0.000              0.000
 Translational            0.889              2.981             43.585
 Rotational               0.889              2.981             35.659
 Vibrational            122.460             69.033             71.528
 Vibration     1          0.593              1.986              7.324
 Vibration     2          0.593              1.986              6.845
 Vibration     3          0.593              1.984              6.039
 Vibration     4          0.599              1.967              4.083
 Vibration     5          0.599              1.964              3.944
 Vibration     6          0.600              1.963              3.887
 Vibration     7          0.610              1.929              3.043
 Vibration     8          0.617              1.908              2.733
 Vibration     9          0.623              1.886              2.494
 Vibration    10          0.628              1.870              2.355
 Vibration    11          0.630              1.866              2.319
 Vibration    12          0.648              1.808              1.944
 Vibration    13          0.656              1.784              1.823
 Vibration    14          0.662              1.765              1.740
 Vibration    15          0.671              1.736              1.625
 Vibration    16          0.712              1.617              1.265
 Vibration    17          0.718              1.600              1.222
 Vibration    18          0.742              1.535              1.082
 Vibration    19          0.745              1.527              1.067
 Vibration    20          0.751              1.509              1.032
 Vibration    21          0.763              1.477              0.974
 Vibration    22          0.787              1.415              0.874
 Vibration    23          0.793              1.399              0.850
 Vibration    24          0.815              1.347              0.777
 Vibration    25          0.839              1.288              0.702
 Vibration    26          0.846              1.273              0.684
 Vibration    27          0.859              1.243              0.650
 Vibration    28          0.871              1.215              0.620
 Vibration    29          0.874              1.209              0.613
 Vibration    30          0.881              1.192              0.596
 Vibration    31          0.924              1.100              0.507
 Vibration    32          0.955              1.039              0.455

                           ! Non-Optimized Parameters !
 Normal termination of Gaussian 16 at Tue Jan  9 17:19:00 2024.
