 Q-Chem 5.4, Q-Chem, Inc., Pleasanton, CA (2021)
 Q-Chem 5.4.0 for Intel X86 EM64T Linux

User input:
--------------------------------------------------------------
$molecule
0 1
O                  4.8779150000     -0.8658900000      0.0204230000
C                  3.6693760000     -0.2569790000      0.0587780000
C                  3.5809960000      1.1264500000      0.1256060000
C                  2.3346340000      1.7513520000      0.1650540000
C                  1.1629710000      1.0038190000      0.1383820000
C                 -0.1481380000      1.7094400000      0.1822550000
O                 -0.1868490000      2.9276600000      0.2402270000
C                 -1.3836920000      0.8702580000      0.1514550000
C                 -2.6574790000      1.4527590000      0.1886600000
O                 -2.8035210000      2.7989890000      0.2537900000
C                 -3.8011140000      0.6287000000      0.1579620000
C                 -3.7061100000     -0.7403080000      0.0921200000
C                 -2.4456080000     -1.3583440000      0.0532990000
O                 -2.4269950000     -2.6969130000     -0.0105110000
C                 -1.2826620000     -0.5558030000      0.0827590000
C                  0.0232620000     -1.2109510000      0.0415150000
O                  0.1077690000     -2.4688240000     -0.0192980000
C                  1.2363210000     -0.4065740000      0.0704160000
C                  2.4943830000     -1.0340520000      0.0306190000
O                  2.6767160000     -2.3691930000     -0.0346940000
H                  4.7363730000     -1.8225110000     -0.0239740000
H                  4.4975860000      1.7038080000      0.1461890000
H                  2.2575250000      2.8294890000      0.2171760000
H                 -3.7427430000      3.0148250000      0.2707530000
H                 -4.7818470000      1.0955290000      0.1874930000
H                 -4.5886580000     -1.3673000000      0.0688680000
H                 -1.4814490000     -2.9760640000     -0.0308210000
H                  1.7810380000     -2.7833740000     -0.0476460000
$end
$rem
MAX_SCF_CYCLES=200
BASIS  =  6-311++G(d,p)
GUI  =  2
JOB_TYPE  =  SP
METHOD  =  B3LYP
SOLVENT_METHOD = PCM
$end
$pcm
theory = CPCM
$end
$solvent
dielectric 37.219
opticaldielectric 1.43
$end

--------------------------------------------------------------

             Standard Nuclear Orientation (Angstroms)
    I     Atom           X                Y                Z
 ----------------------------------------------------------------
    1      O       4.8779150000    -0.8658900000     0.0204230000
    2      C       3.6693760000    -0.2569790000     0.0587780000
    3      C       3.5809960000     1.1264500000     0.1256060000
    4      C       2.3346340000     1.7513520000     0.1650540000
    5      C       1.1629710000     1.0038190000     0.1383820000
    6      C      -0.1481380000     1.7094400000     0.1822550000
    7      O      -0.1868490000     2.9276600000     0.2402270000
    8      C      -1.3836920000     0.8702580000     0.1514550000
    9      C      -2.6574790000     1.4527590000     0.1886600000
   10      O      -2.8035210000     2.7989890000     0.2537900000
   11      C      -3.8011140000     0.6287000000     0.1579620000
   12      C      -3.7061100000    -0.7403080000     0.0921200000
   13      C      -2.4456080000    -1.3583440000     0.0532990000
   14      O      -2.4269950000    -2.6969130000    -0.0105110000
   15      C      -1.2826620000    -0.5558030000     0.0827590000
   16      C       0.0232620000    -1.2109510000     0.0415150000
   17      O       0.1077690000    -2.4688240000    -0.0192980000
   18      C       1.2363210000    -0.4065740000     0.0704160000
   19      C       2.4943830000    -1.0340520000     0.0306190000
   20      O       2.6767160000    -2.3691930000    -0.0346940000
   21      H       4.7363730000    -1.8225110000    -0.0239740000
   22      H       4.4975860000     1.7038080000     0.1461890000
   23      H       2.2575250000     2.8294890000     0.2171760000
   24      H      -3.7427430000     3.0148250000     0.2707530000
   25      H      -4.7818470000     1.0955290000     0.1874930000
   26      H      -4.5886580000    -1.3673000000     0.0688680000
   27      H      -1.4814490000    -2.9760640000    -0.0308210000
   28      H       1.7810380000    -2.7833740000    -0.0476460000
 ----------------------------------------------------------------

    8    -989.9827551212      9.85e-06  Convergence criterion met
 Total energy in the final basis set =     -989.9827551212

                    Orbital Energies (a.u.)
 --------------------------------------------------------------

 Alpha MOs
 -- Occupied --
-19.1741 -19.1725 -19.1710 -19.1648 -19.1482 -19.1196 -10.2953 -10.2788
-10.2685 -10.2677 -10.2663 -10.2606 -10.2140 -10.2121 -10.2118 -10.2054
-10.2035 -10.2005 -10.1976 -10.1948  -1.1071  -1.0940  -1.0879  -1.0778
 -1.0588  -1.0565  -0.8939  -0.8779  -0.8179  -0.7806  -0.7726  -0.7660
 -0.7006  -0.6807  -0.6755  -0.6335  -0.6229  -0.5906  -0.5827  -0.5646
 -0.5538  -0.5298  -0.5226  -0.5101  -0.4930  -0.4808  -0.4764  -0.4663
 -0.4599  -0.4548  -0.4485  -0.4340  -0.4339  -0.4235  -0.4202  -0.4153
 -0.4067  -0.4004  -0.3909  -0.3869  -0.3831  -0.3824  -0.3497  -0.3359
 -0.3015  -0.2940  -0.2723  -0.2694  -0.2432  -0.2338

          Ground-State Mulliken Net Atomic Charges

     Atom                 Charge (a.u.)
  ----------------------------------------
      1 O                    -0.280512
      2 C                    -0.314875
      3 C                     0.006729
      4 C                     0.010811
      5 C                     0.289373
      6 C                    -0.465618
      7 O                    -0.317086
      8 C                     0.150362
      9 C                    -0.194440
     10 O                    -0.239059
     11 C                    -0.167877
     12 C                    -0.102340
     13 C                    -0.172840
     14 O                    -0.346581
     15 C                     0.613429
     16 C                    -0.508005
     17 O                    -0.405912
     18 C                     0.506248
     19 C                    -0.035583
     20 O                    -0.404644
     21 H                     0.330983
     22 H                     0.252443
     23 H                     0.195654
     24 H                     0.325017
     25 H                     0.230432
     26 H                     0.244867
     27 H                     0.388566
     28 H                     0.410458
  ----------------------------------------
  Sum of atomic charges =     0.000000

                    Cartesian Multipole Moments
 -----------------------------------------------------------------
    Charge (ESU x 10^10)
                 0.0000
    Dipole Moment (Debye)
         X      -3.8675      Y      -1.2987      Z      -0.0293
       Tot       4.0798
    Quadrupole Moments (Debye-Ang)
        XX     -86.2450     XY     -10.5326     YY    -125.6591
        XZ      -1.1009     YZ      -0.5241     ZZ    -115.7377

 Total job time:  104.34s(wall), 360.86s(cpu)
        *  Thank you very much for using Q-Chem.  Have a nice day.  *
