 Gaussian 16, Revision A.03,
 Gaussian 16:  ES64L-G16RevA.03 25-Dec-2016

 ----------------------------------------------------------------------
 #P UB3LYP/6-311++G(d,p) nosym opt freq SCRF=(PCM,Solvent=n,n-DiMethylF
 ormamide)
 ----------------------------------------------------------------------

 -------
 Reduced
 -------
 Symbolic Z-matrix:
 Charge = -2 Multiplicity = 1

 SCF Done:  E(UB3LYP) =  -1760.71665796     A.U. after   21 cycles
 SCF Done:  E(UB3LYP) =  -1760.71721326     A.U. after   14 cycles
 SCF Done:  E(UB3LYP) =  -1760.71735350     A.U. after   13 cycles
 SCF Done:  E(UB3LYP) =  -1760.71735650     A.U. after   18 cycles
 SCF Done:  E(UB3LYP) =  -1760.71735858     A.U. after   15 cycles
 SCF Done:  E(UB3LYP) =  -1760.71735925     A.U. after   14 cycles
 Optimization completed.
    -- Stationary point found.
 Normal termination of Gaussian 16 at Sat Feb 10 10:16:53 2024.

 ----------------------------------------------------------------------
 #P Geom=AllCheck Guess=TCheck SCRF=Check GenChk UB3LYP/6-311++G(d,p) F
 req
 ----------------------------------------------------------------------

 Structure from the checkpoint file:  "026-an.chk"
 -------
 Reduced
 -------
 Charge = -2 Multiplicity = 1

                          Input orientation:
 ---------------------------------------------------------------------
 Center     Atomic      Atomic             Coordinates (Angstroms)
 Number     Number       Type             X           Y           Z
 ---------------------------------------------------------------------
      1         17           0       -2.666016   -1.718249   -0.008838
      2          6           0       -1.157442   -0.754215   -0.005794
      3          6           0       -1.285711    0.626325   -0.038355
      4          6           0       -0.167611    1.510244   -0.036380
      5          8           0       -0.292812    2.800890   -0.065793
      6          6           0        1.081873    0.817737    0.001854
      7          6           0        1.186489   -0.581966    0.035158
      8         17           0        2.787019   -1.349476    0.088344
      9          6           0        0.070356   -1.480592    0.031810
     10          8           0        0.169482   -2.766710    0.059702
     11         17           0        2.547637    1.822907    0.004496
     12          1           0       -2.273264    1.073106   -0.066204
 ---------------------------------------------------------------------

 SCF Done:  E(UB3LYP) =  -1760.71735925     A.U. after    2 cycles

 Alpha  occ. eigenvalues -- -101.53529-101.53432-101.53233 -19.02868 -19.02589
 Alpha  occ. eigenvalues --  -10.20251 -10.19891 -10.19773 -10.19619 -10.19285
 Alpha  occ. eigenvalues --  -10.14307  -9.44980  -9.44881  -9.44678  -7.21401
 Alpha  occ. eigenvalues --   -7.21297  -7.21077  -7.20509  -7.20433  -7.20411
 Alpha  occ. eigenvalues --   -7.20340  -7.20207  -7.20160  -0.95007  -0.94075
 Alpha  occ. eigenvalues --   -0.86331  -0.84324  -0.82238  -0.77310  -0.68789
 Alpha  occ. eigenvalues --   -0.66317  -0.56742  -0.54455  -0.47326  -0.44909
 Alpha  occ. eigenvalues --   -0.42780  -0.40244  -0.40032  -0.37304  -0.36032
 Alpha  occ. eigenvalues --   -0.35855  -0.35132  -0.33886  -0.31033  -0.30930
 Alpha  occ. eigenvalues --   -0.30087  -0.29783  -0.28663  -0.23567  -0.21691
 Alpha  occ. eigenvalues --   -0.21267  -0.20873  -0.13586
 Alpha virt. eigenvalues --   -0.00567   0.00376   0.01261   0.01935   0.03211
 Alpha virt. eigenvalues --    0.04011   0.05050   0.05471   0.05744   0.06212
 Alpha virt. eigenvalues --    0.06387   0.07578   0.08396   0.08616   0.08928

  Beta  occ. eigenvalues -- -101.53529-101.53432-101.53233 -19.02868 -19.02589
  Beta  occ. eigenvalues --  -10.20251 -10.19891 -10.19773 -10.19619 -10.19285
  Beta  occ. eigenvalues --  -10.14307  -9.44980  -9.44881  -9.44678  -7.21401
  Beta  occ. eigenvalues --   -7.21297  -7.21077  -7.20509  -7.20433  -7.20411
  Beta  occ. eigenvalues --   -7.20340  -7.20207  -7.20160  -0.95007  -0.94075
  Beta  occ. eigenvalues --   -0.86331  -0.84324  -0.82238  -0.77310  -0.68789
  Beta  occ. eigenvalues --   -0.66317  -0.56742  -0.54455  -0.47326  -0.44909
  Beta  occ. eigenvalues --   -0.42780  -0.40244  -0.40032  -0.37304  -0.36032
  Beta  occ. eigenvalues --   -0.35855  -0.35132  -0.33886  -0.31033  -0.30930
  Beta  occ. eigenvalues --   -0.30087  -0.29783  -0.28663  -0.23567  -0.21691
  Beta  occ. eigenvalues --   -0.21267  -0.20873  -0.13586
  Beta virt. eigenvalues --   -0.00567   0.00376   0.01261   0.01935   0.03211
  Beta virt. eigenvalues --    0.04011   0.05050   0.05471   0.05744   0.06212
  Beta virt. eigenvalues --    0.06387   0.07578   0.08396   0.08616   0.08928

 Mulliken charges and spin densities:
               1          2
     1  Cl   0.114324  -0.000000
     2  C    1.253163   0.000000
     3  C   -0.746392  -0.000000
     4  C   -1.153979   0.000000
     5  O   -0.658957  -0.000000
     6  C    0.443686  -0.000000
     7  C    0.589628  -0.000000
     8  Cl   0.216004   0.000000
     9  C   -1.829895   0.000000
    10  O   -0.591501   0.000000
    11  Cl   0.203855  -0.000000
    12  H    0.160063  -0.000000
 Sum of Mulliken charges =  -2.00000   0.00000

 Dipole moment (field-independent basis, Debye):
    X=             -1.7730    Y=              0.8130    Z=             -0.0465  Tot=              1.9511
 Quadrupole moment (field-independent basis, Debye-Ang):
   XX=           -110.6954   YY=           -155.3236   ZZ=            -90.9772
   XY=             -1.3666   XZ=             -0.3379   YZ=              1.3505

  Exact polarizability: 238.122  12.892 237.707   2.306  -2.773 101.505
 Approx polarizability: 256.020   9.610 267.061   2.523  -3.241 110.923

                      1                      2                      3
                      A                      A                      A
 Frequencies --     79.6597                86.8720               171.6795
 Red. masses --     22.2224                18.8004                12.1073
 Frc consts  --      0.0831                 0.0836                 0.2102
 IR Inten    --      6.0371                 8.3958                11.7781

                      4                      5                      6
                      A                      A                      A
 Frequencies --    198.1995               210.4101               266.4846
 Red. masses --     26.0700                28.0890                17.4878
 Frc consts  --      0.6034                 0.7327                 0.7317
 IR Inten    --      4.5877                 2.9882                 0.9598

                      7                      8                      9
                      A                      A                      A
 Frequencies --    270.4374               311.5966               325.5491
 Red. masses --      7.0829                25.8197                19.4911
 Frc consts  --      0.3052                 1.4770                 1.2171
 IR Inten    --      0.0406                 0.5810                 1.0894

                     10                     11                     12
                      A                      A                      A
 Frequencies --    345.4403               376.3273               493.1061
 Red. masses --     12.4819                20.3496                13.9034
 Frc consts  --      0.8776                 1.6980                 1.9918
 IR Inten    --      0.2740                 0.3375                 0.1811

                     13                     14                     15
                      A                      A                      A
 Frequencies --    497.9935               570.8144               664.9628
 Red. masses --      5.1724                 9.8724                 7.4335
 Frc consts  --      0.7558                 1.8952                 1.9366
 IR Inten    --      1.4216                70.8378                20.0758

                     16                     17                     18
                      A                      A                      A
 Frequencies --    672.1947               745.1358               757.5866
 Red. masses --      4.0099                 6.4081                10.9147
 Frc consts  --      1.0675                 2.0963                 3.6908
 IR Inten    --      0.0741                 8.4183               114.1531

                     19                     20                     21
                      A                      A                      A
 Frequencies --    826.3551               846.0070               955.3248
 Red. masses --      1.8480                10.8117                11.5636
 Frc consts  --      0.7435                 4.5592                 6.2179
 IR Inten    --     43.8946               474.6443                45.7015

                     22                     23                     24
                      A                      A                      A
 Frequencies --   1071.8559              1137.3274              1245.0095
 Red. masses --      3.1758                10.4473                 2.0792
 Frc consts  --      2.1497                 7.9621                 1.8988
 IR Inten    --    191.7927               313.3105               167.4747

                     25                     26                     27
                      A                      A                      A
 Frequencies --   1364.4234              1373.5508              1404.3039
 Red. masses --      8.3014                11.3968                10.3704
 Frc consts  --      9.1055                12.6685                12.0495
 IR Inten    --     86.9584               327.5592              1017.0811

                     28                     29                     30
                      A                      A                      A
 Frequencies --   1444.4774              1593.8877              3171.5926
 Red. masses --      5.6250                 9.5223                 1.0896
 Frc consts  --      6.9150                14.2531                 6.4579
 IR Inten    --   1056.1187                31.6253                18.6807

 - Thermochemistry -
 -------------------
 Temperature   298.150 Kelvin.  Pressure   1.00000 Atm.
 Atom     1 has atomic number 17 and mass  34.96885

 Molecular mass:   209.90421 amu.
 Principal axes and moments of inertia in atomic units:
                           1         2         3
     Eigenvalues --  1747.199803211.469474958.65352
           X            0.85145  -0.52410  -0.01886
           Y            0.52442   0.85116   0.02268
           Z            0.00417  -0.02920   0.99956
 This molecule is an asymmetric top.
 Rotational symmetry number  1.
 Warning -- assumption of classical behavior for rotation
           may cause significant error
 Rotational temperatures (Kelvin)      0.04957     0.02697     0.01747
 Rotational constants (GHZ):           1.03293     0.56197     0.36396
 Zero-point vibrational energy     140433.0 (Joules/Mol)
                                   33.56429 (Kcal/Mol)
 Warning -- explicit consideration of  14 degrees of freedom as
           vibrations may cause significant error
 Vibrational temperatures:    114.61   124.99   247.01   285.16   302.73
          (Kelvin)            383.41   389.10   448.32   468.39   497.01
                              541.45   709.47   716.50   821.27   956.73
                              967.14  1072.08  1090.00  1188.94  1217.22
                             1374.50  1542.16  1636.36  1791.29  1963.10
                             1976.23  2020.48  2078.28  2293.25  4563.21

 Zero-point correction=                           0.053488 (Hartree/Particle)
 Thermal correction to Energy=                    0.063335
 Thermal correction to Enthalpy=                  0.064279
 Thermal correction to Gibbs Free Energy=         0.016911
 Sum of electronic and zero-point Energies=          -1760.663871
 Sum of electronic and thermal Energies=             -1760.654024
 Sum of electronic and thermal Enthalpies=           -1760.653080
 Sum of electronic and thermal Free Energies=        -1760.700449

                     E (Thermal)             CV                S
                      KCal/Mol        Cal/Mol-Kelvin    Cal/Mol-Kelvin
 Total                   39.743             34.965             99.696
 Electronic               0.000              0.000              0.000
 Translational            0.889              2.981             41.928
 Rotational               0.889              2.981             31.698
 Vibrational             37.966             29.004             26.070
 Vibration     1          0.600              1.963              3.899
 Vibration     2          0.601              1.958              3.729
 Vibration     3          0.626              1.877              2.417
 Vibration     4          0.637              1.842              2.150
 Vibration     5          0.643              1.825              2.040
 Vibration     6          0.672              1.735              1.619
 Vibration     7          0.674              1.728              1.593
 Vibration     8          0.700              1.652              1.354
 Vibration     9          0.710              1.624              1.282
 Vibration    10          0.724              1.585              1.187
 Vibration    11          0.747              1.521              1.054
 Vibration    12          0.849              1.265              0.676
 Vibration    13          0.853              1.254              0.663
 Vibration    14          0.927              1.094              0.503

 Optimization completed.
    -- Stationary point found.
 Normal termination of Gaussian 16 at Sat Feb 10 10:27:10 2024.
