 Gaussian 16, Revision A.03,
 Gaussian 16:  ES64L-G16RevA.03 25-Dec-2016

 --------------------------------------
 #P UB3LYP/6-311++G(d,p) nosym opt freq
 --------------------------------------

 --------
 Oxidized
 --------
 Symbolic Z-matrix:
 Charge =  0 Multiplicity = 1

 SCF Done:  E(UB3LYP) =  -807.136861424     A.U. after   16 cycles
 SCF Done:  E(UB3LYP) =  -807.140518473     A.U. after   13 cycles
 SCF Done:  E(UB3LYP) =  -807.140890525     A.U. after   12 cycles
 SCF Done:  E(UB3LYP) =  -807.140956005     A.U. after   12 cycles
 SCF Done:  E(UB3LYP) =  -807.140966949     A.U. after   10 cycles
 SCF Done:  E(UB3LYP) =  -807.140966897     A.U. after    9 cycles
 SCF Done:  E(UB3LYP) =  -807.140967667     A.U. after    8 cycles
 Optimization completed.
    -- Stationary point found.
 Normal termination of Gaussian 16 at Tue Dec 26 20:29:14 2023.

 ----------------------------------------------------------------------
 #P Geom=AllCheck Guess=TCheck SCRF=Check GenChk UB3LYP/6-311++G(d,p) F
 req
 ----------------------------------------------------------------------

 Structure from the checkpoint file:  "283.chk"
 --------
 Oxidized
 --------
 Charge =  0 Multiplicity = 1

                          Input orientation:
 ---------------------------------------------------------------------
 Center     Atomic      Atomic             Coordinates (Angstroms)
 Number     Number       Type             X           Y           Z
 ---------------------------------------------------------------------
      1          6           0       -2.031267    3.130164    0.146887
      2          6           0       -3.183229    2.350769    0.116387
      3          6           0       -3.083843    0.962667    0.000102
      4          6           0       -0.779519    2.515514    0.060602
      5          6           0       -0.676219    1.122174   -0.056223
      6          6           0       -1.835714    0.348969   -0.085992
      7          6           0        0.453163    3.317858    0.090516
      8          6           0        1.776034    2.621619   -0.004823
      9          6           0        1.903893    1.274343   -0.118376
     10          6           0        0.665621    0.454841   -0.149462
     11          8           0        0.467492    4.539921    0.189835
     12          8           0        0.729301   -0.762151   -0.250561
     13          1           0       -2.081977    4.208340    0.236405
     14          1           0       -4.157183    2.821594    0.182906
     15          1           0       -3.983021    0.357458   -0.023471
     16          1           0       -1.740743   -0.725872   -0.176579
     17          6           0        3.185015    0.479624   -0.220354
     18          8           0        2.808806    3.479062    0.035019
     19          1           0        3.114414   -0.122019   -1.135124
     20          1           0        3.161679   -0.266052    0.584077
     21          1           0        2.409300    4.367204    0.119345
     22          6           0        4.532473    1.210576   -0.196107
     23          6           0        5.702602    0.226283   -0.309851
     24          6           0        7.075400    0.907760   -0.290449
     25          6           0        8.241880   -0.078026   -0.403954
     26          1           0        4.632542    1.788989    0.726680
     27          1           0        4.585283    1.934094   -1.014506
     28          1           0        5.602231   -0.355537   -1.235707
     29          1           0        5.649744   -0.500966    0.511192
     30          1           0        7.176409    1.488347    0.634532
     31          1           0        7.129096    1.633396   -1.111081
     32          1           0        8.235583   -0.795489    0.422789
     33          1           0        9.205393    0.439014   -0.386979
     34          1           0        8.188089   -0.649208   -1.336240
 ---------------------------------------------------------------------

 SCF Done:  E(UB3LYP) =  -807.140967667     A.U. after    1 cycles

 Alpha  occ. eigenvalues --  -19.17450 -19.15075 -19.12540 -10.29423 -10.27778
 Alpha  occ. eigenvalues --  -10.26876 -10.21548 -10.21383 -10.20845 -10.20822
 Alpha  occ. eigenvalues --  -10.20808 -10.20673 -10.20314 -10.17937 -10.16311
 Alpha  occ. eigenvalues --  -10.16304 -10.16191 -10.15605  -1.10922  -1.06638
 Alpha  occ. eigenvalues --   -1.05918  -0.89819  -0.84441  -0.80791  -0.78731
 Alpha  occ. eigenvalues --   -0.78505  -0.75046  -0.70719  -0.68049  -0.65848
 Alpha  occ. eigenvalues --   -0.63771  -0.60941  -0.60115  -0.58061  -0.57162
 Alpha  occ. eigenvalues --   -0.54368  -0.51988  -0.49916  -0.48532  -0.48067
 Alpha  occ. eigenvalues --   -0.46979  -0.46759  -0.45893  -0.44835  -0.44160
 Alpha  occ. eigenvalues --   -0.43672  -0.42358  -0.41601  -0.40941  -0.40656
 Alpha  occ. eigenvalues --   -0.40058  -0.38626  -0.38373  -0.37722  -0.37700
 Alpha  occ. eigenvalues --   -0.35390  -0.34106  -0.32991  -0.32501  -0.32393
 Alpha  occ. eigenvalues --   -0.30488  -0.29450  -0.28531  -0.27447  -0.25773
 Alpha virt. eigenvalues --   -0.12577  -0.06125  -0.02961  -0.01341  -0.00610
 Alpha virt. eigenvalues --    0.00151   0.00854   0.01320   0.01525   0.02122
 Alpha virt. eigenvalues --    0.02213   0.02784   0.03690   0.03849   0.04357

  Beta  occ. eigenvalues --  -19.17450 -19.15075 -19.12540 -10.29423 -10.27778
  Beta  occ. eigenvalues --  -10.26876 -10.21548 -10.21383 -10.20845 -10.20822
  Beta  occ. eigenvalues --  -10.20808 -10.20673 -10.20314 -10.17937 -10.16311
  Beta  occ. eigenvalues --  -10.16304 -10.16191 -10.15605  -1.10922  -1.06638
  Beta  occ. eigenvalues --   -1.05918  -0.89819  -0.84441  -0.80791  -0.78731
  Beta  occ. eigenvalues --   -0.78505  -0.75046  -0.70719  -0.68049  -0.65848
  Beta  occ. eigenvalues --   -0.63771  -0.60941  -0.60115  -0.58061  -0.57162
  Beta  occ. eigenvalues --   -0.54368  -0.51988  -0.49916  -0.48532  -0.48067
  Beta  occ. eigenvalues --   -0.46979  -0.46759  -0.45893  -0.44835  -0.44160
  Beta  occ. eigenvalues --   -0.43672  -0.42358  -0.41601  -0.40941  -0.40656
  Beta  occ. eigenvalues --   -0.40058  -0.38626  -0.38373  -0.37722  -0.37700
  Beta  occ. eigenvalues --   -0.35390  -0.34106  -0.32991  -0.32501  -0.32393
  Beta  occ. eigenvalues --   -0.30488  -0.29450  -0.28531  -0.27447  -0.25773
  Beta virt. eigenvalues --   -0.12577  -0.06125  -0.02961  -0.01341  -0.00610
  Beta virt. eigenvalues --    0.00151   0.00854   0.01320   0.01525   0.02122
  Beta virt. eigenvalues --    0.02213   0.02784   0.03690   0.03849   0.04357

 Mulliken charges and spin densities:
               1          2
     1  C    0.189751   0.000000
     2  C   -0.339669  -0.000000
     3  C   -0.323300  -0.000000
     4  C    0.060502  -0.000000
     5  C    0.525928   0.000000
     6  C    0.190603   0.000000
     7  C   -0.828570  -0.000000
     8  C   -1.268972  -0.000000
     9  C    1.453378   0.000000
    10  C   -0.782084   0.000000
    11  O   -0.271065   0.000000
    12  O   -0.192772   0.000000
    13  H    0.190366   0.000000
    14  H    0.176219  -0.000000
    15  H    0.180616   0.000000
    16  H    0.192593  -0.000000
    17  C    0.356354  -0.000000
    18  O   -0.170457  -0.000000
    19  H    0.196084   0.000000
    20  H    0.195790   0.000000
    21  H    0.288037   0.000000
    22  C   -0.034412  -0.000000
    23  C   -0.433089   0.000000
    24  C   -0.151788  -0.000000
    25  C   -0.645661  -0.000000
    26  H    0.169860   0.000000
    27  H    0.169593   0.000000
    28  H    0.120611  -0.000000
    29  H    0.120537  -0.000000
    30  H    0.125600  -0.000000
    31  H    0.125630  -0.000000
    32  H    0.134641  -0.000000
    33  H    0.144530   0.000000
    34  H    0.134617  -0.000000
 Sum of Mulliken charges =  -0.00000   0.00000

 Dipole moment (field-independent basis, Debye):
    X=             -2.1133    Y=              0.7400    Z=              0.1214  Tot=              2.2424
 Quadrupole moment (field-independent basis, Debye-Ang):
   XX=            -97.0308   YY=           -114.1981   ZZ=           -108.2941
   XY=             -2.1401   XZ=             -0.1440   YZ=             -0.5486

  Exact polarizability: 256.197  -8.298 209.548  -4.867   8.392 110.498
 Approx polarizability: 322.443   4.316 413.069  -3.868  19.203 178.132

 ******    1 imaginary frequencies (negative Signs) ******

                      1                      2                      3
                      A                      A                      A
 Frequencies --    -28.9840                45.0751                59.8947
 Red. masses --      2.9263                 2.4409                 4.3404
 Frc consts  --      0.0014                 0.0029                 0.0092
 IR Inten    --      0.0095                 1.5603                 0.2480

                      4                      5                      6
                      A                      A                      A
 Frequencies --     62.1590                84.4718               105.9387
 Red. masses --      4.4734                 2.9894                 2.1385
 Frc consts  --      0.0102                 0.0126                 0.0141
 IR Inten    --      3.0366                 0.0034                 0.0482

                      7                      8                      9
                      A                      A                      A
 Frequencies --    124.6667               149.2141               171.2530
 Red. masses --      4.5557                 2.7642                 4.9568
 Frc consts  --      0.0417                 0.0363                 0.0857
 IR Inten    --      0.0092                 0.2518                 0.2416

                     10                     11                     12
                      A                      A                      A
 Frequencies --    181.8999               203.8483               243.6949
 Red. masses --      3.7336                 4.8842                 1.1121
 Frc consts  --      0.0728                 0.1196                 0.0389
 IR Inten    --      0.3866                 0.5344                 0.0000

                     13                     14                     15
                      A                      A                      A
 Frequencies --    268.4071               295.2625               345.6819
 Red. masses --      5.8358                 4.5711                 3.7340
 Frc consts  --      0.2477                 0.2348                 0.2629
 IR Inten    --      0.4490                 0.1163                 2.6007

                     16                     17                     18
                      A                      A                      A
 Frequencies --    377.9234               395.6521               414.9079
 Red. masses --      5.1538                 8.7212                 8.7356
 Frc consts  --      0.4337                 0.8044                 0.8860
 IR Inten    --      1.4085                25.4181                 4.4408

                     19                     20                     21
                      A                      A                      A
 Frequencies --    423.6872               442.6709               444.0142
 Red. masses --      3.5792                 4.4287                 4.7060
 Frc consts  --      0.3786                 0.5113                 0.5466
 IR Inten    --      0.0047                16.9206                 2.5647

                     22                     23                     24
                      A                      A                      A
 Frequencies --    479.5833               536.1855               538.6142
 Red. masses --      6.4333                 6.8311                 4.6444
 Frc consts  --      0.8718                 1.1571                 0.7938
 IR Inten    --      3.7238                 0.6196                 8.0252

                     25                     26                     27
                      A                      A                      A
 Frequencies --    646.1616               652.1757               674.7590
 Red. masses --      6.3267                 1.1525                 6.4215
 Frc consts  --      1.5564                 0.2888                 1.7226
 IR Inten    --      1.2189                60.8553                 4.5637

                     28                     29                     30
                      A                      A                      A
 Frequencies --    687.9977               728.7120               732.0342
 Red. masses --      3.6738                 6.9609                 1.6729
 Frc consts  --      1.0246                 2.1779                 0.5282
 IR Inten    --      7.4775                 2.3692                50.0063

                     31                     32                     33
                      A                      A                      A
 Frequencies --    735.4899               743.0326               761.7489
 Red. masses --      1.6005                 2.6409                 1.4172
 Frc consts  --      0.5101                 0.8591                 0.4845
 IR Inten    --     29.6480                 1.0757                 6.2513

                     34                     35                     36
                      A                      A                      A
 Frequencies --    802.6207               846.0201               866.6339
 Red. masses --      1.7021                 1.3206                 6.4732
 Frc consts  --      0.6460                 0.5569                 2.8645
 IR Inten    --     14.0563                 0.4671                22.8820

                     37                     38                     39
                      A                      A                      A
 Frequencies --    896.6697               911.9591               948.3524
 Red. masses --      2.1371                 1.3182                 4.0567
 Frc consts  --      1.0124                 0.6459                 2.1496
 IR Inten    --      1.5680                 0.0346                27.0144

                     40                     41                     42
                      A                      A                      A
 Frequencies --    973.2642               997.5133              1015.3688
 Red. masses --      1.2496                 1.3769                 4.0883
 Frc consts  --      0.6974                 0.8072                 2.4834
 IR Inten    --      0.3276                 1.3819                 2.4408

                     43                     44                     45
                      A                      A                      A
 Frequencies --   1016.2113              1040.7365              1057.9449
 Red. masses --      1.3249                 3.4585                 3.5244
 Frc consts  --      0.8061                 2.2071                 2.3241
 IR Inten    --      0.1660                32.4202                12.3978

                     46                     47                     48
                      A                      A                      A
 Frequencies --   1061.6775              1068.2102              1111.3718
 Red. masses --      2.1626                 2.4994                 2.1962
 Frc consts  --      1.4362                 1.6804                 1.5982
 IR Inten    --      1.3221                 9.7476                 2.4848

                     49                     50                     51
                      A                      A                      A
 Frequencies --   1130.0741              1138.1406              1163.9982
 Red. masses --      2.3232                 1.4621                 2.5132
 Frc consts  --      1.7480                 1.1159                 2.0062
 IR Inten    --     15.7120                 0.0729                18.4360

                     52                     53                     54
                      A                      A                      A
 Frequencies --   1184.9730              1229.3696              1232.5651
 Red. masses --      1.1799                 2.6092                 1.4480
 Frc consts  --      0.9762                 2.3234                 1.2961
 IR Inten    --      4.2380                35.4145                 0.0323

                     55                     56                     57
                      A                      A                      A
 Frequencies --   1262.4893              1286.4092              1299.4075
 Red. masses --      1.6955                 1.8637                 1.2153
 Frc consts  --      1.5922                 1.8171                 1.2089
 IR Inten    --     80.6421                35.1226                 0.0808

                     58                     59                     60
                      A                      A                      A
 Frequencies --   1305.2588              1314.6056              1333.5268
 Red. masses --      2.6141                 2.7789                 1.0626
 Frc consts  --      2.6240                 2.8296                 1.1134
 IR Inten    --     66.9503               354.2013                 0.3895

                     61                     62                     63
                      A                      A                      A
 Frequencies --   1337.2882              1344.5427              1365.9740
 Red. masses --      1.0909                 1.4880                 7.1045
 Frc consts  --      1.1494                 1.5849                 7.8104
 IR Inten    --      0.0919                20.4829                53.5594

                     64                     65                     66
                      A                      A                      A
 Frequencies --   1387.2748              1404.0330              1413.5007
 Red. masses --      1.5763                 1.5881                 1.2758
 Frc consts  --      1.7873                 1.8446                 1.5018
 IR Inten    --     92.4488                26.4347                23.8876

                     67                     68                     69
                      A                      A                      A
 Frequencies --   1422.6334              1463.7917              1485.8004
 Red. masses --      1.8481                 1.0833                 1.4605
 Frc consts  --      2.2038                 1.3676                 1.8996
 IR Inten    --    183.8551                 5.7285                 2.6694

                     70                     71                     72
                      A                      A                      A
 Frequencies --   1486.2300              1490.7049              1499.6856
 Red. masses --      1.5161                 1.0674                 1.0397
 Frc consts  --      1.9732                 1.3975                 1.3777
 IR Inten    --      5.5440                 0.9826                 7.9810

                     73                     74                     75
                      A                      A                      A
 Frequencies --   1502.1314              1508.7326              1512.6935
 Red. masses --      1.0764                 2.6463                 1.0963
 Frc consts  --      1.4310                 3.5490                 1.4780
 IR Inten    --      3.4140                 3.4502                 9.3103

                     76                     77                     78
                      A                      A                      A
 Frequencies --   1616.1193              1628.0552              1687.6546
 Red. masses --      6.8346                 5.9395                 7.9354
 Frc consts  --     10.5175                 9.2756                13.3163
 IR Inten    --      2.7756                76.7055                42.5824

                     79                     80                     81
                      A                      A                      A
 Frequencies --   1702.9302              1705.7691              2990.9174
 Red. masses --     12.1023                 9.5842                 1.0578
 Frc consts  --     20.6782                16.4304                 5.5752
 IR Inten    --    252.3519               212.8862                10.5839

                     82                     83                     84
                      A                      A                      A
 Frequencies --   3006.1069              3010.8197              3012.0492
 Red. masses --      1.0595                 1.0602                 1.1006
 Frc consts  --      5.6408                 5.6626                 5.8829
 IR Inten    --     33.0914                 5.2954                 2.9952

                     85                     86                     87
                      A                      A                      A
 Frequencies --   3016.8508              3025.2355              3037.2207
 Red. masses --      1.0355                 1.0986                 1.1043
 Frc consts  --      5.5530                 5.9237                 6.0020
 IR Inten    --     47.0248                 6.7525                19.4072

                     88                     89                     90
                      A                      A                      A
 Frequencies --   3039.7564              3076.3247              3081.3179
 Red. masses --      1.0596                 1.1031                 1.1042
 Frc consts  --      5.7683                 6.1506                 6.1768
 IR Inten    --     22.3740                17.2032                90.0356

                     91                     92                     93
                      A                      A                      A
 Frequencies --   3081.7603              3171.7462              3185.9327
 Red. masses --      1.1009                 1.0871                 1.0916
 Frc consts  --      6.1602                 6.4434                 6.5282
 IR Inten    --     45.3261                 3.2235                 8.5389

                     94                     95                     96
                      A                      A                      A
 Frequencies --   3200.2419              3203.7392              3587.9143
 Red. masses --      1.0934                 1.0945                 1.0641
 Frc consts  --      6.5978                 6.6191                 8.0705
 IR Inten    --      1.7940                 7.9797               161.0946

 - Thermochemistry -
 -------------------
 Temperature   298.150 Kelvin.  Pressure   1.00000 Atm.
 Atom     1 has atomic number  6 and mass  12.00000

 Molecular mass:   244.10994 amu.
 Principal axes and moments of inertia in atomic units:
                           1         2         3
     Eigenvalues --  1768.636539668.16121**********
           X            0.98434   0.17401   0.02816
           Y           -0.17126   0.98188  -0.08111
           Z           -0.04177   0.07502   0.99631
 This molecule is an asymmetric top.
 Rotational symmetry number  1.
 Warning -- assumption of classical behavior for rotation
           may cause significant error
 Rotational temperatures (Kelvin)      0.04897     0.00896     0.00761
 Rotational constants (GHZ):           1.02041     0.18667     0.15856
    1 imaginary frequencies ignored.
 Zero-point vibrational energy     729397.1 (Joules/Mol)
                                  174.33009 (Kcal/Mol)
 Warning -- explicit consideration of  23 degrees of freedom as
           vibrations may cause significant error
 Vibrational temperatures:     64.85    86.18    89.43   121.54   152.42
          (Kelvin)            179.37   214.69   246.39   261.71   293.29
                              350.62   386.18   424.82   497.36   543.75
                              569.26   596.96   609.59   636.90   638.84
                              690.01   771.45   774.95   929.68   938.34
                              970.83   989.88  1048.45  1053.23  1058.21
                             1069.06  1095.99  1154.79  1217.23  1246.89
                             1290.11  1312.11  1364.47  1400.31  1435.20
                             1460.89  1462.10  1497.39  1522.15  1527.52
                             1536.92  1599.02  1625.92  1637.53  1674.73
                             1704.91  1768.79  1773.39  1816.44  1850.86
                             1869.56  1877.98  1891.42  1918.65  1924.06
                             1934.50  1965.33  1995.98  2020.09  2033.71
                             2046.85  2106.07  2137.74  2138.35  2144.79
                             2157.71  2161.23  2170.73  2176.43  2325.24
                             2342.41  2428.16  2450.14  2454.22  4303.26
                             4325.12  4331.90  4333.67  4340.58  4352.64
                             4369.88  4373.53  4426.15  4433.33  4433.97
                             4563.44  4583.85  4604.43  4609.47  5162.21

 Zero-point correction=                           0.277813 (Hartree/Particle)
 Thermal correction to Energy=                    0.293769
 Thermal correction to Enthalpy=                  0.294713
 Thermal correction to Gibbs Free Energy=         0.233930
 Sum of electronic and zero-point Energies=           -806.863155
 Sum of electronic and thermal Energies=              -806.847199
 Sum of electronic and thermal Enthalpies=            -806.846255
 Sum of electronic and thermal Free Energies=         -806.907038

                     E (Thermal)             CV                S
                      KCal/Mol        Cal/Mol-Kelvin    Cal/Mol-Kelvin
 Total                  184.343             61.642            127.928
 Electronic               0.000              0.000              0.000
 Translational            0.889              2.981             42.378
 Rotational               0.889              2.981             33.631
 Vibrational            182.565             55.680             51.919
 Vibration     1          0.595              1.979              5.023
 Vibration     2          0.597              1.973              4.461
 Vibration     3          0.597              1.972              4.387
 Vibration     4          0.601              1.960              3.784
 Vibration     5          0.605              1.944              3.342
 Vibration     6          0.610              1.928              3.027
 Vibration     7          0.618              1.904              2.682
 Vibration     8          0.626              1.878              2.422
 Vibration     9          0.630              1.864              2.309
 Vibration    10          0.640              1.834              2.098
 Vibration    11          0.659              1.773              1.776
 Vibration    12          0.673              1.731              1.606
 Vibration    13          0.689              1.683              1.444
 Vibration    14          0.724              1.584              1.186
 Vibration    15          0.748              1.517              1.047
 Vibration    16          0.762              1.479              0.979
 Vibration    17          0.778              1.438              0.909
 Vibration    18          0.786              1.419              0.880
 Vibration    19          0.802              1.377              0.818
 Vibration    20          0.804              1.374              0.814
 Vibration    21          0.836              1.295              0.711
 Vibration    22          0.891              1.170              0.574
 Vibration    23          0.894              1.165              0.568

                           ! Non-Optimized Parameters !
 Normal termination of Gaussian 16 at Tue Dec 26 21:20:43 2023.
