 Gaussian 16, Revision A.03,
 Gaussian 16:  ES64L-G16RevA.03 25-Dec-2016

 ----------------------------------------------------------------------
 #P UB3LYP/6-311++G(d,p) nosym opt freq SCRF=(PCM,Solvent=n,n-DiMethylF
 ormamide)
 ----------------------------------------------------------------------

 --------
 Oxidized
 --------
 Symbolic Z-matrix:
 Charge =  0 Multiplicity = 1

 SCF Done:  E(UB3LYP) =  -3108.79965137     A.U. after   15 cycles
 SCF Done:  E(UB3LYP) =  -3108.79988936     A.U. after   12 cycles
 SCF Done:  E(UB3LYP) =  -3108.79991854     A.U. after   12 cycles
 SCF Done:  E(UB3LYP) =  -3108.79991218     A.U. after   11 cycles
 SCF Done:  E(UB3LYP) =  -3108.79991519     A.U. after   11 cycles
 SCF Done:  E(UB3LYP) =  -3108.79991907     A.U. after   10 cycles
 SCF Done:  E(UB3LYP) =  -3108.79991958     A.U. after   10 cycles
 Optimization completed.
    -- Stationary point found.
 Normal termination of Gaussian 16 at Sun Feb 11 15:22:39 2024.

 ----------------------------------------------------------------------
 #P Geom=AllCheck Guess=TCheck SCRF=Check GenChk UB3LYP/6-311++G(d,p) F
 req
 ----------------------------------------------------------------------

 Structure from the checkpoint file:  "321.chk"
 --------
 Oxidized
 --------
 Charge =  0 Multiplicity = 1

                          Input orientation:
 ---------------------------------------------------------------------
 Center     Atomic      Atomic             Coordinates (Angstroms)
 Number     Number       Type             X           Y           Z
 ---------------------------------------------------------------------
      1         35           0        3.736238   -2.212547    0.623486
      2          6           0        2.266844   -1.038689    0.285498
      3          6           0        0.996047   -1.488313    0.313395
      4          6           0       -0.158596   -0.634602    0.062270
      5          6           0       -1.447936   -1.173335    0.108266
      6          6           0       -2.558920   -0.363132   -0.130819
      7          6           0       -2.394995    0.991170   -0.417454
      8          6           0       -1.114197    1.539905   -0.466117
      9          6           0        0.002617    0.737757   -0.228983
     10          6           0        1.360521    1.314477   -0.279927
     11          8           0        1.595000    2.479594   -0.521514
     12          6           0        2.581728    0.364023   -0.005194
     13          8           0        3.701457    0.826577   -0.047155
     14          1           0        0.798502   -2.531839    0.530322
     15          1           0       -1.582055   -2.225401    0.330982
     16          1           0       -3.552745   -0.792858   -0.092403
     17          1           0       -3.259443    1.617027   -0.602217
     18          1           0       -0.970068    2.590185   -0.687337
 ---------------------------------------------------------------------

 SCF Done:  E(UB3LYP) =  -3108.79991958     A.U. after    1 cycles

 Alpha  occ. eigenvalues -- -482.84672 -62.49942 -56.31987 -56.31593 -56.31570
 Alpha  occ. eigenvalues --  -19.15316 -19.15256 -10.29708 -10.29585 -10.25590
 Alpha  occ. eigenvalues --  -10.23256 -10.22466 -10.21420 -10.20881 -10.20737
 Alpha  occ. eigenvalues --  -10.20646 -10.20288  -8.70906  -6.54070  -6.52760
 Alpha  occ. eigenvalues --   -6.52696  -2.65158  -2.64791  -2.64745  -2.63703
 Alpha  occ. eigenvalues --   -2.63702  -1.09708  -1.07012  -0.90781  -0.86535
 Alpha  occ. eigenvalues --   -0.80973  -0.79341  -0.75253  -0.72147  -0.64779
 Alpha  occ. eigenvalues --   -0.63543  -0.61292  -0.55945  -0.52807  -0.52100
 Alpha  occ. eigenvalues --   -0.48517  -0.47593  -0.47081  -0.46862  -0.45841
 Alpha  occ. eigenvalues --   -0.45104  -0.41876  -0.41648  -0.40246  -0.38862
 Alpha  occ. eigenvalues --   -0.37647  -0.35734  -0.32775  -0.31391  -0.30658
 Alpha  occ. eigenvalues --   -0.28871  -0.27780  -0.25799
 Alpha virt. eigenvalues --   -0.14275  -0.06581  -0.03103  -0.02841  -0.00620
 Alpha virt. eigenvalues --   -0.00405   0.00562   0.01203   0.02856   0.03051
 Alpha virt. eigenvalues --    0.04146   0.04310   0.05537   0.05560   0.05916

  Beta  occ. eigenvalues -- -482.84672 -62.49942 -56.31987 -56.31593 -56.31570
  Beta  occ. eigenvalues --  -19.15316 -19.15256 -10.29708 -10.29585 -10.25590
  Beta  occ. eigenvalues --  -10.23256 -10.22466 -10.21420 -10.20881 -10.20737
  Beta  occ. eigenvalues --  -10.20646 -10.20288  -8.70906  -6.54070  -6.52760
  Beta  occ. eigenvalues --   -6.52696  -2.65158  -2.64791  -2.64745  -2.63703
  Beta  occ. eigenvalues --   -2.63702  -1.09708  -1.07012  -0.90781  -0.86535
  Beta  occ. eigenvalues --   -0.80973  -0.79341  -0.75253  -0.72147  -0.64779
  Beta  occ. eigenvalues --   -0.63543  -0.61292  -0.55945  -0.52807  -0.52100
  Beta  occ. eigenvalues --   -0.48517  -0.47593  -0.47081  -0.46862  -0.45841
  Beta  occ. eigenvalues --   -0.45104  -0.41876  -0.41648  -0.40246  -0.38862
  Beta  occ. eigenvalues --   -0.37647  -0.35734  -0.32775  -0.31391  -0.30658
  Beta  occ. eigenvalues --   -0.28871  -0.27780  -0.25799
  Beta virt. eigenvalues --   -0.14275  -0.06581  -0.03103  -0.02841  -0.00620
  Beta virt. eigenvalues --   -0.00405   0.00562   0.01203   0.02856   0.03051
  Beta virt. eigenvalues --    0.04146   0.04310   0.05537   0.05560   0.05916

 Mulliken charges and spin densities:
               1          2
     1  Br  -0.110226   0.000000
     2  C    0.678703  -0.000000
     3  C   -0.257852  -0.000000
     4  C   -0.508981   0.000000
     5  C   -0.029172  -0.000000
     6  C   -0.323582   0.000000
     7  C   -0.315678  -0.000000
     8  C    0.276438  -0.000000
     9  C    0.792690  -0.000000
    10  C   -0.407008  -0.000000
    11  O   -0.259280  -0.000000
    12  C   -0.335007   0.000000
    13  O   -0.249033  -0.000000
    14  H    0.250031  -0.000000
    15  H    0.181320  -0.000000
    16  H    0.216363   0.000000
    17  H    0.214553  -0.000000
    18  H    0.185722   0.000000
 Sum of Mulliken charges =  -0.00000   0.00000

 Dipole moment (field-independent basis, Debye):
    X=             -8.7802    Y=             -4.2507    Z=              0.4492  Tot=              9.7654
 Quadrupole moment (field-independent basis, Debye-Ang):
   XX=           -101.2535   YY=            -88.4651   ZZ=            -87.6544
   XY=             -9.0872   XZ=              1.8611   YZ=             -0.0472

  Exact polarizability: 323.489 -10.576 207.527  14.947 -25.249 101.217
 Approx polarizability: 375.258   9.343 251.129  12.497 -29.950 119.145

                      1                      2                      3
                      A                      A                      A
 Frequencies --     50.2053                74.7134               137.5946
 Red. masses --     13.9366                 5.3028                 5.6201
 Frc consts  --      0.0207                 0.0174                 0.0627
 IR Inten    --      0.0429                 0.2723                 2.3185

                      4                      5                      6
                      A                      A                      A
 Frequencies --    157.0547               237.3515               267.3478
 Red. masses --     10.2654                19.1176                 6.5383
 Frc consts  --      0.1492                 0.6346                 0.2753
 IR Inten    --      0.6666                 0.0457                 1.5670

                      7                      8                      9
                      A                      A                      A
 Frequencies --    293.8412               309.7737               380.5224
 Red. masses --      6.5273                 4.0393                15.6634
 Frc consts  --      0.3321                 0.2284                 1.3363
 IR Inten    --      8.9193                 0.8768                 8.6068

                     10                     11                     12
                      A                      A                      A
 Frequencies --    404.4144               420.3374               502.9330
 Red. masses --      9.0922                 3.5155                 9.2686
 Frc consts  --      0.8761                 0.3660                 1.3813
 IR Inten    --      7.1414                 0.0170                 7.2411

                     13                     14                     15
                      A                      A                      A
 Frequencies --    519.2059               559.1518               587.0276
 Red. masses --      3.1462                 6.4411                 7.2319
 Frc consts  --      0.4997                 1.1865                 1.4683
 IR Inten    --     16.6806                37.3339                27.0483

                     16                     17                     18
                      A                      A                      A
 Frequencies --    663.0990               713.3706               725.7591
 Red. masses --      6.7335                 7.5372                 4.6372
 Frc consts  --      1.7444                 2.2599                 1.4391
 IR Inten    --     19.6504                14.7116                 0.5445

                     19                     20                     21
                      A                      A                      A
 Frequencies --    773.5111               791.7963               834.3757
 Red. masses --      1.2765                 8.3763                 4.9065
 Frc consts  --      0.4500                 3.0941                 2.0125
 IR Inten    --     75.2374               120.7061                 2.4761

                     22                     23                     24
                      A                      A                      A
 Frequencies --    890.3814               903.5318               946.5746
 Red. masses --      5.6764                 1.4500                 1.4336
 Frc consts  --      2.6514                 0.6974                 0.7568
 IR Inten    --     11.7877                 1.6838                20.9674

                     25                     26                     27
                      A                      A                      A
 Frequencies --    963.0879               995.0575              1021.9788
 Red. masses --      7.8018                 1.4116                 1.3422
 Frc consts  --      4.2636                 0.8235                 0.8259
 IR Inten    --     22.9223                 5.3233                 0.1155

                     28                     29                     30
                      A                      A                      A
 Frequencies --   1059.4056              1116.9476              1148.1032
 Red. masses --      2.1389                 2.3763                 2.6157
 Frc consts  --      1.4144                 1.7467                 2.0314
 IR Inten    --      0.6714                11.2490               134.9214

                     31                     32                     33
                      A                      A                      A
 Frequencies --   1186.0192              1240.0755              1247.8801
 Red. masses --      1.1169                 2.6380                 2.5819
 Frc consts  --      0.9256                 2.3901                 2.3688
 IR Inten    --      2.1444                11.8169               262.7639

                     34                     35                     36
                      A                      A                      A
 Frequencies --   1293.6046              1348.3770              1370.8930
 Red. masses --      1.9821                 5.9140                 1.8363
 Frc consts  --      1.9543                 6.3351                 2.0333
 IR Inten    --     51.3521                 6.8324               114.2611

                     37                     38                     39
                      A                      A                      A
 Frequencies --   1479.0898              1513.4532              1592.9070
 Red. masses --      2.2684                 2.6872                 6.4474
 Frc consts  --      2.9239                 3.6265                 9.6386
 IR Inten    --     29.3393                 2.2358                40.9097

                     40                     41                     42
                      A                      A                      A
 Frequencies --   1618.2026              1631.3037              1720.7042
 Red. masses --      5.6112                 6.4992                13.0472
 Frc consts  --      8.6571                10.1901                22.7605
 IR Inten    --    128.4134               115.2072               905.0567

                     43                     44                     45
                      A                      A                      A
 Frequencies --   1747.0920              3179.6443              3185.9772
 Red. masses --     12.8425                 1.0886                 1.0912
 Frc consts  --     23.0957                 6.4844                 6.5258
 IR Inten    --    105.4413                 0.5623                 2.4608

                     46                     47                     48
                      A                      A                      A
 Frequencies --   3189.5026              3197.3675              3205.3036
 Red. masses --      1.0905                 1.0933                 1.0970
 Frc consts  --      6.5362                 6.5853                 6.6406
 IR Inten    --      5.9785                 9.0155                18.2367

 - Thermochemistry -
 -------------------
 Temperature   298.150 Kelvin.  Pressure   1.00000 Atm.
 Atom     1 has atomic number 35 and mass  78.91834

 Molecular mass:   235.94729 amu.
 Principal axes and moments of inertia in atomic units:
                           1         2         3
     Eigenvalues --  1460.240795023.365206483.60460
           X            0.88368   0.46497  -0.05393
           Y           -0.44466   0.86985   0.21362
           Z            0.14624  -0.16479   0.97543
 This molecule is an asymmetric top.
 Rotational symmetry number  1.
 Warning -- assumption of classical behavior for rotation
           may cause significant error
 Rotational temperatures (Kelvin)      0.05931     0.01724     0.01336
 Rotational constants (GHZ):           1.23592     0.35927     0.27835
 Zero-point vibrational energy     319378.1 (Joules/Mol)
                                   76.33320 (Kcal/Mol)
 Warning -- explicit consideration of  15 degrees of freedom as
           vibrations may cause significant error
 Vibrational temperatures:     72.23   107.50   197.97   225.97   341.50
          (Kelvin)            384.65   422.77   445.70   547.49   581.86
                              604.77   723.61   747.02   804.49   844.60
                              954.05  1026.38  1044.21  1112.91  1139.22
                             1200.48  1281.06  1299.98  1361.91  1385.67
                             1431.67  1470.40  1524.25  1607.04  1651.86
                             1706.42  1784.19  1795.42  1861.21  1940.01
                             1972.41  2128.08  2177.52  2291.84  2328.23
                             2347.08  2475.71  2513.68  4574.80  4583.91
                             4588.98  4600.30  4611.72

 Zero-point correction=                           0.121645 (Hartree/Particle)
 Thermal correction to Energy=                    0.131917
 Thermal correction to Enthalpy=                  0.132861
 Thermal correction to Gibbs Free Energy=         0.084015
 Sum of electronic and zero-point Energies=          -3108.678275
 Sum of electronic and thermal Energies=             -3108.668003
 Sum of electronic and thermal Enthalpies=           -3108.667059
 Sum of electronic and thermal Free Energies=        -3108.715905

                     E (Thermal)             CV                S
                      KCal/Mol        Cal/Mol-Kelvin    Cal/Mol-Kelvin
 Total                   82.779             38.801            102.805
 Electronic               0.000              0.000              0.000
 Translational            0.889              2.981             42.277
 Rotational               0.889              2.981             32.231
 Vibrational             81.001             32.840             28.298
 Vibration     1          0.595              1.978              4.809
 Vibration     2          0.599              1.966              4.025
 Vibration     3          0.614              1.916              2.837
 Vibration     4          0.621              1.895              2.585
 Vibration     5          0.656              1.783              1.823
 Vibration     6          0.672              1.733              1.613
 Vibration     7          0.689              1.685              1.452
 Vibration     8          0.699              1.655              1.364
 Vibration     9          0.750              1.512              1.037
 Vibration    10          0.770              1.461              0.947
 Vibration    11          0.783              1.426              0.891
 Vibration    12          0.858              1.244              0.651
 Vibration    13          0.874              1.207              0.612
 Vibration    14          0.915              1.120              0.526
 Vibration    15          0.944              1.059              0.473

 Optimization completed.
    -- Stationary point found.
 Normal termination of Gaussian 16 at Sun Feb 11 15:44:28 2024.
