 Q-Chem 5.4, Q-Chem, Inc., Pleasanton, CA (2021)
 Q-Chem 5.4.0 for Intel X86 EM64T Linux

User input:
--------------------------------------------------------------
$molecule
-2 1
N                 -2.9167040000      1.8999430000      0.0681160000
C                 -2.5288940000      0.5468280000      0.0463240000
C                 -3.4930000000     -0.4530720000      0.0366780000
C                 -3.1185180000     -1.8199470000     -0.0619520000
C                 -1.7913910000     -2.1641370000     -0.1597290000
C                 -0.7610120000     -1.1820960000     -0.1351620000
C                  0.6100140000     -1.6396550000     -0.2122050000
O                  0.9227300000     -2.8835540000     -0.3366010000
C                  1.6030100000     -0.5950680000     -0.1277720000
C                  2.9799420000     -0.9331800000     -0.1861560000
C                  3.9794230000      0.0135690000     -0.0976430000
C                  3.6310120000      1.3878230000      0.0598440000
C                  2.3024850000      1.7516260000      0.1225790000
C                  1.2477570000      0.8025890000      0.0319210000
C                 -0.1150400000      1.2543610000      0.1033760000
O                 -0.3912080000      2.5245260000      0.2755040000
C                 -1.1203770000      0.2242520000     -0.0094000000
H                 -3.7113160000      2.0722520000      0.6699270000
H                 -2.0759490000      2.4834930000      0.2579690000
H                 -4.5444910000     -0.1679740000      0.0547070000
H                 -3.8909090000     -2.5884800000     -0.0723900000
H                 -1.4700810000     -3.1962150000     -0.2495980000
H                  3.2081840000     -1.9885580000     -0.3034290000
H                  5.0262690000     -0.2832790000     -0.1473560000
H                  4.4113190000      2.1447360000      0.1296250000
H                  2.0067450000      2.7892180000      0.2428240000
$end

$rem
BASIS  =  6-311++G(d,p)
GUI  =  2
JOB_TYPE  =  SP
METHOD  =  B3LYP
SCF_CONVERGENCE  = 8
SOLVENT_METHOD = sm12
$end

$smx
solvent dimethylformamide
charges CM5
$end

--------------------------------------------------------------

             Standard Nuclear Orientation (Angstroms)
    I     Atom           X                Y                Z
 ----------------------------------------------------------------
    1      N      -2.9167040000     1.8999430000     0.0681160000
    2      C      -2.5288940000     0.5468280000     0.0463240000
    3      C      -3.4930000000    -0.4530720000     0.0366780000
    4      C      -3.1185180000    -1.8199470000    -0.0619520000
    5      C      -1.7913910000    -2.1641370000    -0.1597290000
    6      C      -0.7610120000    -1.1820960000    -0.1351620000
    7      C       0.6100140000    -1.6396550000    -0.2122050000
    8      O       0.9227300000    -2.8835540000    -0.3366010000
    9      C       1.6030100000    -0.5950680000    -0.1277720000
   10      C       2.9799420000    -0.9331800000    -0.1861560000
   11      C       3.9794230000     0.0135690000    -0.0976430000
   12      C       3.6310120000     1.3878230000     0.0598440000
   13      C       2.3024850000     1.7516260000     0.1225790000
   14      C       1.2477570000     0.8025890000     0.0319210000
   15      C      -0.1150400000     1.2543610000     0.1033760000
   16      O      -0.3912080000     2.5245260000     0.2755040000
   17      C      -1.1203770000     0.2242520000    -0.0094000000
   18      H      -3.7113160000     2.0722520000     0.6699270000
   19      H      -2.0759490000     2.4834930000     0.2579690000
   20      H      -4.5444910000    -0.1679740000     0.0547070000
   21      H      -3.8909090000    -2.5884800000    -0.0723900000
   22      H      -1.4700810000    -3.1962150000    -0.2495980000
   23      H       3.2081840000    -1.9885580000    -0.3034290000
   24      H       5.0262690000    -0.2832790000    -0.1473560000
   25      H       4.4113190000     2.1447360000     0.1296250000
   26      H       2.0067450000     2.7892180000     0.2428240000
 ----------------------------------------------------------------

   18    -744.2989288561      2.91e-09  Convergence criterion met
 Total energy in the final basis set =     -744.5852472289

                    Orbital Energies (a.u.)
 --------------------------------------------------------------

 Alpha MOs
 -- Occupied --
-19.0404 -19.0309 -14.2997 -10.2121 -10.1970 -10.1903 -10.1754 -10.1749
-10.1733 -10.1708 -10.1705 -10.1636 -10.1623 -10.1584 -10.1582 -10.1568
-10.1561  -0.9562  -0.9465  -0.9007  -0.8461  -0.8266  -0.7732  -0.7453
 -0.7273  -0.7211  -0.6567  -0.6293  -0.6146  -0.5757  -0.5478  -0.5366
 -0.5182  -0.4886  -0.4667  -0.4609  -0.4532  -0.4379  -0.4283  -0.4203
 -0.4020  -0.3971  -0.3835  -0.3766  -0.3704  -0.3690  -0.3489  -0.3414
 -0.3369  -0.3255  -0.3202  -0.2982  -0.2500  -0.2396  -0.2386  -0.2205
 -0.2095  -0.2042  -0.1231

          Ground-State Mulliken Net Atomic Charges

     Atom                 Charge (a.u.)
  ----------------------------------------
      1 N                    -0.204947
      2 C                    -0.474456
      3 C                     2.568163
      4 C                     1.380306
      5 C                    -0.621014
      6 C                    -1.329644
      7 C                    -2.593777
      8 O                    -0.324766
      9 C                    -1.728981
     10 C                    -0.025338
     11 C                     1.833207
     12 C                     1.675227
     13 C                     0.410990
     14 C                    -1.084293
     15 C                    -2.209047
     16 O                    -0.262773
     17 C                    -1.615921
     18 H                     0.386203
     19 H                     0.292052
     20 H                     0.335890
     21 H                     0.401403
     22 H                     0.086647
     23 H                     0.118299
     24 H                     0.410096
     25 H                     0.416931
     26 H                     0.159544
  ----------------------------------------
  Sum of atomic charges =    -2.000000

                    Cartesian Multipole Moments
 -----------------------------------------------------------------
    Charge (ESU x 10^10)
                -9.6064
    Dipole Moment (Debye)
         X      -1.3349      Y       3.0504      Z       1.4423
       Tot       3.6287
    Quadrupole Moments (Debye-Ang)
        XX    -142.7267     XY       3.8763     YY    -158.0230
        XZ      -2.7586     YZ      -2.0799     ZZ    -114.8234

 Total job time:  647.86s(wall), 4876.96s(cpu)
        *  Thank you very much for using Q-Chem.  Have a nice day.  *
