 Gaussian 16, Revision A.03,
 Gaussian 16:  ES64L-G16RevA.03 25-Dec-2016

 --------------------------------------
 #P UB3LYP/6-311++G(d,p) nosym opt freq
 --------------------------------------

 -------
 Reduced
 -------
 Symbolic Z-matrix:
 Charge = -3 Multiplicity = 1

 SCF Done:  E(UB3LYP) =  -1316.71875897     A.U. after   41 cycles
 Optimization completed.
    -- Stationary point found.
 Normal termination of Gaussian 16 at Tue Jan  9 22:09:43 2024.

 ----------------------------------------------------------------------
 #P Geom=AllCheck Guess=TCheck SCRF=Check GenChk UB3LYP/6-311++G(d,p) F
 req
 ----------------------------------------------------------------------

 Structure from the checkpoint file:  "342-an.chk"
 -------
 Reduced
 -------
 Charge = -3 Multiplicity = 1

                          Input orientation:
 ---------------------------------------------------------------------
 Center     Atomic      Atomic             Coordinates (Angstroms)
 Number     Number       Type             X           Y           Z
 ---------------------------------------------------------------------
      1          6           0       -3.472050    2.443954    1.136821
      2          6           0       -4.205411    2.316024    2.304493
      3          6           0       -3.823003    1.368420    3.261085
      4          6           0       -2.319468    1.653451    0.893407
      5          6           0       -1.961342    0.659183    1.836888
      6          6           0       -2.725044    0.542689    3.003150
      7          6           0       -1.567087    1.877494   -0.346260
      8          6           0       -0.416015    0.994945   -0.610158
      9          6           0       -0.025509   -0.018512    0.297911
     10          6           0       -0.748646   -0.263329    1.633562
     11          6           0        0.304361    1.166124   -1.817487
     12          6           0        1.402658    0.375303   -2.118797
     13          6           0        1.802533   -0.614973   -1.218086
     14          6           0        1.084941   -0.801803   -0.035259
     15          8           0       -1.911365    2.762013   -1.165484
     16         16           0        2.357213    0.620138   -3.666860
     17          8           0        1.356763    0.584791   -4.771069
     18          8           0        3.028331    1.944727   -3.523219
     19          8           0        3.320993   -0.521889   -3.705952
     20          6           0        0.257550   -0.011816    2.790771
     21          6           0       -1.220862   -1.747416    1.693858
     22          1           0       -3.745624    3.165139    0.375309
     23          1           0       -5.077260    2.945837    2.479724
     24          1           0       -4.383254    1.255444    4.186784
     25          1           0       -2.459893   -0.202558    3.746070
     26          1           0       -0.032990    1.936455   -2.498895
     27          1           0        2.659277   -1.231730   -1.459647
     28          1           0        1.414383   -1.582853    0.643184
     29          1           0        0.586831    1.031700    2.786407
     30          1           0        1.140687   -0.648111    2.689654
     31          1           0       -0.191025   -0.225608    3.764095
     32          1           0       -0.380547   -2.437404    1.566822
     33          1           0       -1.949098   -1.949410    0.903453
     34          1           0       -1.687070   -1.981978    2.655292
 ---------------------------------------------------------------------

 SCF Done:  E(UB3LYP) =  -1316.71875897     A.U. after    7 cycles

 Alpha  occ. eigenvalues --  -88.74390 -18.79390 -18.78824 -18.78677 -18.78649
 Alpha  occ. eigenvalues --   -9.94690  -9.93405  -9.91221  -9.91086  -9.90964
 Alpha  occ. eigenvalues --   -9.90164  -9.90055  -9.89950  -9.89872  -9.89790
 Alpha  occ. eigenvalues --   -9.89784  -9.89713  -9.89706  -9.89591  -9.89306
 Alpha  occ. eigenvalues --   -9.89267  -7.80241  -5.76510  -5.76496  -5.76435
 Alpha  occ. eigenvalues --   -0.80261  -0.71834  -0.66675  -0.66523  -0.60031
 Alpha  occ. eigenvalues --   -0.57727  -0.54181  -0.49254  -0.47577  -0.46654
 Alpha  occ. eigenvalues --   -0.45582  -0.42629  -0.37240  -0.36802  -0.34499
 Alpha  occ. eigenvalues --   -0.31937  -0.29940  -0.28803  -0.25689  -0.23732
 Alpha  occ. eigenvalues --   -0.21023  -0.19408  -0.18968  -0.18136  -0.17099
 Alpha  occ. eigenvalues --   -0.16533  -0.16313  -0.15038  -0.14767  -0.14416
 Alpha  occ. eigenvalues --   -0.13687  -0.13574  -0.13167  -0.12447  -0.11670
 Alpha  occ. eigenvalues --   -0.10657  -0.09222  -0.08721  -0.08623  -0.07687
 Alpha  occ. eigenvalues --   -0.06277  -0.05757  -0.04539  -0.02956  -0.02808
 Alpha  occ. eigenvalues --   -0.00456   0.00671   0.01076   0.02254   0.02596
 Alpha  occ. eigenvalues --    0.02648   0.03820   0.04248   0.05008   0.18424
 Alpha virt. eigenvalues --    0.20135   0.20285   0.21785   0.22524   0.23123
 Alpha virt. eigenvalues --    0.24442   0.24909   0.25097   0.25575   0.25603
 Alpha virt. eigenvalues --    0.26439   0.26753   0.27101   0.27285   0.27989

  Beta  occ. eigenvalues --  -88.74390 -18.79390 -18.78824 -18.78677 -18.78649
  Beta  occ. eigenvalues --   -9.94690  -9.93405  -9.91221  -9.91086  -9.90964
  Beta  occ. eigenvalues --   -9.90164  -9.90055  -9.89950  -9.89872  -9.89790
  Beta  occ. eigenvalues --   -9.89784  -9.89713  -9.89706  -9.89591  -9.89306
  Beta  occ. eigenvalues --   -9.89267  -7.80241  -5.76510  -5.76496  -5.76435
  Beta  occ. eigenvalues --   -0.80261  -0.71834  -0.66675  -0.66523  -0.60031
  Beta  occ. eigenvalues --   -0.57727  -0.54181  -0.49254  -0.47577  -0.46654
  Beta  occ. eigenvalues --   -0.45582  -0.42629  -0.37240  -0.36802  -0.34499
  Beta  occ. eigenvalues --   -0.31937  -0.29940  -0.28803  -0.25689  -0.23732
  Beta  occ. eigenvalues --   -0.21023  -0.19408  -0.18968  -0.18136  -0.17099
  Beta  occ. eigenvalues --   -0.16533  -0.16313  -0.15038  -0.14767  -0.14416
  Beta  occ. eigenvalues --   -0.13687  -0.13574  -0.13167  -0.12447  -0.11670
  Beta  occ. eigenvalues --   -0.10657  -0.09222  -0.08721  -0.08623  -0.07687
  Beta  occ. eigenvalues --   -0.06277  -0.05757  -0.04539  -0.02956  -0.02808
  Beta  occ. eigenvalues --   -0.00456   0.00671   0.01076   0.02254   0.02596
  Beta  occ. eigenvalues --    0.02648   0.03820   0.04248   0.05008   0.18424
  Beta virt. eigenvalues --    0.20135   0.20285   0.21785   0.22524   0.23123
  Beta virt. eigenvalues --    0.24442   0.24909   0.25097   0.25575   0.25603
  Beta virt. eigenvalues --    0.26439   0.26753   0.27101   0.27285   0.27989

 Mulliken charges and spin densities:
               1          2
     1  C   -0.822259   0.000000
     2  C    1.578163   0.000000
     3  C    4.948858  -0.000000
     4  C   -0.009455  -0.000000
     5  C   -1.874485   0.000000
     6  C   -2.541391  -0.000000
     7  C   -0.750242   0.000000
     8  C    0.867421  -0.000000
     9  C    1.100837   0.000000
    10  C   -1.689605   0.000000
    11  C   -0.318553   0.000000
    12  C   -0.479546  -0.000000
    13  C    0.118924  -0.000000
    14  C    0.338795   0.000000
    15  O   -0.364219  -0.000000
    16  S    0.852823   0.000000
    17  O   -0.328410   0.000000
    18  O   -0.317168   0.000000
    19  O   -0.394268   0.000000
    20  C    1.693701  -0.000000
    21  C    2.577245  -0.000000
    22  H    0.214508   0.000000
    23  H   -2.007038  -0.000000
    24  H   -2.686654  -0.000000
    25  H    0.721869   0.000000
    26  H    0.198270  -0.000000
    27  H    0.133280   0.000000
    28  H   -0.149799  -0.000000
    29  H    0.189052  -0.000000
    30  H   -0.312231   0.000000
    31  H   -1.206783   0.000000
    32  H   -0.749923   0.000000
    33  H    0.240171  -0.000000
    34  H   -1.771889   0.000000
 Sum of Mulliken charges =  -3.00000   0.00000

 Dipole moment (field-independent basis, Debye):
    X=             13.8622    Y=            -10.1176    Z=             -5.6106  Tot=             18.0556
 Quadrupole moment (field-independent basis, Debye-Ang):
   XX=           -345.8119   YY=           -241.7803   ZZ=           -381.6411
   XY=             46.7519   XZ=            143.2392   YZ=              7.4288

  Exact polarizability:2489.334********2019.742-183.977-101.8001670.774
 Approx polarizability:6455.654********5580.239********-729.5674509.087

                      1                      2                      3
                      A                      A                      A
 Frequencies --      7.0096                33.2682                57.0616
 Red. masses --     12.1101                 5.7503                 4.9202
 Frc consts  --      0.0004                 0.0037                 0.0094
 IR Inten    --      0.1458                 6.7204                 3.4966

                      4                      5                      6
                      A                      A                      A
 Frequencies --    100.4345               105.9435               140.2713
 Red. masses --      3.7721                 8.9066                 6.6879
 Frc consts  --      0.0224                 0.0589                 0.0775
 IR Inten    --      0.7687                 0.7805                 0.7263

                      7                      8                      9
                      A                      A                      A
 Frequencies --    165.8812               197.5792               199.4693
 Red. masses --      5.7008                 6.0465                 2.0375
 Frc consts  --      0.0924                 0.1391                 0.0478
 IR Inten    --     20.5040                 3.1453                 7.1698

                     10                     11                     12
                      A                      A                      A
 Frequencies --    230.9578               256.7044               270.9594
 Red. masses --      6.2509                 1.8968                 1.2939
 Frc consts  --      0.1965                 0.0736                 0.0560
 IR Inten    --      1.2241                22.3852                13.2846

                     13                     14                     15
                      A                      A                      A
 Frequencies --    287.1775               301.9992               306.6542
 Red. masses --      2.8688                 2.6800                 3.1849
 Frc consts  --      0.1394                 0.1440                 0.1765
 IR Inten    --      1.1774                11.8100                 5.7643

                     16                     17                     18
                      A                      A                      A
 Frequencies --    346.0963               349.9182               377.9730
 Red. masses --      3.4316                 4.3146                 7.1279
 Frc consts  --      0.2422                 0.3113                 0.6000
 IR Inten    --     60.5868                16.1301                15.5747

                     19                     20                     21
                      A                      A                      A
 Frequencies --    391.9353               408.8709               418.0625
 Red. masses --      3.9643                 6.2709                 4.7570
 Frc consts  --      0.3588                 0.6177                 0.4898
 IR Inten    --     59.9728                18.2325                 1.1409

                     22                     23                     24
                      A                      A                      A
 Frequencies --    441.9048               467.3087               504.7006
 Red. masses --      6.9905                 3.8240                 8.3228
 Frc consts  --      0.8043                 0.4920                 1.2491
 IR Inten    --     28.5444                16.6128                 7.7632

                     25                     26                     27
                      A                      A                      A
 Frequencies --    505.7032               518.9586               560.5109
 Red. masses --      4.6944                12.6371                 3.5996
 Frc consts  --      0.7073                 2.0052                 0.6663
 IR Inten    --     22.9201                 3.7158                44.5940

                     28                     29                     30
                      A                      A                      A
 Frequencies --    597.5172               606.6607               621.3858
 Red. masses --      9.9990                 3.6398                 5.2523
 Frc consts  --      2.1033                 0.7893                 1.1949
 IR Inten    --    520.7310                 5.9354                18.9171

                     31                     32                     33
                      A                      A                      A
 Frequencies --    646.7690               665.2550               683.7615
 Red. masses --      6.9180                 5.1860                 4.9933
 Frc consts  --      1.7050                 1.3522                 1.3755
 IR Inten    --     47.5753                55.1039                25.2194

                     34                     35                     36
                      A                      A                      A
 Frequencies --    695.0172               751.6095               790.2769
 Red. masses --      6.6605                 4.2442                 4.4994
 Frc consts  --      1.8956                 1.4126                 1.6556
 IR Inten    --     14.8850                12.3161                 8.0919

                     37                     38                     39
                      A                      A                      A
 Frequencies --    791.0833               822.2206               833.4944
 Red. masses --      5.0885                 3.0921                 1.4145
 Frc consts  --      1.8762                 1.2316                 0.5790
 IR Inten    --      9.5652                10.7964                23.0992

                     40                     41                     42
                      A                      A                      A
 Frequencies --    859.8828               879.0994               912.6675
 Red. masses --      1.4210                 1.4049                 2.9150
 Frc consts  --      0.6191                 0.6397                 1.4306
 IR Inten    --    278.9327                29.2944               107.6423

                     43                     44                     45
                      A                      A                      A
 Frequencies --    918.3390               930.4717               945.4854
 Red. masses --      1.4583                 1.6223                 8.3633
 Frc consts  --      0.7246                 0.8276                 4.4049
 IR Inten    --      8.6282               100.4685               247.7485

                     46                     47                     48
                      A                      A                      A
 Frequencies --    957.7520               982.8724              1021.7107
 Red. masses --      1.3407                 8.6173                 1.3126
 Frc consts  --      0.7246                 4.9048                 0.8073
 IR Inten    --     14.1834               344.2668                63.0820

                     49                     50                     51
                      A                      A                      A
 Frequencies --   1032.1722              1043.5336              1063.0440
 Red. masses --      1.2833                 2.4841                 1.2649
 Frc consts  --      0.8056                 1.5938                 0.8422
 IR Inten    --     19.9394                14.2966               570.9445

                     52                     53                     54
                      A                      A                      A
 Frequencies --   1074.2446              1097.5446              1107.5927
 Red. masses --      2.8761                 2.3750                 1.6491
 Frc consts  --      1.9555                 1.6856                 1.1920
 IR Inten    --    220.5904                14.9681                97.3974

                     55                     56                     57
                      A                      A                      A
 Frequencies --   1119.0174              1131.8923              1134.8112
 Red. masses --      2.6464                 3.3225                 3.1807
 Frc consts  --      1.9524                 2.5080                 2.4133
 IR Inten    --     48.9495                13.2098                20.9109

                     58                     59                     60
                      A                      A                      A
 Frequencies --   1141.0573              1149.1118              1166.0369
 Red. masses --      9.9593                 2.6511                 1.1624
 Frc consts  --      7.6400                 2.0626                 0.9311
 IR Inten    --    195.0817               197.4659                17.8582

                     61                     62                     63
                      A                      A                      A
 Frequencies --   1180.9031              1211.6762              1219.5007
 Red. masses --      2.4674                 2.7142                 1.9342
 Frc consts  --      2.0273                 2.3478                 1.6948
 IR Inten    --    286.2196               108.1572                89.1723

                     64                     65                     66
                      A                      A                      A
 Frequencies --   1269.4968              1278.2170              1303.1980
 Red. masses --      2.4332                 1.9678                 2.1855
 Frc consts  --      2.3104                 1.8943                 2.1869
 IR Inten    --     33.5863               196.9050                60.3719

                     67                     68                     69
                      A                      A                      A
 Frequencies --   1326.4414              1343.9179              1385.9464
 Red. masses --      9.0359                 7.8127                 1.1947
 Frc consts  --      9.3669                 8.3137                 1.3521
 IR Inten    --     10.0965                22.3200               609.7091

                     70                     71                     72
                      A                      A                      A
 Frequencies --   1393.9584              1411.7638              1448.9714
 Red. masses --      3.9876                 1.2133                 2.2142
 Frc consts  --      4.5652                 1.4248                 2.7390
 IR Inten    --    442.7989               251.2441               959.9156

                     73                     74                     75
                      A                      A                      A
 Frequencies --   1479.5442              1482.9268              1485.4494
 Red. masses --      1.0831                 1.9108                 1.0724
 Frc consts  --      1.3969                 2.4757                 1.3942
 IR Inten    --     16.7071                45.6373                16.3214

                     76                     77                     78
                      A                      A                      A
 Frequencies --   1494.4797              1497.8543              1506.2978
 Red. masses --      1.7258                 1.3368                 1.2440
 Frc consts  --      2.2711                 1.7671                 1.6630
 IR Inten    --    344.7738               274.4395                59.2087

                     79                     80                     81
                      A                      A                      A
 Frequencies --   1518.8818              1556.5174              1575.7618
 Red. masses --      5.2267                 5.2036                 6.9028
 Frc consts  --      7.1043                 7.4278                10.0984
 IR Inten    --   2329.2642                 2.5064               367.4618

                     82                     83                     84
                      A                      A                      A
 Frequencies --   1590.5856              1614.8104              3007.4534
 Red. masses --      5.0407                 6.3227                 1.0345
 Frc consts  --      7.5137                 9.7140                 5.5129
 IR Inten    --     69.9091                68.8184                32.6376

                     85                     86                     87
                      A                      A                      A
 Frequencies --   3018.0844              3071.1441              3081.9898
 Red. masses --      1.0347                 1.1006                 1.1015
 Frc consts  --      5.5530                 6.1160                 6.1647
 IR Inten    --      8.1200                10.8931                84.0663

                     88                     89                     90
                      A                      A                      A
 Frequencies --   3086.4892              3089.1024              3103.5269
 Red. masses --      1.1025                 1.1014                 1.0884
 Frc consts  --      6.1881                 6.1926                 6.1763
 IR Inten    --      5.1758                14.0061               546.4686

                     91                     92                     93
                      A                      A                      A
 Frequencies --   3131.3761              3141.1953              3144.8097
 Red. masses --      1.0901                 1.0874                 1.0916
 Frc consts  --      6.2979                 6.3214                 6.3608
 IR Inten    --    270.9914                11.5145                24.9128

                     94                     95                     96
                      A                      A                      A
 Frequencies --   3176.4367              3191.0703              3203.6699
 Red. masses --      1.0899                 1.0908                 1.0890
 Frc consts  --      6.4790                 6.5441                 6.5851
 IR Inten    --      4.2055                10.3607                 1.0219

 - Thermochemistry -
 -------------------
 Temperature   298.150 Kelvin.  Pressure   1.00000 Atm.
 Atom     1 has atomic number  6 and mass  12.00000

 Molecular mass:   301.05346 amu.
 Principal axes and moments of inertia in atomic units:
                           1         2         3
     Eigenvalues --  2629.13424********************
           X           -0.66283  -0.45686   0.59324
           Y            0.07732   0.74629   0.66112
           Z            0.74477  -0.48408   0.45934
 This molecule is an asymmetric top.
 Rotational symmetry number  1.
 Warning -- assumption of classical behavior for rotation
           may cause significant error
 Rotational temperatures (Kelvin)      0.03294     0.00758     0.00651
 Rotational constants (GHZ):           0.68644     0.15804     0.13566
 Zero-point vibrational energy     664825.6 (Joules/Mol)
                                  158.89712 (Kcal/Mol)
 Warning -- explicit consideration of  29 degrees of freedom as
           vibrations may cause significant error
 Vibrational temperatures:     10.09    47.87    82.10   144.50   152.43
          (Kelvin)            201.82   238.67   284.27   286.99   332.30
                              369.34   389.85   413.18   434.51   441.21
                              497.96   503.45   543.82   563.91   588.27
                              601.50   635.80   672.35   726.15   727.59
                              746.67   806.45   859.69   872.85   894.04
                              930.56   957.15   983.78   999.97  1081.40
                             1137.03  1138.19  1182.99  1199.21  1237.18
                             1264.83  1313.12  1321.29  1338.74  1360.34
                             1377.99  1414.13  1470.01  1485.07  1501.41
                             1529.48  1545.60  1579.12  1593.58  1610.02
                             1628.54  1632.74  1641.73  1653.32  1677.67
                             1699.06  1743.33  1754.59  1826.52  1839.07
                             1875.01  1908.45  1933.60  1994.07  2005.60
                             2031.21  2084.75  2128.73  2133.60  2137.23
                             2150.22  2155.08  2167.23  2185.33  2239.48
                             2267.17  2288.50  2323.35  4327.05  4342.35
                             4418.69  4434.30  4440.77  4444.53  4465.28
                             4505.35  4519.48  4524.68  4570.18  4591.24
                             4609.37

 Zero-point correction=                           0.253219 (Hartree/Particle)
 Thermal correction to Energy=                    0.270842
 Thermal correction to Enthalpy=                  0.271786
 Thermal correction to Gibbs Free Energy=         0.206090
 Sum of electronic and zero-point Energies=          -1316.465540
 Sum of electronic and thermal Energies=             -1316.447917
 Sum of electronic and thermal Enthalpies=           -1316.446973
 Sum of electronic and thermal Free Energies=        -1316.512669

                     E (Thermal)             CV                S
                      KCal/Mol        Cal/Mol-Kelvin    Cal/Mol-Kelvin
 Total                  169.956             69.942            138.268
 Electronic               0.000              0.000              0.000
 Translational            0.889              2.981             43.003
 Rotational               0.889              2.981             34.345
 Vibrational            168.178             63.981             60.919
 Vibration     1          0.593              1.987              8.717
 Vibration     2          0.594              1.983              5.624
 Vibration     3          0.596              1.975              4.556
 Vibration     4          0.604              1.949              3.446
 Vibration     5          0.605              1.944              3.342
 Vibration     6          0.615              1.913              2.800
 Vibration     7          0.624              1.884              2.482
 Vibration     8          0.637              1.843              2.156
 Vibration     9          0.638              1.841              2.138
 Vibration    10          0.653              1.794              1.871
 Vibration    11          0.666              1.751              1.684
 Vibration    12          0.675              1.727              1.590
 Vibration    13          0.684              1.698              1.491
 Vibration    14          0.694              1.670              1.406
 Vibration    15          0.697              1.661              1.380
 Vibration    16          0.724              1.583              1.184
 Vibration    17          0.727              1.575              1.167
 Vibration    18          0.748              1.517              1.047
 Vibration    19          0.759              1.487              0.993
 Vibration    20          0.773              1.451              0.931
 Vibration    21          0.781              1.431              0.899
 Vibration    22          0.802              1.379              0.821
 Vibration    23          0.825              1.323              0.745
 Vibration    24          0.860              1.240              0.646
 Vibration    25          0.861              1.237              0.644
 Vibration    26          0.874              1.208              0.612
 Vibration    27          0.916              1.117              0.523
 Vibration    28          0.955              1.037              0.454
 Vibration    29          0.965              1.018              0.438

 Optimization completed.
    -- Stationary point found.
 Normal termination of Gaussian 16 at Tue Jan  9 23:29:49 2024.
