 Q-Chem 5.4, Q-Chem, Inc., Pleasanton, CA (2021)
 Q-Chem 5.4.0 for Intel X86 EM64T Linux

User input:
--------------------------------------------------------------
$molecule
-3 1
C                 -3.4720500000      2.4439540000      1.1368210000
C                 -4.2054110000      2.3160240000      2.3044930000
C                 -3.8230030000      1.3684200000      3.2610850000
C                 -2.3194680000      1.6534510000      0.8934070000
C                 -1.9613420000      0.6591830000      1.8368880000
C                 -2.7250440000      0.5426890000      3.0031500000
C                 -1.5670870000      1.8774940000     -0.3462600000
C                 -0.4160150000      0.9949450000     -0.6101580000
C                 -0.0255090000     -0.0185120000      0.2979110000
C                 -0.7486460000     -0.2633290000      1.6335620000
C                  0.3043610000      1.1661240000     -1.8174870000
C                  1.4026580000      0.3753030000     -2.1187970000
C                  1.8025330000     -0.6149730000     -1.2180860000
C                  1.0849410000     -0.8018030000     -0.0352590000
O                 -1.9113650000      2.7620130000     -1.1654840000
S                  2.3572130000      0.6201380000     -3.6668600000
O                  1.3567630000      0.5847910000     -4.7710690000
O                  3.0283310000      1.9447270000     -3.5232190000
O                  3.3209930000     -0.5218890000     -3.7059520000
C                  0.2575500000     -0.0118160000      2.7907710000
C                 -1.2208620000     -1.7474160000      1.6938580000
H                 -3.7456240000      3.1651390000      0.3753090000
H                 -5.0772600000      2.9458370000      2.4797240000
H                 -4.3832540000      1.2554440000      4.1867840000
H                 -2.4598930000     -0.2025580000      3.7460700000
H                 -0.0329900000      1.9364550000     -2.4988950000
H                  2.6592770000     -1.2317300000     -1.4596470000
H                  1.4143830000     -1.5828530000      0.6431840000
H                  0.5868310000      1.0317000000      2.7864070000
H                  1.1406870000     -0.6481110000      2.6896540000
H                 -0.1910250000     -0.2256080000      3.7640950000
H                 -0.3805470000     -2.4374040000      1.5668220000
H                 -1.9490980000     -1.9494100000      0.9034530000
H                 -1.6870700000     -1.9819780000      2.6552920000
$end
$rem
MAX_SCF_CYCLES=200
BASIS  =  6-311++G(d,p)
GUI  =  2
JOB_TYPE  =  SP
METHOD  =  B3LYP
SOLVENT_METHOD = COSMO
$end
$solvent
dielectric 37.219
opticaldielectric 1.43
$end

--------------------------------------------------------------

             Standard Nuclear Orientation (Angstroms)
    I     Atom           X                Y                Z
 ----------------------------------------------------------------
    1      C       3.4358649528    -2.0559626260    -0.0462946613
    2      C       4.7832110063    -1.7365394914    -0.0298686382
    3      C       5.1751590006    -0.3933621672     0.0089761710
    4      C       2.4341465564    -1.0525791131     0.0024127848
    5      C       2.8288945496     0.3079349921    -0.0100321590
    6      C       4.1960775123     0.6041793679    -0.0046781117
    7      C       1.0275534090    -1.4695890753     0.0278118992
    8      C       0.0047292737    -0.4080681497     0.0053229304
    9      C       0.3502130732     0.9646400222    -0.0168706447
   10      C       1.8076542197     1.4567744483     0.0053799499
   11      C      -1.3604676498    -0.7848127218    -0.0083895874
   12      C      -2.3695956806     0.1659749146    -0.0186540011
   13      C      -2.0340855496     1.5221599847    -0.0233321508
   14      C      -0.6901881961     1.9000811912    -0.0295694779
   15      O       0.7083717882    -2.6820768119     0.0328859714
   16      S      -4.1386046378    -0.3217952774    -0.0011603932
   17      O      -4.3051368181    -1.2870080228    -1.1245741716
   18      O      -4.3768132801    -0.9321655491     1.3390906653
   19      O      -4.8889256417     0.9552413221    -0.2032040921
   20      C       2.0259551089     2.2888204438     1.2995461032
   21      C       2.0550183957     2.3758013093    -1.2288559980
   22      H       3.1010161696    -3.0862692331    -0.0808728550
   23      H       5.5366506894    -2.5235753991    -0.0497211173
   24      H       6.2284797965    -0.1217780591     0.0268862595
   25      H       4.5208243119     1.6396220091     0.0004524960
   26      H      -1.5897093682    -1.8426269511    -0.0115040807
   27      H      -2.8261320591     2.2606005753    -0.0342416154
   28      H      -0.4587282376     2.9608270442    -0.0395974904
   29      H       1.8822535263     1.6596429825     2.1832068079
   30      H       1.3199446731     3.1215325966     1.3558192824
   31      H       3.0336239279     2.7099454764     1.3388324487
   32      H       1.3539693095     3.2164008101    -1.2453951203
   33      H       1.9307533580     1.8111657863    -2.1570877786
   34      H       3.0639198289     2.7985893148    -1.2192243802
 ----------------------------------------------------------------

   15   -1316.7189032175      7.57e-06  Convergence criterion met
 Total energy in the final basis set =    -1316.7189032175
    6   -1317.1956019322      7.93e-06  Convergence criterion met
 Total energy in the final basis set =    -1317.1956019322

                    Orbital Energies (a.u.)
 --------------------------------------------------------------

 Alpha MOs
 -- Occupied --
-89.0333 -19.0828 -19.0825 -19.0815 -19.0055 -10.1698 -10.1640 -10.1436
-10.1400 -10.1398 -10.1394 -10.1384 -10.1384 -10.1352 -10.1322 -10.1266
-10.1265 -10.1246 -10.1228 -10.1215 -10.1180  -8.0925  -6.0554  -6.0553
 -6.0536  -1.0978  -0.9634  -0.9622  -0.9374  -0.8347  -0.8141  -0.7806
 -0.7234  -0.7158  -0.7011  -0.6939  -0.6671  -0.6196  -0.6008  -0.5877
 -0.5596  -0.5505  -0.5236  -0.4991  -0.4919  -0.4569  -0.4484  -0.4459
 -0.4401  -0.4262  -0.4141  -0.4086  -0.4040  -0.4006  -0.3858  -0.3818
 -0.3756  -0.3687  -0.3586  -0.3533  -0.3439  -0.3335  -0.3290  -0.3283
 -0.3270  -0.3240  -0.3148  -0.3060  -0.2960  -0.2869  -0.2858  -0.2805
 -0.2698  -0.2504  -0.2204  -0.2164  -0.2144  -0.2113  -0.1861  -0.0644

          Ground-State Mulliken Net Atomic Charges

     Atom                 Charge (a.u.)
  ----------------------------------------
      1 C                    -0.354875
      2 C                    -0.422179
      3 C                    -0.627344
      4 C                     0.609739
      5 C                     0.278452
      6 C                    -0.314007
      7 C                    -0.511395
      8 C                     0.421572
      9 C                     0.279425
     10 C                     0.515087
     11 C                    -0.473243
     12 C                    -0.980132
     13 C                    -0.372888
     14 C                    -0.177097
     15 O                    -0.745801
     16 S                     0.877320
     17 O                    -0.437752
     18 O                    -0.417612
     19 O                    -0.479496
     20 C                    -0.821525
     21 C                    -0.802411
     22 H                     0.152582
     23 H                     0.159473
     24 H                     0.155988
     25 H                     0.108438
     26 H                     0.180404
     27 H                     0.196131
     28 H                     0.124260
     29 H                     0.160764
     30 H                     0.140650
     31 H                     0.140356
     32 H                     0.135419
     33 H                     0.162630
     34 H                     0.139057
  ----------------------------------------
  Sum of atomic charges =    -3.000008

                    Cartesian Multipole Moments
 -----------------------------------------------------------------
    Charge (ESU x 10^10)
               -14.4097
    Dipole Moment (Debye)
         X      15.3083      Y      14.9598      Z      -0.0885
       Tot      21.4044
    Quadrupole Moments (Debye-Ang)
        XX    -319.6307     XY       7.6959     YY    -184.8857
        XZ       0.2382     YZ       0.3631     ZZ    -158.6642

 Total job time:  168.24s(wall), 1304.51s(cpu)
        *  Thank you very much for using Q-Chem.  Have a nice day.  *
