 Q-Chem 5.4, Q-Chem, Inc., Pleasanton, CA (2021)
 Q-Chem 5.4.0 for Intel X86 EM64T Linux

User input:
--------------------------------------------------------------
$molecule
-2 1
C                 -2.9997690000      3.7070680000      0.2020230000
C                 -4.2588690000      3.1432870000      0.2223720000
C                 -4.3988700000      1.7314080000      0.1277540000
C                 -1.8240900000      2.9231790000      0.0891150000
C                 -1.9664880000      1.4878350000     -0.0076450000
C                 -3.2733520000      0.9407430000      0.0161900000
C                 -0.5320640000      3.5850730000      0.0716780000
C                  0.6042720000      2.6916330000     -0.0475520000
C                  0.4638880000      1.2565490000     -0.1437540000
C                 -0.8272150000      0.5949630000     -0.1300780000
C                  1.9097000000      3.2440070000     -0.0850270000
C                  3.0123010000      2.4401630000     -0.2055830000
C                  2.9020800000      1.0322650000     -0.2991000000
C                  1.6408040000      0.4765990000     -0.2610620000
O                 -0.4057070000      4.8544330000      0.1523910000
O                 -0.9542460000     -0.6736570000     -0.2186700000
H                 -3.3462710000     -0.1397370000     -0.0583450000
H                  1.5061020000     -0.5978650000     -0.3286030000
H                 -2.8596110000      4.7811460000      0.2721650000
H                  2.0033690000      4.3224160000     -0.0257600000
H                  3.7893050000      0.4169290000     -0.3884050000
H                 -5.3884810000      1.2789290000      0.1436150000
O                  4.2767140000      3.0819810000     -0.3493150000
C                  5.3270240000      2.7745100000      0.4377020000
C                  6.5620370000      3.5291270000     -0.0122510000
O                  5.3204480000      1.9776110000      1.3481040000
H                 -5.1412270000      3.7741550000      0.3108520000
H                  6.3106450000      4.4816190000     -0.4784650000
H                  7.1105750000      2.9278270000     -0.7505140000
H                  7.2250940000      3.6836820000      0.8383990000
$end

$rem
BASIS  =  6-311++G(d,p)
GUI  =  2
JOB_TYPE  =  SP
METHOD  =  B3LYP
SCF_CONVERGENCE  = 8
SOLVENT_METHOD = sm12
$end

$smx
solvent dimethylformamide
charges CM5
$end

--------------------------------------------------------------

             Standard Nuclear Orientation (Angstroms)
    I     Atom           X                Y                Z
 ----------------------------------------------------------------
    1      C      -2.9997690000     3.7070680000     0.2020230000
    2      C      -4.2588690000     3.1432870000     0.2223720000
    3      C      -4.3988700000     1.7314080000     0.1277540000
    4      C      -1.8240900000     2.9231790000     0.0891150000
    5      C      -1.9664880000     1.4878350000    -0.0076450000
    6      C      -3.2733520000     0.9407430000     0.0161900000
    7      C      -0.5320640000     3.5850730000     0.0716780000
    8      C       0.6042720000     2.6916330000    -0.0475520000
    9      C       0.4638880000     1.2565490000    -0.1437540000
   10      C      -0.8272150000     0.5949630000    -0.1300780000
   11      C       1.9097000000     3.2440070000    -0.0850270000
   12      C       3.0123010000     2.4401630000    -0.2055830000
   13      C       2.9020800000     1.0322650000    -0.2991000000
   14      C       1.6408040000     0.4765990000    -0.2610620000
   15      O      -0.4057070000     4.8544330000     0.1523910000
   16      O      -0.9542460000    -0.6736570000    -0.2186700000
   17      H      -3.3462710000    -0.1397370000    -0.0583450000
   18      H       1.5061020000    -0.5978650000    -0.3286030000
   19      H      -2.8596110000     4.7811460000     0.2721650000
   20      H       2.0033690000     4.3224160000    -0.0257600000
   21      H       3.7893050000     0.4169290000    -0.3884050000
   22      H      -5.3884810000     1.2789290000     0.1436150000
   23      O       4.2767140000     3.0819810000    -0.3493150000
   24      C       5.3270240000     2.7745100000     0.4377020000
   25      C       6.5620370000     3.5291270000    -0.0122510000
   26      O       5.3204480000     1.9776110000     1.3481040000
   27      H      -5.1412270000     3.7741550000     0.3108520000
   28      H       6.3106450000     4.4816190000    -0.4784650000
   29      H       7.1105750000     2.9278270000    -0.7505140000
   30      H       7.2250940000     3.6836820000     0.8383990000
 ----------------------------------------------------------------

   18    -916.8654923961      6.74e-09  Convergence criterion met
 Total energy in the final basis set =     -917.1489337375

                    Orbital Energies (a.u.)
 --------------------------------------------------------------

 Alpha MOs
 -- Occupied --
-19.1800 -19.1162 -19.0300 -19.0277 -10.3108 -10.2283 -10.1887 -10.1864
-10.1788 -10.1734 -10.1731 -10.1723 -10.1704 -10.1690 -10.1686 -10.1667
-10.1549 -10.1532 -10.1526 -10.1522  -1.1148  -1.0306  -0.9511  -0.9477
 -0.8490  -0.8431  -0.7784  -0.7593  -0.7428  -0.7418  -0.7220  -0.6589
 -0.6391  -0.6231  -0.5865  -0.5788  -0.5449  -0.5249  -0.5047  -0.4918
 -0.4835  -0.4794  -0.4590  -0.4507  -0.4462  -0.4280  -0.4211  -0.4127
 -0.4112  -0.3990  -0.3958  -0.3878  -0.3858  -0.3757  -0.3668  -0.3578
 -0.3462  -0.3397  -0.3358  -0.3293  -0.3169  -0.3094  -0.2867  -0.2546
 -0.2421  -0.2362  -0.2315  -0.2091  -0.2022  -0.1155

          Ground-State Mulliken Net Atomic Charges

     Atom                 Charge (a.u.)
  ----------------------------------------
      1 C                    -0.370652
      2 C                     1.438754
      3 C                     1.403714
      4 C                    -1.647146
      5 C                    -1.811248
      6 C                    -0.280941
      7 C                    -2.664432
      8 C                    -2.120280
      9 C                    -1.700604
     10 C                    -2.740364
     11 C                     0.720475
     12 C                     2.905984
     13 C                     2.535982
     14 C                     0.210409
     15 O                    -0.323647
     16 O                    -0.316608
     17 H                     0.115858
     18 H                     0.156692
     19 H                     0.107957
     20 H                     0.172950
     21 H                     0.359811
     22 H                     0.394434
     23 O                     0.159004
     24 C                     0.008326
     25 C                     0.408486
     26 O                    -0.307843
     27 H                     0.390732
     28 H                     0.253421
     29 H                     0.266840
     30 H                     0.273936
  ----------------------------------------
  Sum of atomic charges =    -2.000000

                    Cartesian Multipole Moments
 -----------------------------------------------------------------
    Charge (ESU x 10^10)
                -9.6064
    Dipole Moment (Debye)
         X       6.7546      Y     -19.1296      Z      -1.5170
       Tot      20.3437
    Quadrupole Moments (Debye-Ang)
        XX    -161.6235     XY      19.8712     YY    -211.0648
        XZ      -9.5119     YZ      -4.5013     ZZ    -133.5056

 Total job time:  907.95s(wall), 6921.06s(cpu)
        *  Thank you very much for using Q-Chem.  Have a nice day.  *
