 Gaussian 16, Revision A.03,
 Gaussian 16:  ES64L-G16RevA.03 25-Dec-2016

 ----------------------------------------------------------------------
 #P UB3LYP/6-311++G(d,p) nosym opt freq SCRF=(PCM,Solvent=n,n-DiMethylF
 ormamide)
 ----------------------------------------------------------------------

 -------
 Radical
 -------
 Symbolic Z-matrix:
 Charge = -1 Multiplicity = 2

 SCF Done:  E(UB3LYP) =  -819.713454050     A.U. after   19 cycles
 SCF Done:  E(UB3LYP) =  -819.713477817     A.U. after   13 cycles
 SCF Done:  E(UB3LYP) =  -819.713479976     A.U. after   13 cycles
 SCF Done:  E(UB3LYP) =  -819.713486663     A.U. after   11 cycles
 SCF Done:  E(UB3LYP) =  -819.713487879     A.U. after   10 cycles
 SCF Done:  E(UB3LYP) =  -819.713488925     A.U. after   11 cycles
 SCF Done:  E(UB3LYP) =  -819.713489378     A.U. after   10 cycles
 SCF Done:  E(UB3LYP) =  -819.713489553     A.U. after   10 cycles
 SCF Done:  E(UB3LYP) =  -819.713489657     A.U. after   10 cycles
 SCF Done:  E(UB3LYP) =  -819.713489690     A.U. after   10 cycles
 SCF Done:  E(UB3LYP) =  -819.712785654     A.U. after   19 cycles
 SCF Done:  E(UB3LYP) =  -819.713489451     A.U. after   11 cycles
 SCF Done:  E(UB3LYP) =  -819.713468090     A.U. after   15 cycles
 SCF Done:  E(UB3LYP) =  -819.713477725     A.U. after   15 cycles
 SCF Done:  E(UB3LYP) =  -819.713461326     A.U. after   14 cycles
 SCF Done:  E(UB3LYP) =  -819.713488806     A.U. after   13 cycles
 SCF Done:  E(UB3LYP) =  -819.713489537     A.U. after   12 cycles
 SCF Done:  E(UB3LYP) =  -819.713490716     A.U. after   12 cycles
 SCF Done:  E(UB3LYP) =  -819.713490765     A.U. after   10 cycles
 Optimization completed.
    -- Stationary point found.
 Normal termination of Gaussian 16 at Sun Feb 11 05:28:02 2024.

 ----------------------------------------------------------------------
 #P Geom=AllCheck Guess=TCheck SCRF=Check GenChk UB3LYP/6-311++G(d,p) F
 req
 ----------------------------------------------------------------------

 Structure from the checkpoint file:  "181-rad.chk"
 -------
 Radical
 -------
 Charge = -1 Multiplicity = 2

                          Input orientation:
 ---------------------------------------------------------------------
 Center     Atomic      Atomic             Coordinates (Angstroms)
 Number     Number       Type             X           Y           Z
 ---------------------------------------------------------------------
      1          7           0       -2.591264   -2.268852    0.550268
      2          6           0       -2.338476   -0.951052    0.195907
      3          6           0       -3.417188   -0.093259   -0.013598
      4          6           0       -3.217404    1.256298   -0.295999
      5          6           0       -1.941827    1.796066   -0.370249
      6          8           0       -1.809193    3.141522   -0.635539
      7          6           0       -0.794266    0.975226   -0.181942
      8          6           0        0.558060    1.531914   -0.267931
      9          8           0        0.796521    2.750878   -0.486647
     10          6           0        1.677570    0.603384   -0.088051
     11          6           0        3.001339    1.094789   -0.157474
     12          6           0        4.086592    0.255754   -0.000463
     13          6           0        3.881789   -1.120990    0.233682
     14          6           0        2.597568   -1.622189    0.304301
     15          6           0        1.472745   -0.778319    0.147971
     16          6           0        0.131668   -1.342000    0.234277
     17          8           0       -0.001590   -2.597716    0.423167
     18          6           0       -1.000032   -0.437627    0.092284
     19          1           0       -3.485874   -2.638430    0.263917
     20          1           0       -1.781918   -2.878553    0.461332
     21          1           0       -4.427056   -0.483795    0.057574
     22          1           0       -4.076609    1.902432   -0.453069
     23          1           0       -2.696582    3.508871   -0.730295
     24          1           0        3.139980    2.153220   -0.339268
     25          1           0        5.094809    0.652095   -0.056665
     26          1           0        4.732697   -1.782192    0.358303
     27          1           0        2.421938   -2.675482    0.484206
 ---------------------------------------------------------------------

 SCF Done:  E(UB3LYP) =  -819.713490765     A.U. after    1 cycles

 Alpha  occ. eigenvalues --  -19.14505 -19.07296 -19.06668 -14.30092 -10.22861
 Alpha  occ. eigenvalues --  -10.22369 -10.22291 -10.21111 -10.17648 -10.17526
 Alpha  occ. eigenvalues --  -10.17117 -10.17068 -10.17001 -10.16933 -10.16925
 Alpha  occ. eigenvalues --  -10.16810 -10.16765 -10.16479  -1.05579  -0.99777
 Alpha  occ. eigenvalues --   -0.99241  -0.90909  -0.85600  -0.83300  -0.78245
 Alpha  occ. eigenvalues --   -0.74788  -0.73989  -0.72421  -0.66467  -0.63923
 Alpha  occ. eigenvalues --   -0.62579  -0.58885  -0.56399  -0.54870  -0.53871
 Alpha  occ. eigenvalues --   -0.50879  -0.49282  -0.47248  -0.46338  -0.45266
 Alpha  occ. eigenvalues --   -0.44484  -0.43105  -0.42671  -0.42076  -0.40712
 Alpha  occ. eigenvalues --   -0.40404  -0.39657  -0.38408  -0.37891  -0.37721
 Alpha  occ. eigenvalues --   -0.36304  -0.35554  -0.34609  -0.34188  -0.33455
 Alpha  occ. eigenvalues --   -0.28896  -0.26431  -0.25400  -0.24805  -0.24166
 Alpha  occ. eigenvalues --   -0.22906  -0.20175  -0.13463
 Alpha virt. eigenvalues --   -0.04576  -0.02245  -0.00315   0.00311   0.00730
 Alpha virt. eigenvalues --    0.00947   0.02045   0.02113   0.03502   0.04363
 Alpha virt. eigenvalues --    0.04478   0.04740   0.05175   0.05994   0.06326

  Beta  occ. eigenvalues --  -19.14469 -19.06798 -19.06138 -14.30045 -10.22824
  Beta  occ. eigenvalues --  -10.22174 -10.22148 -10.21090 -10.17599 -10.17518
  Beta  occ. eigenvalues --  -10.17078 -10.17023 -10.16936 -10.16848 -10.16842
  Beta  occ. eigenvalues --  -10.16803 -10.16768 -10.16354  -1.05497  -0.98913
  Beta  occ. eigenvalues --   -0.98318  -0.90767  -0.85386  -0.83127  -0.77851
  Beta  occ. eigenvalues --   -0.74590  -0.73808  -0.72175  -0.65794  -0.63748
  Beta  occ. eigenvalues --   -0.62315  -0.58806  -0.56212  -0.54649  -0.53752
  Beta  occ. eigenvalues --   -0.50786  -0.49171  -0.46937  -0.46216  -0.45136
  Beta  occ. eigenvalues --   -0.44384  -0.42912  -0.42037  -0.41929  -0.40572
  Beta  occ. eigenvalues --   -0.39882  -0.38902  -0.38147  -0.37642  -0.36809
  Beta  occ. eigenvalues --   -0.36188  -0.34477  -0.34256  -0.33352  -0.33075
  Beta  occ. eigenvalues --   -0.28261  -0.24781  -0.24519  -0.24301  -0.23721
  Beta  occ. eigenvalues --   -0.22425  -0.19155
  Beta virt. eigenvalues --   -0.07994  -0.03599  -0.01187  -0.00300   0.00316
  Beta virt. eigenvalues --    0.00753   0.01354   0.02052   0.02128   0.03522
  Beta virt. eigenvalues --    0.04381   0.04498   0.04816   0.05906   0.06245

 Mulliken charges and spin densities:
               1          2
     1  N   -0.418142   0.020526
     2  C    0.050207   0.033804
     3  C   -0.199857   0.104644
     4  C   -0.291762   0.065517
     5  C   -0.274381   0.043261
     6  O   -0.250224   0.008308
     7  C    0.434644   0.020335
     8  C   -0.350438   0.071833
     9  O   -0.465634   0.198237
    10  C   -0.070385   0.035154
    11  C    0.113049   0.022680
    12  C   -0.495960   0.038487
    13  C   -0.525763   0.028045
    14  C    0.180307   0.037640
    15  C    0.078282   0.021564
    16  C   -0.356930   0.107042
    17  O   -0.467924   0.181278
    18  C    0.441164  -0.012314
    19  H    0.258860  -0.001007
    20  H    0.306094  -0.002954
    21  H    0.174061  -0.007397
    22  H    0.161195  -0.006100
    23  H    0.287124  -0.000777
    24  H    0.159367  -0.001002
    25  H    0.178295  -0.003110
    26  H    0.177711  -0.002400
    27  H    0.167039  -0.001297
 Sum of Mulliken charges =  -1.00000   1.00000

 Dipole moment (field-independent basis, Debye):
    X=             -4.1938    Y=             -1.9952    Z=             -0.5976  Tot=              4.6825
 Quadrupole moment (field-independent basis, Debye-Ang):
   XX=            -92.5213   YY=           -135.3968   ZZ=           -114.2512
   XY=             -7.8254   XZ=              4.7977   YZ=              6.2856

  Exact polarizability: 503.754  -6.725 369.676   3.948 -45.034 146.155
 Approx polarizability: 516.463  -2.320 441.502   3.501 -54.518 167.529

                      1                      2                      3
                      A                      A                      A
 Frequencies --     21.2240                54.9355               112.9007
 Red. masses --      7.5999                 6.6118                 4.6383
 Frc consts  --      0.0020                 0.0118                 0.0348
 IR Inten    --     21.4050                 1.9185                 1.2601

                      4                      5                      6
                      A                      A                      A
 Frequencies --    122.5948               169.9939               215.8077
 Red. masses --      5.0585                 7.0025                 5.3673
 Frc consts  --      0.0448                 0.1192                 0.1473
 IR Inten    --      0.3252                 0.8482                22.2931

                      7                      8                      9
                      A                      A                      A
 Frequencies --    248.4458               311.0850               332.6039
 Red. masses --      4.4392                 6.5187                 3.3126
 Frc consts  --      0.1614                 0.3717                 0.2159
 IR Inten    --     14.9107                 5.5639                11.5119

                     10                     11                     12
                      A                      A                      A
 Frequencies --    340.5411               368.3708               371.6774
 Red. masses --      2.2091                10.4388                 1.7310
 Frc consts  --      0.1509                 0.8346                 0.1409
 IR Inten    --     28.8621                 8.4639               154.1102

                     13                     14                     15
                      A                      A                      A
 Frequencies --    405.1794               414.5120               417.3594
 Red. masses --      3.0692                 2.9638                 6.4104
 Frc consts  --      0.2969                 0.3000                 0.6579
 IR Inten    --     99.3361                69.2588                 4.4927

                     16                     17                     18
                      A                      A                      A
 Frequencies --    431.4450               439.3820               465.5055
 Red. masses --      3.6976                 2.9451                 6.2527
 Frc consts  --      0.4055                 0.3350                 0.7983
 IR Inten    --     96.4050               100.0531                24.6156

                     19                     20                     21
                      A                      A                      A
 Frequencies --    490.0281               502.1092               514.8159
 Red. masses --      4.2373                 4.4220                 7.7054
 Frc consts  --      0.5995                 0.6568                 1.2032
 IR Inten    --     11.2308                 6.7500                 0.8866

                     22                     23                     24
                      A                      A                      A
 Frequencies --    589.9987               598.4269               642.9105
 Red. masses --      3.0626                 4.7662                 4.7050
 Frc consts  --      0.6281                 1.0056                 1.1458
 IR Inten    --    105.1269                54.7011                 1.7604

                     25                     26                     27
                      A                      A                      A
 Frequencies --    659.2981               668.7534               709.9562
 Red. masses --      5.4279                 1.3882                 6.2214
 Frc consts  --      1.3901                 0.3658                 1.8476
 IR Inten    --     15.4900               203.2212                 4.4670

                     28                     29                     30
                      A                      A                      A
 Frequencies --    726.1157               738.6823               766.3585
 Red. masses --      2.1445                 5.3303                 5.4361
 Frc consts  --      0.6662                 1.7136                 1.8811
 IR Inten    --     78.7759                10.4663                32.7460

                     31                     32                     33
                      A                      A                      A
 Frequencies --    790.7950               803.9077               808.0452
 Red. masses --      1.8001                 4.8488                 2.0588
 Frc consts  --      0.6632                 1.8463                 0.7920
 IR Inten    --     84.5329                 9.9813                34.2325

                     34                     35                     36
                      A                      A                      A
 Frequencies --    863.2051               883.6990               893.2693
 Red. masses --      7.3027                 1.4793                 1.3531
 Frc consts  --      3.2060                 0.6807                 0.6361
 IR Inten    --     95.6596                 0.0178                 1.4747

                     37                     38                     39
                      A                      A                      A
 Frequencies --    903.2490               954.3711               988.4953
 Red. masses --      7.2603                 6.1178                 1.3648
 Frc consts  --      3.4900                 3.2831                 0.7857
 IR Inten    --    102.0673               106.2843                 2.4374

                     40                     41                     42
                      A                      A                      A
 Frequencies --    999.8956              1032.5207              1058.7497
 Red. masses --      1.2838                 2.5441                 2.1512
 Frc consts  --      0.7563                 1.5980                 1.4207
 IR Inten    --      0.0097                50.7781               106.5576

                     43                     44                     45
                      A                      A                      A
 Frequencies --   1112.1056              1141.6764              1146.0961
 Red. masses --      2.1780                 1.6768                 1.4876
 Frc consts  --      1.5871                 1.2877                 1.1512
 IR Inten    --     43.8262                14.1721                86.3997

                     46                     47                     48
                      A                      A                      A
 Frequencies --   1185.4715              1191.0163              1215.1117
 Red. masses --      1.5163                 1.7382                 1.6718
 Frc consts  --      1.2555                 1.4527                 1.4543
 IR Inten    --     64.8825                69.4866               116.2055

                     49                     50                     51
                      A                      A                      A
 Frequencies --   1228.2984              1244.9931              1255.1905
 Red. masses --      2.6018                 4.5076                 2.3202
 Frc consts  --      2.3128                 4.1166                 2.1538
 IR Inten    --     23.2415                42.4337               173.9148

                     52                     53                     54
                      A                      A                      A
 Frequencies --   1294.9387              1340.9686              1367.3790
 Red. masses --      2.8600                 6.1751                10.0223
 Frc consts  --      2.8257                 6.5423                11.0407
 IR Inten    --     66.1515                33.1516                16.8891

                     55                     56                     57
                      A                      A                      A
 Frequencies --   1370.6177              1409.3687              1429.1891
 Red. masses --      2.9766                 3.1338                 2.9945
 Frc consts  --      3.2946                 3.6675                 3.6038
 IR Inten    --     56.5703              1613.3899               181.2108

                     58                     59                     60
                      A                      A                      A
 Frequencies --   1472.5502              1479.8301              1509.3820
 Red. masses --      3.1625                 2.9197                 3.3162
 Frc consts  --      4.0404                 3.7672                 4.4513
 IR Inten    --     23.6035                88.8519               958.1109

                     61                     62                     63
                      A                      A                      A
 Frequencies --   1512.1580              1567.6855              1590.1103
 Red. masses --      4.7029                 2.6861                 1.6656
 Frc consts  --      6.3360                 3.8895                 2.4813
 IR Inten    --    563.6901               123.4417               356.5252

                     64                     65                     66
                      A                      A                      A
 Frequencies --   1599.2322              1621.8595              1627.1616
 Red. masses --      5.4461                 6.6486                 6.3182
 Frc consts  --      8.2065                10.3041                 9.8561
 IR Inten    --     86.8140                43.6217                 8.9763

                     67                     68                     69
                      A                      A                      A
 Frequencies --   3144.7784              3157.7716              3165.7030
 Red. masses --      1.0873                 1.0862                 1.0935
 Frc consts  --      6.3357                 6.3813                 6.4568
 IR Inten    --     48.1900                15.7837                35.5442

                     70                     71                     72
                      A                      A                      A
 Frequencies --   3172.5701              3193.1117              3197.1786
 Red. masses --      1.0912                 1.0918                 1.0927
 Frc consts  --      6.4714                 6.5587                 6.5812
 IR Inten    --     30.6696                19.7478                38.9609

                     73                     74                     75
                      A                      A                      A
 Frequencies --   3426.9577              3632.2470              3794.3060
 Red. masses --      1.0583                 1.0907                 1.0658
 Frc consts  --      7.3229                 8.4779                 9.0407
 IR Inten    --    150.4718                78.8224               102.2209

 - Thermochemistry -
 -------------------
 Temperature   298.150 Kelvin.  Pressure   1.00000 Atm.
 Atom     1 has atomic number  7 and mass  14.00307

 Molecular mass:   239.05824 amu.
 Principal axes and moments of inertia in atomic units:
                           1         2         3
     Eigenvalues --  2569.299404727.006337292.87183
           X            0.98834   0.15214  -0.00661
           Y           -0.14825   0.97113   0.18690
           Z            0.03485  -0.18374   0.98236
 This molecule is an asymmetric top.
 Rotational symmetry number  1.
 Warning -- assumption of classical behavior for rotation
           may cause significant error
 Rotational temperatures (Kelvin)      0.03371     0.01832     0.01188
 Rotational constants (GHZ):           0.70243     0.38179     0.24747
 Zero-point vibrational energy     518151.9 (Joules/Mol)
                                  123.84128 (Kcal/Mol)
 Warning -- explicit consideration of  23 degrees of freedom as
           vibrations may cause significant error
 Vibrational temperatures:     30.54    79.04   162.44   176.39   244.58
          (Kelvin)            310.50   357.46   447.58   478.54   489.96
                              530.00   534.76   582.96   596.39   600.49
                              620.75   632.17   669.76   705.04   722.42
                              740.71   848.88   861.00   925.00   948.58
                              962.19  1021.47  1044.72  1062.80  1102.62
                             1137.78  1156.64  1162.60  1241.96  1271.45
                             1285.22  1299.57  1373.13  1422.22  1438.63
                             1485.57  1523.30  1600.07  1642.62  1648.98
                             1705.63  1713.61  1748.27  1767.25  1791.27
                             1805.94  1863.13  1929.35  1967.35  1972.01
                             2027.77  2056.28  2118.67  2129.15  2171.66
                             2175.66  2255.55  2287.81  2300.94  2333.49
                             2341.12  4524.63  4543.33  4554.74  4564.62
                             4594.18  4600.03  4930.63  5225.99  5459.16

 Zero-point correction=                           0.197354 (Hartree/Particle)
 Thermal correction to Energy=                    0.211156
 Thermal correction to Enthalpy=                  0.212100
 Thermal correction to Gibbs Free Energy=         0.155745
 Sum of electronic and zero-point Energies=           -819.516137
 Sum of electronic and thermal Energies=              -819.502335
 Sum of electronic and thermal Enthalpies=            -819.501391
 Sum of electronic and thermal Free Energies=         -819.557746

                     E (Thermal)             CV                S
                      KCal/Mol        Cal/Mol-Kelvin    Cal/Mol-Kelvin
 Total                  132.502             56.325            118.610
 Electronic               0.000              0.000              1.377
 Translational            0.889              2.981             42.316
 Rotational               0.889              2.981             32.849
 Vibrational            130.725             50.363             42.068
 Vibration     1          0.593              1.985              6.516
 Vibration     2          0.596              1.976              4.631
 Vibration     3          0.607              1.939              3.218
 Vibration     4          0.610              1.930              3.059
 Vibration     5          0.625              1.879              2.436
 Vibration     6          0.645              1.817              1.994
 Vibration     7          0.662              1.765              1.742
 Vibration     8          0.700              1.653              1.357
 Vibration     9          0.715              1.610              1.247
 Vibration    10          0.720              1.594              1.210
 Vibration    11          0.741              1.537              1.087
 Vibration    12          0.743              1.530              1.073
 Vibration    13          0.770              1.459              0.944
 Vibration    14          0.778              1.439              0.911
 Vibration    15          0.780              1.433              0.901
 Vibration    16          0.792              1.402              0.854
 Vibration    17          0.799              1.384              0.829
 Vibration    18          0.823              1.327              0.750
 Vibration    19          0.846              1.272              0.684
 Vibration    20          0.857              1.245              0.653
 Vibration    21          0.870              1.217              0.622
 Vibration    22          0.947              1.053              0.467
 Vibration    23          0.956              1.035              0.452

                           ! Non-Optimized Parameters !
 Normal termination of Gaussian 16 at Sun Feb 11 06:30:56 2024.
