 Gaussian 16, Revision A.03,
 Gaussian 16:  ES64L-G16RevA.03 25-Dec-2016

 ----------------------------------------------------------------------
 #P UB3LYP/6-311++G(d,p) nosym opt freq SCRF=(PCM,Solvent=n,n-DiMethylF
 ormamide)
 ----------------------------------------------------------------------

 -------
 Reduced
 -------
 Symbolic Z-matrix:
 Charge = -2 Multiplicity = 1

 SCF Done:  E(UB3LYP) =  -1293.22828553     A.U. after   20 cycles
 SCF Done:  E(UB3LYP) =  -1293.23016519     A.U. after   15 cycles
 SCF Done:  E(UB3LYP) =  -1293.23096598     A.U. after   15 cycles
 SCF Done:  E(UB3LYP) =  -1293.23115429     A.U. after   14 cycles
 SCF Done:  E(UB3LYP) =  -1293.23119326     A.U. after   14 cycles
 SCF Done:  E(UB3LYP) =  -1293.23129482     A.U. after   14 cycles
 SCF Done:  E(UB3LYP) =  -1293.23134107     A.U. after   13 cycles
 SCF Done:  E(UB3LYP) =  -1293.23134721     A.U. after   11 cycles
 SCF Done:  E(UB3LYP) =  -1293.23135282     A.U. after   12 cycles
 SCF Done:  E(UB3LYP) =  -1293.23135935     A.U. after   12 cycles
 SCF Done:  E(UB3LYP) =  -1293.23136126     A.U. after   12 cycles
 SCF Done:  E(UB3LYP) =  -1293.23136250     A.U. after   11 cycles
 SCF Done:  E(UB3LYP) =  -1293.23136303     A.U. after   10 cycles
 SCF Done:  E(UB3LYP) =  -1293.23136313     A.U. after   10 cycles
 Optimization completed.
    -- Stationary point found.
 Normal termination of Gaussian 16 at Sun Feb 11 00:19:53 2024.

 ----------------------------------------------------------------------
 #P Geom=AllCheck Guess=TCheck SCRF=Check GenChk UB3LYP/6-311++G(d,p) F
 req
 ----------------------------------------------------------------------

 Structure from the checkpoint file:  "218-an.chk"
 -------
 Reduced
 -------
 Charge = -2 Multiplicity = 1

                          Input orientation:
 ---------------------------------------------------------------------
 Center     Atomic      Atomic             Coordinates (Angstroms)
 Number     Number       Type             X           Y           Z
 ---------------------------------------------------------------------
      1          6           0        5.053920   -2.561136    0.044947
      2          6           0        5.773047   -1.621753   -0.660865
      3          6           0        5.088621   -0.575357   -1.330715
      4          6           0        3.636497   -2.520872    0.128450
      5          6           0        2.938495   -1.454868   -0.548948
      6          6           0        3.714630   -0.504640   -1.268850
      7          6           0        2.938569   -3.541659    0.884087
      8          6           0        1.505137   -3.404656    0.907639
      9          6           0        0.805440   -2.322369    0.218751
     10          6           0        1.495255   -1.320061   -0.522423
     11          6           0        0.742013   -4.347016    1.627941
     12          6           0       -0.621445   -2.293904    0.307911
     13          6           0       -1.344569   -3.221461    1.007458
     14          8           0        3.561328   -4.496927    1.486399
     15          8           0        0.888849   -0.346450   -1.136798
     16          1           0        5.559970   -3.367474    0.563660
     17          1           0       -2.425658   -3.175345    1.050769
     18          1           0        3.179547    0.290403   -1.774749
     19          1           0        1.269146   -5.140400    2.141613
     20          1           0       -1.133597   -1.492964   -0.213195
     21          6           0       -0.634516   -4.270863    1.679800
     22          1           0        5.649336    0.167211   -1.890133
     23          1           0        6.855971   -1.679287   -0.706077
     24         16           0       -1.532520   -5.460993    2.610111
     25          8           0       -0.617362   -6.520621    3.077844
     26          8           0       -2.748182   -5.894855    1.893061
     27          7           0       -2.136729   -4.557098    3.914130
     28          1           0       -1.392876   -4.344383    4.575447
     29          1           0       -2.866675   -5.092048    4.381557
 ---------------------------------------------------------------------

 SCF Done:  E(UB3LYP) =  -1293.23136313     A.U. after    1 cycles

 Alpha  occ. eigenvalues --  -89.06326 -19.11592 -19.11466 -19.03147 -19.02065
 Alpha  occ. eigenvalues --  -14.33923 -10.18884 -10.18873 -10.17821 -10.17260
 Alpha  occ. eigenvalues --  -10.16377 -10.15688 -10.15660 -10.15505 -10.15342
 Alpha  occ. eigenvalues --  -10.15152 -10.14840 -10.14758 -10.14752 -10.14235
 Alpha  occ. eigenvalues --   -8.12496  -6.08794  -6.08753  -6.08552  -1.11533
 Alpha  occ. eigenvalues --   -1.00286  -0.94756  -0.93297  -0.90793  -0.84516
 Alpha  occ. eigenvalues --   -0.83192  -0.77215  -0.74558  -0.72973  -0.72635
 Alpha  occ. eigenvalues --   -0.67398  -0.64320  -0.61281  -0.59364  -0.56959
 Alpha  occ. eigenvalues --   -0.54634  -0.53223  -0.51876  -0.51226  -0.50080
 Alpha  occ. eigenvalues --   -0.47208  -0.45876  -0.44658  -0.44206  -0.43423
 Alpha  occ. eigenvalues --   -0.41769  -0.40563  -0.39414  -0.38989  -0.38099
 Alpha  occ. eigenvalues --   -0.37728  -0.36282  -0.36140  -0.35314  -0.34214
 Alpha  occ. eigenvalues --   -0.33204  -0.33125  -0.32646  -0.31853  -0.31196
 Alpha  occ. eigenvalues --   -0.30807  -0.30516  -0.28625  -0.24857  -0.23398
 Alpha  occ. eigenvalues --   -0.23122  -0.22644  -0.20978  -0.20010  -0.11711
 Alpha virt. eigenvalues --   -0.04206  -0.01727  -0.00621   0.00334   0.01028
 Alpha virt. eigenvalues --    0.01433   0.01893   0.02552   0.03255   0.03861
 Alpha virt. eigenvalues --    0.04516   0.04653   0.04819   0.05385   0.05798

  Beta  occ. eigenvalues --  -89.06326 -19.11592 -19.11466 -19.03147 -19.02065
  Beta  occ. eigenvalues --  -14.33923 -10.18884 -10.18873 -10.17821 -10.17260
  Beta  occ. eigenvalues --  -10.16377 -10.15688 -10.15660 -10.15505 -10.15342
  Beta  occ. eigenvalues --  -10.15152 -10.14840 -10.14758 -10.14752 -10.14235
  Beta  occ. eigenvalues --   -8.12496  -6.08794  -6.08753  -6.08552  -1.11533
  Beta  occ. eigenvalues --   -1.00286  -0.94756  -0.93297  -0.90793  -0.84516
  Beta  occ. eigenvalues --   -0.83192  -0.77215  -0.74558  -0.72973  -0.72635
  Beta  occ. eigenvalues --   -0.67398  -0.64320  -0.61281  -0.59364  -0.56959
  Beta  occ. eigenvalues --   -0.54634  -0.53223  -0.51876  -0.51226  -0.50080
  Beta  occ. eigenvalues --   -0.47208  -0.45876  -0.44658  -0.44206  -0.43423
  Beta  occ. eigenvalues --   -0.41769  -0.40563  -0.39414  -0.38989  -0.38099
  Beta  occ. eigenvalues --   -0.37728  -0.36282  -0.36140  -0.35314  -0.34214
  Beta  occ. eigenvalues --   -0.33204  -0.33125  -0.32646  -0.31853  -0.31196
  Beta  occ. eigenvalues --   -0.30807  -0.30516  -0.28625  -0.24857  -0.23398
  Beta  occ. eigenvalues --   -0.23122  -0.22644  -0.20978  -0.20010  -0.11711
  Beta virt. eigenvalues --   -0.04206  -0.01727  -0.00621   0.00334   0.01028
  Beta virt. eigenvalues --    0.01433   0.01893   0.02552   0.03255   0.03861
  Beta virt. eigenvalues --    0.04516   0.04653   0.04819   0.05385   0.05798

 Mulliken charges and spin densities:
               1          2
     1  C    0.001948   0.000000
     2  C   -0.488347   0.000000
     3  C   -0.486996  -0.000000
     4  C    0.332778  -0.000000
     5  C    0.424198   0.000000
     6  C   -0.020592   0.000000
     7  C   -0.776592   0.000000
     8  C    0.321175  -0.000000
     9  C    0.638905   0.000000
    10  C   -0.370529  -0.000000
    11  C    0.043374  -0.000000
    12  C   -0.238810  -0.000000
    13  C   -0.352932   0.000000
    14  O   -0.609053  -0.000000
    15  O   -0.663493   0.000000
    16  H    0.151082  -0.000000
    17  H    0.226132   0.000000
    18  H    0.152675  -0.000000
    19  H    0.212655  -0.000000
    20  H    0.146052   0.000000
    21  C   -0.823596  -0.000000
    22  H    0.164376  -0.000000
    23  H    0.164455  -0.000000
    24  S    0.294918   0.000000
    25  O   -0.282661   0.000000
    26  O   -0.333873   0.000000
    27  N   -0.442921  -0.000000
    28  H    0.298745  -0.000000
    29  H    0.316928   0.000000
 Sum of Mulliken charges =  -2.00000  -0.00000

 Dipole moment (field-independent basis, Debye):
    X=            -14.6528    Y=             30.2067    Z=             -1.9884  Tot=             33.6319
 Quadrupole moment (field-independent basis, Debye-Ang):
   XX=           -196.8829   YY=           -288.3648   ZZ=           -135.9437
   XY=             37.1643   XZ=            -11.5504   YZ=             34.3355

  Exact polarizability: 619.880  91.909 367.966-102.999-135.778 288.179
 Approx polarizability: 696.451  79.000 417.553 -92.608-150.792 318.319

                      1                      2                      3
                      A                      A                      A
 Frequencies --     27.1530                33.2870                75.9811
 Red. masses --      6.7658                 7.7674                 6.3833
 Frc consts  --      0.0029                 0.0051                 0.0217
 IR Inten    --      6.9868                 7.8933                17.8676

                      4                      5                      6
                      A                      A                      A
 Frequencies --    105.5140               118.4152               147.8307
 Red. masses --      8.0128                 4.0902                 4.3275
 Frc consts  --      0.0526                 0.0338                 0.0557
 IR Inten    --      2.2729                 1.3122                 5.2010

                      7                      8                      9
                      A                      A                      A
 Frequencies --    168.4777               211.3194               223.9132
 Red. masses --      6.2737                 2.9864                 3.9875
 Frc consts  --      0.1049                 0.0786                 0.1178
 IR Inten    --     20.0951                19.2597                20.8028

                     10                     11                     12
                      A                      A                      A
 Frequencies --    230.7497               249.5649               287.0017
 Red. masses --      6.3401                 2.4942                 8.2235
 Frc consts  --      0.1989                 0.0915                 0.3991
 IR Inten    --     13.9921                25.8643                 2.4252

                     13                     14                     15
                      A                      A                      A
 Frequencies --    323.3942               362.0962               368.3558
 Red. masses --      3.7252                 5.1714                 8.7804
 Frc consts  --      0.2295                 0.3995                 0.7019
 IR Inten    --     49.1457                25.9728                 6.0990

                     16                     17                     18
                      A                      A                      A
 Frequencies --    403.2508               408.1336               422.5436
 Red. masses --      5.3394                 6.4666                 3.8478
 Frc consts  --      0.5116                 0.6346                 0.4048
 IR Inten    --     40.3156                 2.9235                11.8297

                     19                     20                     21
                      A                      A                      A
 Frequencies --    435.3491               458.5902               473.2665
 Red. masses --      6.5842                 6.8672                 3.0507
 Frc consts  --      0.7352                 0.8509                 0.4026
 IR Inten    --     74.4889                79.3610                 0.9586

                     22                     23                     24
                      A                      A                      A
 Frequencies --    481.2679               498.1662               526.1654
 Red. masses --      7.6397                10.9133                 5.5704
 Frc consts  --      1.0426                 1.5957                 0.9086
 IR Inten    --     44.1094                86.4923                38.5032

                     25                     26                     27
                      A                      A                      A
 Frequencies --    548.7065               621.7123               626.7716
 Red. masses --      7.4171                 4.7100                 7.0124
 Frc consts  --      1.3157                 1.0726                 1.6231
 IR Inten    --    394.6026                21.2514                39.6838

                     28                     29                     30
                      A                      A                      A
 Frequencies --    646.9196               671.2375               686.0124
 Red. masses --      6.9269                 4.8270                 6.3071
 Frc consts  --      1.7080                 1.2814                 1.7488
 IR Inten    --     23.0429               550.3042                38.3130

                     31                     32                     33
                      A                      A                      A
 Frequencies --    693.7596               702.0369               713.1414
 Red. masses --      2.4038                 6.1960                 3.7163
 Frc consts  --      0.6817                 1.7992                 1.1136
 IR Inten    --     91.8668               128.9838                 9.5530

                     34                     35                     36
                      A                      A                      A
 Frequencies --    762.4830               786.8913               812.1381
 Red. masses --      1.5224                 2.0835                 3.2141
 Frc consts  --      0.5215                 0.7601                 1.2490
 IR Inten    --      1.4228                55.8391                 8.0218

                     37                     38                     39
                      A                      A                      A
 Frequencies --    826.6647               861.3599               869.3502
 Red. masses --      5.2004                 1.6680                 1.7356
 Frc consts  --      2.0938                 0.7292                 0.7728
 IR Inten    --     16.3795               406.3358                 0.7579

                     40                     41                     42
                      A                      A                      A
 Frequencies --    921.7963               944.7202               963.0403
 Red. masses --      6.2801                 1.4061                 6.0403
 Frc consts  --      3.1440                 0.7394                 3.3007
 IR Inten    --     46.7224                 9.8919               115.3070

                     43                     44                     45
                      A                      A                      A
 Frequencies --    977.3540               980.7021               989.7055
 Red. masses --      1.2916                 1.3566                 1.2686
 Frc consts  --      0.7269                 0.7687                 0.7321
 IR Inten    --      1.4097                 5.4605                 0.4628

                     46                     47                     48
                      A                      A                      A
 Frequencies --   1023.1550              1031.2334              1046.1175
 Red. masses --      2.0684                 2.5001                 6.6012
 Frc consts  --      1.2757                 1.5665                 4.2563
 IR Inten    --    545.9793               317.8606              1181.1587

                     49                     50                     51
                      A                      A                      A
 Frequencies --   1091.4838              1102.0538              1120.8096
 Red. masses --      3.3058                 1.4224                 1.8281
 Frc consts  --      2.3204                 1.0179                 1.3531
 IR Inten    --    636.7981               369.5679               123.5280

                     52                     53                     54
                      A                      A                      A
 Frequencies --   1132.1519              1159.5916              1183.4662
 Red. masses --      1.6032                 1.7880                 2.5058
 Frc consts  --      1.2107                 1.4165                 2.0678
 IR Inten    --    186.9756               334.2802               141.2259

                     55                     56                     57
                      A                      A                      A
 Frequencies --   1201.0579              1210.4090              1214.3900
 Red. masses --      2.1863                 3.3757                 2.2991
 Frc consts  --      1.8582                 2.9139                 1.9977
 IR Inten    --    242.1761               406.9319               334.5099

                     58                     59                     60
                      A                      A                      A
 Frequencies --   1248.8493              1313.4252              1336.1419
 Red. masses --      2.4480                 3.5609                 3.8677
 Frc consts  --      2.2495                 3.6193                 4.0682
 IR Inten    --    370.6899               375.9806               844.3980

                     61                     62                     63
                      A                      A                      A
 Frequencies --   1353.1928              1367.0531              1431.4186
 Red. masses --      7.6519                 2.6322                 4.0072
 Frc consts  --      8.2554                 2.8983                 4.8376
 IR Inten    --    697.5123              1406.4732               200.0191

                     64                     65                     66
                      A                      A                      A
 Frequencies --   1456.9296              1463.2732              1480.1963
 Red. masses --      2.8446                 3.2397                 4.3221
 Frc consts  --      3.5575                 4.0870                 5.5794
 IR Inten    --    205.9996               204.5778                75.0296

                     67                     68                     69
                      A                      A                      A
 Frequencies --   1498.6504              1522.5724              1559.7297
 Red. masses --      5.0934                 5.8501                 5.5833
 Frc consts  --      6.7400                 7.9904                 8.0028
 IR Inten    --     49.3618                 5.9962               221.7545

                     70                     71                     72
                      A                      A                      A
 Frequencies --   1582.7642              1590.9558              1616.4226
 Red. masses --      1.1254                 6.8682                 5.4807
 Frc consts  --      1.6611                10.2426                 8.4372
 IR Inten    --     54.3562                16.3083                19.5786

                     73                     74                     75
                      A                      A                      A
 Frequencies --   3144.1292              3159.3755              3170.5964
 Red. masses --      1.0851                 1.0895                 1.0861
 Frc consts  --      6.3202                 6.4074                 6.4329
 IR Inten    --     21.8903                32.4952                12.5225

                     76                     77                     78
                      A                      A                      A
 Frequencies --   3177.0935              3180.7773              3190.6233
 Red. masses --      1.0914                 1.0941                 1.0940
 Frc consts  --      6.4909                 6.5219                 6.5615
 IR Inten    --     28.8745                86.5787                27.2613

                     79                     80                     81
                      A                      A                      A
 Frequencies --   3200.9028              3474.1116              3570.9841
 Red. masses --      1.0893                 1.0477                 1.0965
 Frc consts  --      6.5758                 7.4500                 8.2386
 IR Inten    --      5.4725                41.9767                34.3743

 - Thermochemistry -
 -------------------
 Temperature   298.150 Kelvin.  Pressure   1.00000 Atm.
 Atom     1 has atomic number  6 and mass  12.00000

 Molecular mass:   287.02523 amu.
 Principal axes and moments of inertia in atomic units:
                           1         2         3
     Eigenvalues --  2231.79703********************
           X            0.74757   0.65971   0.07689
           Y            0.50753  -0.64209   0.57457
           Z           -0.42843   0.39051   0.81483
 This molecule is an asymmetric top.
 Rotational symmetry number  1.
 Warning -- assumption of classical behavior for rotation
           may cause significant error
 Rotational temperatures (Kelvin)      0.03881     0.00807     0.00688
 Rotational constants (GHZ):           0.80865     0.16809     0.14345
 Zero-point vibrational energy     527866.5 (Joules/Mol)
                                  126.16311 (Kcal/Mol)
 Warning -- explicit consideration of  25 degrees of freedom as
           vibrations may cause significant error
 Vibrational temperatures:     39.07    47.89   109.32   151.81   170.37
          (Kelvin)            212.70   242.40   304.04   322.16   332.00
                              359.07   412.93   465.29   520.98   529.98
                              580.19   587.21   607.95   626.37   659.81
                              680.92   692.44   716.75   757.03   789.47
                              894.51   901.78   930.77   965.76   987.02
                              998.17  1010.07  1026.05  1097.04  1132.16
                             1168.49  1189.39  1239.30  1250.80  1326.26
                             1359.24  1385.60  1406.19  1411.01  1423.97
                             1472.09  1483.71  1505.13  1570.40  1585.61
                             1612.60  1628.91  1668.39  1702.74  1728.05
                             1741.51  1747.24  1796.82  1889.73  1922.41
                             1946.94  1966.88  2059.49  2096.20  2105.32
                             2129.67  2156.22  2190.64  2244.10  2277.24
                             2289.03  2325.67  4523.70  4545.64  4561.78
                             4571.13  4576.43  4590.60  4605.39  4998.47
                             5137.85

 Zero-point correction=                           0.201054 (Hartree/Particle)
 Thermal correction to Energy=                    0.217307
 Thermal correction to Enthalpy=                  0.218251
 Thermal correction to Gibbs Free Energy=         0.156537
 Sum of electronic and zero-point Energies=          -1293.030309
 Sum of electronic and thermal Energies=             -1293.014056
 Sum of electronic and thermal Enthalpies=           -1293.013112
 Sum of electronic and thermal Free Energies=        -1293.074826

                     E (Thermal)             CV                S
                      KCal/Mol        Cal/Mol-Kelvin    Cal/Mol-Kelvin
 Total                  136.362             64.333            129.887
 Electronic               0.000              0.000              0.000
 Translational            0.889              2.981             42.861
 Rotational               0.889              2.981             34.066
 Vibrational            134.585             58.372             52.960
 Vibration     1          0.593              1.984              6.027
 Vibration     2          0.594              1.983              5.623
 Vibration     3          0.599              1.965              3.992
 Vibration     4          0.605              1.945              3.350
 Vibration     5          0.609              1.934              3.126
 Vibration     6          0.617              1.905              2.700
 Vibration     7          0.625              1.881              2.452
 Vibration     8          0.643              1.824              2.032
 Vibration     9          0.649              1.805              1.927
 Vibration    10          0.652              1.794              1.873
 Vibration    11          0.662              1.763              1.734
 Vibration    12          0.684              1.698              1.492
 Vibration    13          0.708              1.629              1.293
 Vibration    14          0.736              1.550              1.113
 Vibration    15          0.741              1.537              1.087
 Vibration    16          0.769              1.463              0.951
 Vibration    17          0.773              1.453              0.933
 Vibration    18          0.785              1.421              0.883
 Vibration    19          0.796              1.393              0.841
 Vibration    20          0.817              1.342              0.770
 Vibration    21          0.830              1.309              0.728
 Vibration    22          0.838              1.292              0.707
 Vibration    23          0.854              1.254              0.663
 Vibration    24          0.881              1.192              0.596
 Vibration    25          0.904              1.143              0.547

 Optimization completed.
    -- Stationary point found.
 Normal termination of Gaussian 16 at Sun Feb 11 02:00:35 2024.
