 Gaussian 16, Revision A.03,
 Gaussian 16:  ES64L-G16RevA.03 25-Dec-2016

 ----------------------------------------------------------------------
 #P UB3LYP/6-311++G(d,p) nosym opt freq SCRF=(PCM,Solvent=n,n-DiMethylF
 ormamide)
 ----------------------------------------------------------------------

 -------
 Radical
 -------
 Symbolic Z-matrix:
 Charge = -1 Multiplicity = 2

 SCF Done:  E(UB3LYP) =  -799.854507538     A.U. after   18 cycles
 SCF Done:  E(UB3LYP) =  -799.855229152     A.U. after   14 cycles
 SCF Done:  E(UB3LYP) =  -799.855478450     A.U. after   14 cycles
 SCF Done:  E(UB3LYP) =  -799.855420209     A.U. after   14 cycles
 SCF Done:  E(UB3LYP) =  -799.855556646     A.U. after   13 cycles
 SCF Done:  E(UB3LYP) =  -799.855569014     A.U. after   12 cycles
 SCF Done:  E(UB3LYP) =  -799.855571615     A.U. after   11 cycles
 Optimization completed.
    -- Stationary point found.
 Normal termination of Gaussian 16 at Sat Feb 10 17:38:22 2024.

 ----------------------------------------------------------------------
 #P Geom=AllCheck Guess=TCheck SCRF=Check GenChk UB3LYP/6-311++G(d,p) F
 req
 ----------------------------------------------------------------------

 Structure from the checkpoint file:  "168-rad.chk"
 -------
 Radical
 -------
 Charge = -1 Multiplicity = 2

                          Input orientation:
 ---------------------------------------------------------------------
 Center     Atomic      Atomic             Coordinates (Angstroms)
 Number     Number       Type             X           Y           Z
 ---------------------------------------------------------------------
      1          7           0       -5.040368   -0.665441   -0.597658
      2          6           0       -3.749012   -0.227994   -0.280867
      3          6           0       -3.572001    1.010860    0.390166
      4          6           0       -2.306370    1.482045    0.657726
      5          6           0       -1.145699    0.768552    0.276687
      6          6           0        0.171176    1.308415    0.581624
      7          8           0        0.320265    2.411110    1.189581
      8          6           0        1.319719    0.511945    0.152551
      9          6           0        2.624162    0.980873    0.416529
     10          6           0        3.749503    0.263484    0.034361
     11          7           0        5.041477    0.761518    0.239721
     12          6           0        3.572471   -0.974681   -0.637883
     13          6           0        2.306765   -1.448043   -0.901192
     14          6           0        1.146186   -0.732303   -0.524134
     15          6           0       -0.170684   -1.272786   -0.827895
     16          8           0       -0.319801   -2.377184   -1.432752
     17          6           0       -1.319204   -0.474916   -0.401395
     18          6           0       -2.623596   -0.945753   -0.662236
     19          1           0       -5.768411   -0.337774    0.022678
     20          1           0       -5.125103   -1.657290   -0.774201
     21          1           0       -4.444342    1.583209    0.690356
     22          1           0       -2.176916    2.426271    1.173645
     23          1           0        2.729429    1.929616    0.930937
     24          1           0        5.765001    0.059161    0.314113
     25          1           0        5.121677    1.452625    0.973285
     26          1           0        4.444763   -1.544461   -0.943012
     27          1           0        2.177150   -2.395213   -1.411645
     28          1           0       -2.728238   -1.895844   -1.174282
 ---------------------------------------------------------------------

 SCF Done:  E(UB3LYP) =  -799.855571615     A.U. after    1 cycles

 Alpha  occ. eigenvalues --  -19.06751 -19.06750 -14.31773 -14.31772 -10.21643
 Alpha  occ. eigenvalues --  -10.21642 -10.21236 -10.21234 -10.16922 -10.16922
 Alpha  occ. eigenvalues --  -10.16904 -10.16903 -10.16773 -10.16772 -10.16235
 Alpha  occ. eigenvalues --  -10.16234 -10.15931 -10.15930  -0.99069  -0.98791
 Alpha  occ. eigenvalues --   -0.91898  -0.91896  -0.84676  -0.83257  -0.76982
 Alpha  occ. eigenvalues --   -0.74695  -0.74005  -0.72123  -0.66066  -0.63794
 Alpha  occ. eigenvalues --   -0.61003  -0.59560  -0.55701  -0.54081  -0.52841
 Alpha  occ. eigenvalues --   -0.50990  -0.49588  -0.49148  -0.46442  -0.45036
 Alpha  occ. eigenvalues --   -0.44295  -0.42126  -0.41922  -0.41800  -0.41372
 Alpha  occ. eigenvalues --   -0.40152  -0.39880  -0.39203  -0.38261  -0.37146
 Alpha  occ. eigenvalues --   -0.36858  -0.35302  -0.34609  -0.32895  -0.31054
 Alpha  occ. eigenvalues --   -0.29900  -0.25892  -0.25078  -0.23948  -0.23170
 Alpha  occ. eigenvalues --   -0.22348  -0.20904  -0.13304
 Alpha virt. eigenvalues --   -0.04802  -0.00767  -0.00449  -0.00090   0.00066
 Alpha virt. eigenvalues --    0.01159   0.01420   0.02169   0.03486   0.04085
 Alpha virt. eigenvalues --    0.04334   0.04466   0.04973   0.06037   0.06211

  Beta  occ. eigenvalues --  -19.06225 -19.06224 -14.31746 -14.31746 -10.21441
  Beta  occ. eigenvalues --  -10.21439 -10.21177 -10.21175 -10.16911 -10.16911
  Beta  occ. eigenvalues --  -10.16799 -10.16798 -10.16766 -10.16766 -10.16212
  Beta  occ. eigenvalues --  -10.16211 -10.15896 -10.15895  -0.98138  -0.97836
  Beta  occ. eigenvalues --   -0.91815  -0.91808  -0.84396  -0.83168  -0.76662
  Beta  occ. eigenvalues --   -0.74412  -0.73841  -0.71975  -0.65318  -0.63649
  Beta  occ. eigenvalues --   -0.60788  -0.59479  -0.55459  -0.53862  -0.52753
  Beta  occ. eigenvalues --   -0.50941  -0.49538  -0.48958  -0.46188  -0.44924
  Beta  occ. eigenvalues --   -0.44157  -0.42080  -0.41878  -0.41122  -0.40715
  Beta  occ. eigenvalues --   -0.39844  -0.39633  -0.38924  -0.37957  -0.36165
  Beta  occ. eigenvalues --   -0.35009  -0.34894  -0.34568  -0.32723  -0.30736
  Beta  occ. eigenvalues --   -0.28744  -0.24792  -0.24223  -0.23464  -0.22675
  Beta  occ. eigenvalues --   -0.21404  -0.20329
  Beta virt. eigenvalues --   -0.07522  -0.03862  -0.00507  -0.00068   0.00197
  Beta virt. eigenvalues --    0.00320   0.01164   0.01455   0.02168   0.03517
  Beta virt. eigenvalues --    0.04084   0.04374   0.04680   0.05247   0.06070

 Mulliken charges and spin densities:
               1          2
     1  N   -0.363598   0.011861
     2  C   -0.558098   0.035485
     3  C   -0.098772   0.005885
     4  C    0.119684   0.036231
     5  C    0.206526  -0.004491
     6  C   -0.722159   0.114656
     7  O   -0.488771   0.195826
     8  C    0.458030   0.060987
     9  C   -0.104878   0.049867
    10  C   -0.558221   0.035523
    11  N   -0.363649   0.011862
    12  C   -0.097929   0.006055
    13  C    0.119732   0.036230
    14  C    0.210815  -0.004408
    15  C   -0.721749   0.114657
    16  O   -0.488691   0.195842
    17  C    0.457284   0.060866
    18  C   -0.106284   0.050075
    19  H    0.269810   0.000359
    20  H    0.272079  -0.000266
    21  H    0.189413  -0.001182
    22  H    0.166601  -0.001922
    23  H    0.152380  -0.003493
    24  H    0.269905   0.000359
    25  H    0.272091  -0.000270
    26  H    0.189460  -0.001179
    27  H    0.166560  -0.001922
    28  H    0.152428  -0.003493
 Sum of Mulliken charges =  -1.00000   1.00000

 Dipole moment (field-independent basis, Debye):
    X=             -0.0200    Y=             -1.3037    Z=              2.8459  Tot=              3.1304
 Quadrupole moment (field-independent basis, Debye-Ang):
   XX=            -78.8791   YY=           -133.3939   ZZ=           -120.5707
   XY=             -0.7879   XZ=             -0.2199   YZ=            -10.4491

  Exact polarizability: 544.778  14.359 311.794  10.495  91.739 193.589
 Approx polarizability: 552.085  22.232 369.583  14.716 112.517 224.578

                      1                      2                      3
                      A                      A                      A
 Frequencies --     43.0385                90.1617               109.7595
 Red. masses --      6.7457                 4.1621                 5.4860
 Frc consts  --      0.0074                 0.0199                 0.0389
 IR Inten    --     19.3660                 1.2087                 1.7300

                      4                      5                      6
                      A                      A                      A
 Frequencies --    150.2567               168.3057               182.0413
 Red. masses --      6.9411                 4.7855                 4.9637
 Frc consts  --      0.0923                 0.0799                 0.0969
 IR Inten    --      2.3216                16.8432                 3.3218

                      7                      8                      9
                      A                      A                      A
 Frequencies --    240.7443               273.6793               304.8499
 Red. masses --      5.3627                 5.0801                 1.1345
 Frc consts  --      0.1831                 0.2242                 0.0621
 IR Inten    --      0.0426                11.2736                56.8301

                     10                     11                     12
                      A                      A                      A
 Frequencies --    312.8738               319.2180               320.9317
 Red. masses --      1.2588                 7.2357                 2.4745
 Frc consts  --      0.0726                 0.4344                 0.1502
 IR Inten    --     12.1022                 0.1266                37.6803

                     13                     14                     15
                      A                      A                      A
 Frequencies --    358.7922               387.0412               393.6515
 Red. masses --      8.3510                 5.3504                 4.2123
 Frc consts  --      0.6334                 0.4722                 0.3846
 IR Inten    --     16.3618                 0.2310                16.8585

                     16                     17                     18
                      A                      A                      A
 Frequencies --    425.4124               455.2445               458.7515
 Red. masses --      3.2041                 4.6334                 3.1239
 Frc consts  --      0.3416                 0.5658                 0.3873
 IR Inten    --     13.0304                 0.7969                 2.0077

                     19                     20                     21
                      A                      A                      A
 Frequencies --    484.8886               490.4885               542.8605
 Red. masses --      4.9529                10.6476                 5.5004
 Frc consts  --      0.6861                 1.5092                 0.9550
 IR Inten    --     75.9696                 0.7899               267.3566

                     22                     23                     24
                      A                      A                      A
 Frequencies --    558.0436               596.6770               612.8564
 Red. masses --      2.0953                 1.5320                 2.0137
 Frc consts  --      0.3845                 0.3214                 0.4456
 IR Inten    --    247.2070               933.0019               101.8373

                     25                     26                     27
                      A                      A                      A
 Frequencies --    651.1933               662.2392               673.9522
 Red. masses --      4.2216                 6.5566                 3.2823
 Frc consts  --      1.0548                 1.6942                 0.8784
 IR Inten    --     17.6993                22.0282               100.7508

                     28                     29                     30
                      A                      A                      A
 Frequencies --    704.1192               718.9449               735.8982
 Red. masses --      6.6334                 4.0611                 5.6867
 Frc consts  --      1.9377                 1.2368                 1.8145
 IR Inten    --      0.0129                16.3172                16.9299

                     31                     32                     33
                      A                      A                      A
 Frequencies --    736.6564               780.9235               815.5889
 Red. masses --      6.4574                 3.4499                 4.5996
 Frc consts  --      2.0646                 1.2396                 1.8027
 IR Inten    --     40.3876                 1.4752                 0.5377

                     34                     35                     36
                      A                      A                      A
 Frequencies --    827.3417               828.1548               882.6328
 Red. masses --      1.6170                 1.8111                 5.2846
 Frc consts  --      0.6521                 0.7319                 2.4256
 IR Inten    --     70.9411                 7.3105                94.0331

                     37                     38                     39
                      A                      A                      A
 Frequencies --    888.1310               889.6525               977.4105
 Red. masses --      1.6091                 1.5360                 1.3175
 Frc consts  --      0.7478                 0.7163                 0.7416
 IR Inten    --      2.9842                72.5619                 0.0773

                     40                     41                     42
                      A                      A                      A
 Frequencies --    978.9664               984.0875               991.0523
 Red. masses --      1.3374                 3.4565                 2.3368
 Frc consts  --      0.7552                 1.9722                 1.3523
 IR Inten    --      2.4191                 0.0456                 7.1745

                     43                     44                     45
                      A                      A                      A
 Frequencies --   1097.1101              1098.8115              1113.9345
 Red. masses --      1.9318                 1.5890                 1.8079
 Frc consts  --      1.3700                 1.1304                 1.3217
 IR Inten    --     28.2419                 0.1277                25.5698

                     46                     47                     48
                      A                      A                      A
 Frequencies --   1141.3513              1155.1660              1158.2269
 Red. masses --      1.2957                 1.9654                 2.1935
 Frc consts  --      0.9945                 1.5452                 1.7337
 IR Inten    --      0.0946                74.7326                 0.1685

                     49                     50                     51
                      A                      A                      A
 Frequencies --   1216.4662              1220.6274              1251.7117
 Red. masses --      1.6089                 1.9351                 3.0709
 Frc consts  --      1.4027                 1.6987                 2.8349
 IR Inten    --      4.5732               438.1540               159.6451

                     52                     53                     54
                      A                      A                      A
 Frequencies --   1277.8580              1296.2867              1349.0906
 Red. masses --      5.9090                 2.5797                 2.1082
 Frc consts  --      5.6850                 2.5540                 2.2607
 IR Inten    --      0.1180               190.2021                 0.0742

                     55                     56                     57
                      A                      A                      A
 Frequencies --   1369.1236              1372.7157              1412.2370
 Red. masses --      7.1309                 7.2531                 3.8814
 Frc consts  --      7.8755                 8.0525                 4.5609
 IR Inten    --     10.2272                 0.0249              1742.1673

                     58                     59                     60
                      A                      A                      A
 Frequencies --   1471.6985              1477.4672              1494.2758
 Red. masses --      3.2416                 4.3615                 5.5416
 Frc consts  --      4.1366                 5.6094                 7.2903
 IR Inten    --    456.8837                 0.9364                 0.5830

                     61                     62                     63
                      A                      A                      A
 Frequencies --   1498.0144              1528.8436              1559.4413
 Red. masses --      4.9994                 4.5481                 5.5830
 Frc consts  --      6.6100                 6.2633                 7.9993
 IR Inten    --   1212.8601                 0.0368                81.9828

                     64                     65                     66
                      A                      A                      A
 Frequencies --   1600.3618              1628.5718              1635.4678
 Red. masses --      8.1630                 4.6738                 4.1709
 Frc consts  --     12.3178                 7.3036                 6.5731
 IR Inten    --      0.0004                 1.9381               523.7159

                     67                     68                     69
                      A                      A                      A
 Frequencies --   1650.2545              1650.5850              3154.6315
 Red. masses --      1.1958                 1.2364                 1.0882
 Frc consts  --      1.9187                 1.9847                 6.3807
 IR Inten    --     47.8540               443.4959                47.0216

                     70                     71                     72
                      A                      A                      A
 Frequencies --   3154.8186              3173.3846              3173.6536
 Red. masses --      1.0882                 1.0889                 1.0889
 Frc consts  --      6.3815                 6.4606                 6.4617
 IR Inten    --      5.4424                45.6768                10.7004

                     73                     74                     75
                      A                      A                      A
 Frequencies --   3181.9280              3182.3430              3550.3740
 Red. masses --      1.0927                 1.0927                 1.0481
 Frc consts  --      6.5183                 6.5201                 7.7840
 IR Inten    --     59.6058                 0.2213                57.5520

                     76                     77                     78
                      A                      A                      A
 Frequencies --   3550.9494              3643.9938              3644.6058
 Red. masses --      1.0481                 1.0986                 1.0986
 Frc consts  --      7.7867                 8.5952                 8.5982
 IR Inten    --     41.2209                29.0029                28.2337

 - Thermochemistry -
 -------------------
 Temperature   298.150 Kelvin.  Pressure   1.00000 Atm.
 Atom     1 has atomic number  7 and mass  14.00307

 Molecular mass:   238.07423 amu.
 Principal axes and moments of inertia in atomic units:
                           1         2         3
     Eigenvalues --  1775.946896830.631808603.26728
           X            0.99912  -0.04152  -0.00569
           Y            0.03375   0.87756  -0.47827
           Z            0.02485   0.47766   0.87819
 This molecule is an asymmetric top.
 Rotational symmetry number  1.
 Warning -- assumption of classical behavior for rotation
           may cause significant error
 Rotational temperatures (Kelvin)      0.04877     0.01268     0.01007
 Rotational constants (GHZ):           1.01621     0.26421     0.20977
 Zero-point vibrational energy     551142.9 (Joules/Mol)
                                  131.72631 (Kcal/Mol)
 Warning -- explicit consideration of  24 degrees of freedom as
           vibrations may cause significant error
 Vibrational temperatures:     61.92   129.72   157.92   216.19   242.15
          (Kelvin)            261.92   346.38   393.76   438.61   450.16
                              459.28   461.75   516.22   556.87   566.38
                              612.07   655.00   660.04   697.65   705.70
                              781.06   802.90   858.49   881.76   936.92
                              952.81   969.67  1013.07  1034.40  1058.79
                             1059.88  1123.57  1173.45  1190.36  1191.53
                             1269.91  1277.82  1280.01  1406.28  1408.51
                             1415.88  1425.90  1578.50  1580.94  1602.70
                             1642.15  1662.03  1666.43  1750.22  1756.21
                             1800.93  1838.55  1865.07  1941.04  1969.86
                             1975.03  2031.89  2117.45  2125.75  2149.93
                             2155.31  2199.66  2243.69  2302.56  2343.15
                             2353.07  2374.35  2374.82  4538.81  4539.08
                             4565.79  4566.18  4578.08  4578.68  5108.20
                             5109.02  5242.89  5243.77

 Zero-point correction=                           0.209919 (Hartree/Particle)
 Thermal correction to Energy=                    0.224137
 Thermal correction to Enthalpy=                  0.225081
 Thermal correction to Gibbs Free Energy=         0.168877
 Sum of electronic and zero-point Energies=           -799.645652
 Sum of electronic and thermal Energies=              -799.631434
 Sum of electronic and thermal Enthalpies=            -799.630490
 Sum of electronic and thermal Free Energies=         -799.686694

                     E (Thermal)             CV                S
                      KCal/Mol        Cal/Mol-Kelvin    Cal/Mol-Kelvin
 Total                  140.648             58.154            118.292
 Electronic               0.000              0.000              1.377
 Translational            0.889              2.981             42.304
 Rotational               0.889              2.981             33.012
 Vibrational            138.871             52.193             41.599
 Vibration     1          0.595              1.980              5.114
 Vibration     2          0.602              1.956              3.657
 Vibration     3          0.606              1.941              3.273
 Vibration     4          0.618              1.902              2.669
 Vibration     5          0.625              1.881              2.454
 Vibration     6          0.630              1.864              2.307
 Vibration     7          0.658              1.778              1.797
 Vibration     8          0.676              1.722              1.573
 Vibration     9          0.696              1.665              1.390
 Vibration    10          0.701              1.649              1.347
 Vibration    11          0.705              1.637              1.314
 Vibration    12          0.706              1.633              1.305
 Vibration    13          0.734              1.557              1.127
 Vibration    14          0.755              1.498              1.012
 Vibration    15          0.761              1.484              0.986
 Vibration    16          0.787              1.415              0.874
 Vibration    17          0.814              1.349              0.780
 Vibration    18          0.817              1.342              0.770
 Vibration    19          0.841              1.284              0.697
 Vibration    20          0.846              1.271              0.682
 Vibration    21          0.898              1.155              0.559
 Vibration    22          0.914              1.122              0.528
 Vibration    23          0.955              1.039              0.455
 Vibration    24          0.972              1.005              0.428

                           ! Non-Optimized Parameters !
 Normal termination of Gaussian 16 at Sat Feb 10 18:51:34 2024.
