 Gaussian 16, Revision A.03,
 Gaussian 16:  ES64L-G16RevA.03 25-Dec-2016

 --------------------------------------
 #P UB3LYP/6-311++G(d,p) nosym opt freq
 --------------------------------------

 -------
 Radical
 -------
 Symbolic Z-matrix:
 Charge = -1 Multiplicity = 2

 SCF Done:  E(UB3LYP) =  -613.964504508     A.U. after   24 cycles
 SCF Done:  E(UB3LYP) =  -613.984787941     A.U. after   18 cycles
 SCF Done:  E(UB3LYP) =  -613.986377886     A.U. after   17 cycles
 SCF Done:  E(UB3LYP) =  -613.986513606     A.U. after   15 cycles
 SCF Done:  E(UB3LYP) =  -613.986621524     A.U. after   15 cycles
 SCF Done:  E(UB3LYP) =  -613.986682890     A.U. after   14 cycles
 SCF Done:  E(UB3LYP) =  -613.986777296     A.U. after   14 cycles
 SCF Done:  E(UB3LYP) =  -613.986896596     A.U. after   14 cycles
 SCF Done:  E(UB3LYP) =  -613.987029372     A.U. after   16 cycles
 SCF Done:  E(UB3LYP) =  -613.987146586     A.U. after   14 cycles
 SCF Done:  E(UB3LYP) =  -613.987316976     A.U. after   12 cycles
 SCF Done:  E(UB3LYP) =  -613.987333006     A.U. after   12 cycles
 SCF Done:  E(UB3LYP) =  -613.987379979     A.U. after   13 cycles
 SCF Done:  E(UB3LYP) =  -613.987402887     A.U. after   12 cycles
 SCF Done:  E(UB3LYP) =  -613.987414808     A.U. after   11 cycles
 SCF Done:  E(UB3LYP) =  -613.987443077     A.U. after   13 cycles
 SCF Done:  E(UB3LYP) =  -613.987448517     A.U. after   12 cycles
 SCF Done:  E(UB3LYP) =  -613.987449448     A.U. after   11 cycles
 SCF Done:  E(UB3LYP) =  -613.987449477     A.U. after   10 cycles
 Optimization completed.
    -- Stationary point found.
 Normal termination of Gaussian 16 at Tue Dec 26 21:30:39 2023.

 ----------------------------------------------------------------------
 #P Geom=AllCheck Guess=TCheck SCRF=Check GenChk UB3LYP/6-311++G(d,p) F
 req
 ----------------------------------------------------------------------

 Structure from the checkpoint file:  "243-rad.chk"
 -------
 Radical
 -------
 Charge = -1 Multiplicity = 2

                          Input orientation:
 ---------------------------------------------------------------------
 Center     Atomic      Atomic             Coordinates (Angstroms)
 Number     Number       Type             X           Y           Z
 ---------------------------------------------------------------------
      1          6           0        3.729488   -1.040264   -0.323824
      2          6           0        2.438186   -0.293263   -0.080280
      3          6           0        2.454479    1.105246    0.131415
      4          6           0        1.280044    1.798562    0.355085
      5          6           0        0.036714    1.138023    0.379223
      6          6           0       -1.202175    1.898567    0.619713
      7          8           0       -1.192529    3.145495    0.809134
      8          6           0       -2.411249    1.121554    0.622597
      9          6           0       -2.460819   -0.243738    0.419257
     10          6           0       -3.766994   -0.993139    0.436135
     11          6           0       -1.260398   -1.015651    0.180913
     12          8           0       -1.294253   -2.264639   -0.006368
     13          6           0        0.005502   -0.264728    0.168357
     14          6           0        1.218394   -0.948831   -0.057818
     15          1           0        4.249649   -0.665675   -1.213812
     16          1           0        4.422103   -0.932778    0.519806
     17          1           0        3.544837   -2.107404   -0.469841
     18          1           0        3.403173    1.637167    0.117250
     19          1           0        1.279398    2.870661    0.518648
     20          1           0       -3.329221    1.677492    0.799629
     21          1           0       -3.761594   -1.773776    1.204811
     22          1           0       -4.605979   -0.317044    0.623955
     23          1           0       -3.934699   -1.510942   -0.514673
     24          1           0        1.157945   -2.020895   -0.215376
 ---------------------------------------------------------------------

 SCF Done:  E(UB3LYP) =  -613.987449477     A.U. after    1 cycles

 Alpha  occ. eigenvalues --  -18.93576 -18.93436 -10.08239 -10.08123 -10.06695
 Alpha  occ. eigenvalues --  -10.06099 -10.04935 -10.04441 -10.04139 -10.04090
 Alpha  occ. eigenvalues --  -10.03988 -10.03961 -10.03894 -10.02560  -0.85894
 Alpha  occ. eigenvalues --   -0.85570  -0.73371  -0.68409  -0.65059  -0.62348
 Alpha  occ. eigenvalues --   -0.59103  -0.56045  -0.52838  -0.47792  -0.46446
 Alpha  occ. eigenvalues --   -0.42563  -0.37386  -0.36369  -0.34319  -0.31858
 Alpha  occ. eigenvalues --   -0.31778  -0.30653  -0.29815  -0.29343  -0.27531
 Alpha  occ. eigenvalues --   -0.27385  -0.26484  -0.25866  -0.25616  -0.24261
 Alpha  occ. eigenvalues --   -0.23238  -0.21819  -0.21206  -0.20695  -0.13534
 Alpha  occ. eigenvalues --   -0.12639  -0.11471  -0.10298  -0.09612  -0.01450
 Alpha virt. eigenvalues --    0.07712   0.09421   0.09670   0.09947   0.10207
 Alpha virt. eigenvalues --    0.11640   0.12006   0.12116   0.13426   0.13538
 Alpha virt. eigenvalues --    0.13542   0.14751   0.17003   0.17261   0.17326

  Beta  occ. eigenvalues --  -18.92908 -18.92779 -10.08133 -10.07976 -10.06698
  Beta  occ. eigenvalues --  -10.06066 -10.04894 -10.04457 -10.04123 -10.04040
  Beta  occ. eigenvalues --  -10.03986 -10.03824 -10.03823 -10.02417  -0.84753
  Beta  occ. eigenvalues --   -0.84411  -0.73212  -0.67926  -0.64921  -0.62205
  Beta  occ. eigenvalues --   -0.58830  -0.55861  -0.52082  -0.47683  -0.46127
  Beta  occ. eigenvalues --   -0.42301  -0.37209  -0.36132  -0.34115  -0.31791
  Beta  occ. eigenvalues --   -0.31677  -0.30456  -0.29228  -0.29222  -0.27369
  Beta  occ. eigenvalues --   -0.27114  -0.25723  -0.25579  -0.25165  -0.24063
  Beta  occ. eigenvalues --   -0.21644  -0.20763  -0.20488  -0.20101  -0.12062
  Beta  occ. eigenvalues --   -0.10902  -0.10454  -0.09676  -0.09000
  Beta virt. eigenvalues --    0.05213   0.07704   0.09414   0.09935   0.10238
  Beta virt. eigenvalues --    0.10670   0.11638   0.12006   0.12679   0.13424
  Beta virt. eigenvalues --    0.13531   0.13764   0.14740   0.17009   0.17266

 Mulliken charges and spin densities:
               1          2
     1  C   -0.456130  -0.000983
     2  C    0.650303   0.019460
     3  C   -0.366223   0.037740
     4  C    0.014164   0.004667
     5  C    0.403087   0.051955
     6  C   -0.862935   0.058643
     7  O   -0.406375   0.238530
     8  C   -0.431569   0.116147
     9  C    1.140475   0.097122
    10  C   -0.362452   0.006788
    11  C   -0.830295   0.085240
    12  O   -0.381771   0.249781
    13  C   -0.091023   0.024218
    14  C   -0.353104   0.013433
    15  H    0.129015   0.002242
    16  H    0.129144   0.002245
    17  H    0.153572   0.000024
    18  H    0.122164  -0.002845
    19  H    0.147383  -0.002197
    20  H    0.107195  -0.010569
    21  H    0.151833   0.005554
    22  H    0.123647  -0.000262
    23  H    0.151791   0.005564
    24  H    0.118106  -0.002500
 Sum of Mulliken charges =  -1.00000   1.00000

 Dipole moment (field-independent basis, Debye):
    X=              4.3863    Y=             -2.2813    Z=             -1.7939  Tot=              5.2594
 Quadrupole moment (field-independent basis, Debye-Ang):
   XX=            -97.3029   YY=           -121.5201   ZZ=            -89.7832
   XY=              1.8843   XZ=              2.1079   YZ=             -5.7342

  Exact polarizability: 239.742   2.877 196.808 -14.567  15.966  94.144
 Approx polarizability: 333.035   5.510 358.122 -18.461  32.614 147.585

                      1                      2                      3
                      A                      A                      A
 Frequencies --     68.8755                79.6293               104.4129
 Red. masses --      1.5135                 1.9298                 2.7732
 Frc consts  --      0.0042                 0.0072                 0.0178
 IR Inten    --      2.8670                 4.3601                 0.9580

                      4                      5                      6
                      A                      A                      A
 Frequencies --    111.8557               156.3972               200.1898
 Red. masses --      1.1954                 5.2837                 3.8547
 Frc consts  --      0.0088                 0.0761                 0.0910
 IR Inten    --      0.0357                 1.9235                 2.4003

                      7                      8                      9
                      A                      A                      A
 Frequencies --    209.0430               284.4254               289.8846
 Red. masses --      3.8705                 3.9952                 3.2119
 Frc consts  --      0.0997                 0.1904                 0.1590
 IR Inten    --      0.2504                 1.8678                 0.8694

                     10                     11                     12
                      A                      A                      A
 Frequencies --    336.8964               368.8898               373.4161
 Red. masses --      5.5927                 4.9260                 4.7996
 Frc consts  --      0.3740                 0.3949                 0.3943
 IR Inten    --      7.0467                 2.8164                 0.2262

                     13                     14                     15
                      A                      A                      A
 Frequencies --    421.1550               448.3681               460.6763
 Red. masses --      6.2886                 3.2002                 5.4676
 Frc consts  --      0.6572                 0.3790                 0.6837
 IR Inten    --      2.0384                 2.4520                 2.5593

                     16                     17                     18
                      A                      A                      A
 Frequencies --    504.9583               524.2251               640.1160
 Red. masses --      9.1404                 4.0108                 4.7802
 Frc consts  --      1.3732                 0.6494                 1.1540
 IR Inten    --      1.3225                 6.0429                 0.4114

                     19                     20                     21
                      A                      A                      A
 Frequencies --    658.4418               676.2877               701.6332
 Red. masses --      3.0457                 6.0869                 4.3779
 Frc consts  --      0.7780                 1.6402                 1.2698
 IR Inten    --      4.3092                10.8458                 3.4719

                     22                     23                     24
                      A                      A                      A
 Frequencies --    703.7264               743.9692               789.8155
 Red. masses --      4.5901                 5.5213                 3.6225
 Frc consts  --      1.3393                 1.8005                 1.3314
 IR Inten    --      0.9973                12.9226                 0.5650

                     25                     26                     27
                      A                      A                      A
 Frequencies --    821.0288               864.6135               879.8681
 Red. masses --      1.5357                 1.5532                 4.6091
 Frc consts  --      0.6099                 0.6841                 2.1023
 IR Inten    --     31.7412                18.6933                 9.7593

                     28                     29                     30
                      A                      A                      A
 Frequencies --    927.5180               974.0602               979.1283
 Red. masses --      1.3581                 2.1406                 1.3168
 Frc consts  --      0.6884                 1.1966                 0.7438
 IR Inten    --      4.1269                 8.3022                 1.2908

                     31                     32                     33
                      A                      A                      A
 Frequencies --   1007.1646              1038.3426              1046.6990
 Red. masses --      1.5210                 1.9666                 1.4884
 Frc consts  --      0.9090                 1.2492                 0.9608
 IR Inten    --     17.2295                14.3910                 0.6607

                     34                     35                     36
                      A                      A                      A
 Frequencies --   1055.5143              1103.5937              1139.8279
 Red. masses --      1.4936                 2.7114                 2.3592
 Frc consts  --      0.9804                 1.9456                 1.8059
 IR Inten    --      2.7216                 1.0333                 0.9010

                     37                     38                     39
                      A                      A                      A
 Frequencies --   1152.1758              1204.5998              1231.9476
 Red. masses --      1.7695                 2.2188                 5.2209
 Frc consts  --      1.3840                 1.8969                 4.6685
 IR Inten    --      9.7596                11.8403                21.2661

                     40                     41                     42
                      A                      A                      A
 Frequencies --   1244.2826              1294.5298              1354.2050
 Red. masses --      1.7355                 1.7693                 8.4224
 Frc consts  --      1.5832                 1.7469                 9.1003
 IR Inten    --     30.6332                 3.6633                 4.4417

                     43                     44                     45
                      A                      A                      A
 Frequencies --   1383.8728              1396.0174              1402.4499
 Red. masses --      2.4816                 1.4540                 1.2971
 Frc consts  --      2.8001                 1.6695                 1.5032
 IR Inten    --     20.0947                41.0838                 0.1112

                     46                     47                     48
                      A                      A                      A
 Frequencies --   1439.6985              1464.7570              1474.4144
 Red. masses --      3.7272                 1.0466                 1.6878
 Frc consts  --      4.5518                 1.3230                 2.1618
 IR Inten    --     52.8454                 4.2733                65.4662

                     49                     50                     51
                      A                      A                      A
 Frequencies --   1483.5568              1490.5714              1491.9400
 Red. masses --      1.0456                 2.1362                 1.1935
 Frc consts  --      1.3559                 2.7964                 1.5652
 IR Inten    --      4.7088                62.5042                22.0939

                     52                     53                     54
                      A                      A                      A
 Frequencies --   1512.3404              1534.3652              1550.3249
 Red. masses --      5.2404                 4.8686                 4.3148
 Frc consts  --      7.0618                 6.7533                 6.1102
 IR Inten    --      4.5256               470.6549                28.5963

                     55                     56                     57
                      A                      A                      A
 Frequencies --   1622.9991              1637.9885              2995.8976
 Red. masses --      7.2721                 6.2152                 1.0384
 Frc consts  --     11.2862                 9.8249                 5.4912
 IR Inten    --     16.0517                16.1509               127.1197

                     58                     59                     60
                      A                      A                      A
 Frequencies --   3005.6305              3032.8055              3046.7760
 Red. masses --      1.0344                 1.0997                 1.0987
 Frc consts  --      5.5058                 5.9597                 6.0093
 IR Inten    --     93.1647                39.3646                35.0352

                     61                     62                     63
                      A                      A                      A
 Frequencies --   3077.3459              3083.2966              3124.7864
 Red. masses --      1.1022                 1.0973                 1.0877
 Frc consts  --      6.1500                 6.1460                 6.2574
 IR Inten    --     26.0208                25.0741                39.8334

                     64                     65                     66
                      A                      A                      A
 Frequencies --   3131.0956              3164.7461              3176.7481
 Red. masses --      1.0884                 1.0891                 1.0914
 Frc consts  --      6.2868                 6.4271                 6.4894
 IR Inten    --     42.9730                11.2955                15.4989

 - Thermochemistry -
 -------------------
 Temperature   298.150 Kelvin.  Pressure   1.00000 Atm.
 Atom     1 has atomic number  6 and mass  12.00000

 Molecular mass:   186.06808 amu.
 Principal axes and moments of inertia in atomic units:
                           1         2         3
     Eigenvalues --  1616.290903141.091984735.20511
           X            0.99416   0.04344   0.09879
           Y           -0.02827   0.98827  -0.15010
           Z           -0.10415   0.14643   0.98372
 This molecule is an asymmetric top.
 Rotational symmetry number  1.
 Warning -- assumption of classical behavior for rotation
           may cause significant error
 Rotational temperatures (Kelvin)      0.05359     0.02757     0.01829
 Rotational constants (GHZ):           1.11659     0.57456     0.38113
 Zero-point vibrational energy     483894.3 (Joules/Mol)
                                  115.65352 (Kcal/Mol)
 Warning -- explicit consideration of  17 degrees of freedom as
           vibrations may cause significant error
 Vibrational temperatures:     99.10   114.57   150.23   160.94   225.02
          (Kelvin)            288.03   300.77   409.22   417.08   484.72
                              530.75   537.26   605.95   645.10   662.81
                              726.52   754.24   920.98   947.35   973.03
                             1009.49  1012.51  1070.41  1136.37  1181.28
                             1243.99  1265.93  1334.49  1401.46  1408.75
                             1449.09  1493.94  1505.97  1518.65  1587.83
                             1639.96  1657.72  1733.15  1772.50  1790.25
                             1862.54  1948.40  1991.08  2008.56  2017.81
                             2071.41  2107.46  2121.35  2134.51  2144.60
                             2146.57  2175.92  2207.61  2230.57  2335.13
                             2356.70  4310.43  4324.43  4363.53  4383.63
                             4427.61  4436.18  4495.87  4504.95  4553.36
                             4570.63

 Zero-point correction=                           0.184306 (Hartree/Particle)
 Thermal correction to Energy=                    0.196498
 Thermal correction to Enthalpy=                  0.197442
 Thermal correction to Gibbs Free Energy=         0.145251
 Sum of electronic and zero-point Energies=           -613.803144
 Sum of electronic and thermal Energies=              -613.790952
 Sum of electronic and thermal Enthalpies=            -613.790007
 Sum of electronic and thermal Free Energies=         -613.842199

                     E (Thermal)             CV                S
                      KCal/Mol        Cal/Mol-Kelvin    Cal/Mol-Kelvin
 Total                  123.304             46.796            109.846
 Electronic               0.000              0.000              1.377
 Translational            0.889              2.981             41.569
 Rotational               0.889              2.981             31.553
 Vibrational            121.527             40.834             35.347
 Vibration     1          0.598              1.969              4.185
 Vibration     2          0.600              1.963              3.900
 Vibration     3          0.605              1.946              3.370
 Vibration     4          0.607              1.940              3.236
 Vibration     5          0.620              1.896              2.593
 Vibration     6          0.638              1.840              2.131
 Vibration     7          0.642              1.827              2.052
 Vibration     8          0.683              1.703              1.507
 Vibration     9          0.686              1.693              1.475
 Vibration    10          0.718              1.602              1.227
 Vibration    11          0.741              1.536              1.084
 Vibration    12          0.745              1.527              1.066
 Vibration    13          0.784              1.424              0.888
 Vibration    14          0.807              1.364              0.801
 Vibration    15          0.819              1.337              0.764
 Vibration    16          0.860              1.239              0.646
 Vibration    17          0.879              1.196              0.600

 Optimization completed.
    -- Stationary point found.
 Normal termination of Gaussian 16 at Tue Dec 26 21:56:01 2023.
