 Q-Chem 5.4, Q-Chem, Inc., Pleasanton, CA (2021)
 Q-Chem 5.4.0 for Intel X86 EM64T Linux

User input:
--------------------------------------------------------------
$molecule
0 1
Br                -2.3132430000      2.1146500000      0.8005650000
C                 -1.0057420000      0.8238420000      0.3372390000
C                 -1.3499900000     -0.4873660000      0.2662460000
Br                -3.0865620000     -1.1501930000      0.6044860000
C                 -0.3484000000     -1.5174910000     -0.0942990000
O                 -0.5933640000     -2.6930980000     -0.1733670000
C                  1.1050700000     -1.0311370000     -0.3856920000
O                  1.9405970000     -1.8451710000     -0.6815870000
C                  1.3694640000      0.4224940000     -0.2783140000
C                  0.3790580000      1.2870980000      0.0602240000
Br                 0.7526550000      3.1405100000      0.1886050000
Br                 3.1504580000      0.9358630000     -0.6441060000
$end
$rem
MAX_SCF_CYCLES=200
BASIS  =  6-311++G(d,p)
GUI  =  2
JOB_TYPE  =  SP
METHOD  =  B3LYP
SOLVENT_METHOD = PCM
$end
$pcm
theory = CPCM
$end
$solvent
dielectric 37.219
opticaldielectric 1.43
$end

--------------------------------------------------------------

             Standard Nuclear Orientation (Angstroms)
    I     Atom           X                Y                Z
 ----------------------------------------------------------------
    1      Br     -2.3132430000     2.1146500000     0.8005650000
    2      C      -1.0057420000     0.8238420000     0.3372390000
    3      C      -1.3499900000    -0.4873660000     0.2662460000
    4      Br     -3.0865620000    -1.1501930000     0.6044860000
    5      C      -0.3484000000    -1.5174910000    -0.0942990000
    6      O      -0.5933640000    -2.6930980000    -0.1733670000
    7      C       1.1050700000    -1.0311370000    -0.3856920000
    8      O       1.9405970000    -1.8451710000    -0.6815870000
    9      C       1.3694640000     0.4224940000    -0.2783140000
   10      C       0.3790580000     1.2870980000     0.0602240000
   11      Br      0.7526550000     3.1405100000     0.1886050000
   12      Br      3.1504580000     0.9358630000    -0.6441060000
 ----------------------------------------------------------------

    9  -10675.6977390199      3.59e-06  Convergence criterion met
 Total energy in the final basis set =   -10675.6977390199

                    Orbital Energies (a.u.)
 --------------------------------------------------------------

 Alpha MOs
 -- Occupied --
********-482.8662-482.8590-482.8590 -62.5189 -62.5189 -62.5117 -62.5117
-56.3397 -56.3397 -56.3357 -56.3357 -56.3350 -56.3350 -56.3325 -56.3325
-56.3284 -56.3284 -56.3280 -56.3280 -19.1693 -19.1693 -10.3143 -10.3142
-10.3016 -10.3014 -10.2766 -10.2766  -8.7278  -8.7277  -8.7206  -8.7205
 -6.5600  -6.5600  -6.5527  -6.5527  -6.5465  -6.5465  -6.5448  -6.5448
 -6.5392  -6.5392  -6.5379  -6.5378  -2.6709  -2.6708  -2.6672  -2.6672
 -2.6660  -2.6659  -2.6635  -2.6634  -2.6599  -2.6599  -2.6589  -2.6588
 -2.6552  -2.6552  -2.6552  -2.6551  -2.6481  -2.6481  -2.6480  -2.6480
 -1.1178  -1.0907  -0.9335  -0.8785  -0.8423  -0.8194  -0.8059  -0.7443
 -0.7221  -0.6258  -0.6255  -0.5713  -0.5162  -0.4981  -0.4895  -0.4749
 -0.4572  -0.4401  -0.4313  -0.4241  -0.4239  -0.3706  -0.3505  -0.3468
 -0.3384  -0.3314  -0.3273  -0.3118  -0.3039  -0.2946  -0.2862  -0.2640

          Ground-State Mulliken Net Atomic Charges

     Atom                 Charge (a.u.)
  ----------------------------------------
      1 Br                   -0.131141
      2 C                    -0.444982
      3 C                     1.201166
      4 Br                   -0.069135
      5 C                    -0.348478
      6 O                    -0.207623
      7 C                    -0.328843
      8 O                    -0.208376
      9 C                     1.185760
     10 C                    -0.449321
     11 Br                   -0.130512
     12 Br                   -0.068516
  ----------------------------------------
  Sum of atomic charges =     0.000000

                    Cartesian Multipole Moments
 -----------------------------------------------------------------
    Charge (ESU x 10^10)
                 0.0000
    Dipole Moment (Debye)
         X      -1.7322      Y       5.8394      Z       1.0992
       Tot       6.1893
    Quadrupole Moments (Debye-Ang)
        XX    -116.3326     XY       2.7262     YY    -124.7410
        XZ       0.4950     YZ      -1.7229     ZZ    -115.9449

 Total job time:  53.88s(wall), 169.32s(cpu)
        *  Thank you very much for using Q-Chem.  Have a nice day.  *
