 Q-Chem 5.4, Q-Chem, Inc., Pleasanton, CA (2021)
 Q-Chem 5.4.0 for Intel X86 EM64T Linux

User input:
--------------------------------------------------------------
$molecule
-1 1
C                 -5.0461510000     -0.0935260000     -3.9588530000
C                 -4.4809470000     -0.0680410000     -5.2293510000
C                 -3.0926580000      0.0013560000     -5.3788850000
C                 -4.2302720000     -0.0499540000     -2.8253240000
C                 -2.8385620000      0.0195300000     -2.9769080000
C                 -2.2746780000      0.0449540000     -4.2554530000
C                 -4.8712990000     -0.0790020000     -1.4590040000
C                 -3.9510730000     -0.0302080000     -0.2834500000
C                 -2.6165530000      0.0360890000     -0.4542070000
C                 -1.9589240000      0.0662020000     -1.7682310000
O                 -6.0797950000     -0.1394090000     -1.3624960000
O                 -0.7391520000      0.1269290000     -1.8767260000
S                 -4.6343630000     -0.0598230000      1.4299420000
O                 -5.4793220000      1.1523820000      1.4844170000
O                 -5.3555880000     -1.3491360000      1.4911360000
O                 -3.4187220000      0.0025710000      2.2762830000
H                 -6.1187800000     -0.1471010000     -3.8166010000
H                 -5.1194240000     -0.1021290000     -6.1058870000
H                 -2.6537490000      0.0211550000     -6.3708430000
H                 -1.1958960000      0.0988780000     -4.3410770000
H                 -1.9720030000      0.0702530000      0.4174670000
$end
$rem
MAX_SCF_CYCLES=200
BASIS  =  6-311++G(d,p)
GUI  =  2
JOB_TYPE  =  SP
METHOD  =  B3LYP
SOLVENT_METHOD = COSMO
$end
$solvent
dielectric 37.219
opticaldielectric 1.43
$end

--------------------------------------------------------------

             Standard Nuclear Orientation (Angstroms)
    I     Atom           X                Y                Z
 ----------------------------------------------------------------
    1      C       2.3591209493    -1.7380961905     0.0001331404
    2      C       3.7258277558    -1.4804478304    -0.0000726607
    3      C       4.1917713513    -0.1623358422    -0.0003191956
    4      C       1.4444681339    -0.6817556763     0.0001014733
    5      C       1.9131953516     0.6392126150    -0.0000657572
    6      C       3.2874277687     0.8937201263    -0.0002957314
    7      C      -0.0329785105    -0.9911762903     0.0003018056
    8      C      -0.9644394294     0.1765156657     0.0003720343
    9      C      -0.4902589909     1.4373288061     0.0004826596
   10      C       0.9401344915     1.7749915911     0.0001728904
   11      O      -0.4058255565    -2.1463431374     0.0004339404
   12      O       1.3272460669     2.9383691252     0.0002565463
   13      S      -2.7893497550    -0.0939957900    -0.0001511146
   14      O      -3.0258190221    -0.8429437461    -1.2529573423
   15      O      -3.0269211883    -0.8442281570     1.2516273913
   16      O      -3.3322902272     1.2855637614     0.0003266035
   17      H       1.9731225752    -2.7503432426     0.0003440998
   18      H       4.4313628024    -2.3046750606    -0.0000327509
   19      H       5.2582961549     0.0365072997    -0.0005003317
   20      H       3.6197441018     1.9250181975    -0.0004132255
   21      H      -1.1896633645     2.2663408294     0.0006589757
 ----------------------------------------------------------------

   10   -1158.6376090858      7.51e-06  Convergence criterion met
 Total energy in the final basis set =    -1158.6376090858
    5   -1158.7396326292      9.10e-06  Convergence criterion met
 Total energy in the final basis set =    -1158.7396326292

                    Orbital Energies (a.u.)
 --------------------------------------------------------------

 Alpha MOs
 -- Occupied --
-89.0622 -19.1398 -19.1396 -19.1062 -19.1062 -19.1049 -10.2930 -10.2883
-10.2312 -10.2144 -10.2079 -10.2062 -10.1956 -10.1954 -10.1949 -10.1945
 -8.1207  -6.0833  -6.0832  -6.0828  -1.1278  -1.0755  -1.0689  -0.9925
 -0.9905  -0.8895  -0.8457  -0.7777  -0.7759  -0.7091  -0.6613  -0.6458
 -0.6037  -0.5843  -0.5466  -0.5297  -0.5163  -0.4936  -0.4703  -0.4696
 -0.4670  -0.4586  -0.4539  -0.4512  -0.4484  -0.4284  -0.4235  -0.3823
 -0.3817  -0.3672  -0.3512  -0.3506  -0.3352  -0.3203  -0.3134  -0.2987
 -0.2926  -0.2784  -0.2770  -0.2730  -0.2714

          Ground-State Mulliken Net Atomic Charges

     Atom                 Charge (a.u.)
  ----------------------------------------
      1 C                     0.206017
      2 C                    -0.392756
      3 C                    -0.391861
      4 C                     0.006355
      5 C                     0.554563
      6 C                     0.161385
      7 C                    -0.492817
      8 C                    -0.409342
      9 C                     0.096121
     10 C                    -0.479580
     11 O                    -0.240710
     12 O                    -0.307546
     13 S                     0.660201
     14 O                    -0.361358
     15 O                    -0.361406
     16 O                    -0.389967
     17 H                     0.199061
     18 H                     0.228050
     19 H                     0.230772
     20 H                     0.195661
     21 H                     0.289159
  ----------------------------------------
  Sum of atomic charges =    -1.000000

                    Cartesian Multipole Moments
 -----------------------------------------------------------------
    Charge (ESU x 10^10)
                -4.8032
    Dipole Moment (Debye)
         X      18.5127      Y       0.0702      Z       0.0015
       Tot      18.5128
    Quadrupole Moments (Debye-Ang)
        XX    -135.5656     XY     -13.1403     YY    -121.2420
        XZ      -0.0057     YZ       0.0008     ZZ    -109.1708

 Total job time:  41.61s(wall), 320.95s(cpu)
        *  Thank you very much for using Q-Chem.  Have a nice day.  *
