 Q-Chem 5.4, Q-Chem, Inc., Pleasanton, CA (2021)
 Q-Chem 5.4.0 for Intel X86 EM64T Linux

User input:
--------------------------------------------------------------
$molecule
-1 2
C                  4.3904250000     -0.1112880000      0.0160680000
C                  2.9449670000      0.3099520000     -0.1007650000
C                  2.6141270000      1.6443970000     -0.4354130000
C                  1.3015060000      2.0491310000     -0.5355630000
C                  0.2382050000      1.1566260000     -0.3019530000
C                 -1.1351480000      1.6521110000     -0.4231320000
O                 -1.3805490000      2.8427310000     -0.7323650000
C                 -2.1979140000      0.6808610000     -0.1620450000
C                 -3.5463450000      1.0862560000     -0.2661090000
C                 -4.5774400000      0.2011510000     -0.0237730000
C                 -4.2893270000     -1.1333810000      0.3361180000
C                 -2.9782860000     -1.5511020000      0.4448890000
C                 -1.9075510000     -0.6634870000      0.1995870000
C                 -0.5354280000     -1.1593950000      0.3298990000
O                 -0.2844020000     -2.3375850000      0.6734640000
C                  0.5275500000     -0.1993460000      0.0445050000
C                  1.8926550000     -0.5617860000      0.1190410000
N                  2.2946120000     -1.9655520000      0.4285200000
O                  2.4024960000     -2.7393370000     -0.5120390000
O                  2.6323960000     -2.2114720000      1.5787810000
H                  5.0413620000      0.6512590000     -0.4168590000
H                  4.5838000000     -1.0546140000     -0.5016510000
H                  4.6802720000     -0.2503460000      1.0624600000
H                  3.4191650000      2.3490300000     -0.6202650000
H                  1.0432770000      3.0684870000     -0.7972760000
H                 -3.7367900000      2.1167900000     -0.5425570000
H                 -5.6090720000      0.5290980000     -0.1088710000
H                 -5.0999540000     -1.8301230000      0.5270630000
H                 -2.7286080000     -2.5690640000      0.7202410000
$end
$rem
MAX_SCF_CYCLES=200
BASIS  =  6-311++G(d,p)
GUI  =  2
JOB_TYPE  =  SP
METHOD  =  B3LYP
SOLVENT_METHOD = PCM
$end
$pcm
theory = CPCM
$end
$solvent
dielectric 37.219
opticaldielectric 1.43
$end

--------------------------------------------------------------

             Standard Nuclear Orientation (Angstroms)
    I     Atom           X                Y                Z
 ----------------------------------------------------------------
    1      C       4.3904250000    -0.1112880000     0.0160680000
    2      C       2.9449670000     0.3099520000    -0.1007650000
    3      C       2.6141270000     1.6443970000    -0.4354130000
    4      C       1.3015060000     2.0491310000    -0.5355630000
    5      C       0.2382050000     1.1566260000    -0.3019530000
    6      C      -1.1351480000     1.6521110000    -0.4231320000
    7      O      -1.3805490000     2.8427310000    -0.7323650000
    8      C      -2.1979140000     0.6808610000    -0.1620450000
    9      C      -3.5463450000     1.0862560000    -0.2661090000
   10      C      -4.5774400000     0.2011510000    -0.0237730000
   11      C      -4.2893270000    -1.1333810000     0.3361180000
   12      C      -2.9782860000    -1.5511020000     0.4448890000
   13      C      -1.9075510000    -0.6634870000     0.1995870000
   14      C      -0.5354280000    -1.1593950000     0.3298990000
   15      O      -0.2844020000    -2.3375850000     0.6734640000
   16      C       0.5275500000    -0.1993460000     0.0445050000
   17      C       1.8926550000    -0.5617860000     0.1190410000
   18      N       2.2946120000    -1.9655520000     0.4285200000
   19      O       2.4024960000    -2.7393370000    -0.5120390000
   20      O       2.6323960000    -2.2114720000     1.5787810000
   21      H       5.0413620000     0.6512590000    -0.4168590000
   22      H       4.5838000000    -1.0546140000    -0.5016510000
   23      H       4.6802720000    -0.2503460000     1.0624600000
   24      H       3.4191650000     2.3490300000    -0.6202650000
   25      H       1.0432770000     3.0684870000    -0.7972760000
   26      H      -3.7367900000     2.1167900000    -0.5425570000
   27      H      -5.6090720000     0.5290980000    -0.1088710000
   28      H      -5.0999540000    -1.8301230000     0.5270630000
   29      H      -2.7286080000    -2.5690640000     0.7202410000
 ----------------------------------------------------------------

   10    -932.9868195387      7.54e-06  Convergence criterion met
 Total energy in the final basis set =     -932.9868195387

                    Orbital Energies (a.u.)
 --------------------------------------------------------------

 Alpha MOs
 -- Occupied --
-19.1747 -19.1736 -19.0855 -19.0842 -14.5628 -10.2353 -10.2343 -10.2335
-10.2048 -10.1961 -10.1839 -10.1816 -10.1803 -10.1793 -10.1779 -10.1758
-10.1753 -10.1734 -10.1732 -10.1707  -1.2486  -1.0755  -1.0167  -1.0114
 -0.8886  -0.8611  -0.8124  -0.7963  -0.7622  -0.7550  -0.7184  -0.6986
 -0.6618  -0.6371  -0.6241  -0.5923  -0.5732  -0.5640  -0.5349  -0.5342
 -0.5282  -0.5123  -0.4804  -0.4697  -0.4582  -0.4526  -0.4384  -0.4278
 -0.4247  -0.4229  -0.4222  -0.4088  -0.3917  -0.3910  -0.3824  -0.3724
 -0.3712  -0.3548  -0.3471  -0.3427  -0.3328  -0.3247  -0.3213  -0.2754
 -0.2660  -0.2609  -0.2567  -0.2537  -0.2473  -0.1499

 Beta MOs
 -- Occupied --
-19.1747 -19.1736 -19.0800 -19.0790 -14.5628 -10.2341 -10.2333 -10.2317
-10.2044 -10.1951 -10.1830 -10.1810 -10.1803 -10.1787 -10.1772 -10.1754
-10.1748 -10.1733 -10.1731 -10.1708  -1.2485  -1.0754  -1.0070  -1.0021
 -0.8867  -0.8593  -0.8098  -0.7942  -0.7605  -0.7529  -0.7170  -0.6946
 -0.6573  -0.6352  -0.6220  -0.5919  -0.5717  -0.5626  -0.5346  -0.5330
 -0.5263  -0.5105  -0.4783  -0.4682  -0.4567  -0.4518  -0.4327  -0.4272
 -0.4233  -0.4164  -0.4139  -0.4066  -0.3904  -0.3813  -0.3715  -0.3702
 -0.3672  -0.3535  -0.3418  -0.3380  -0.3307  -0.3220  -0.3208  -0.2630
 -0.2545  -0.2521  -0.2517  -0.2487  -0.2424

          Ground-State Mulliken Net Atomic Charges

     Atom                 Charge (a.u.)    Spin (a.u.)
  --------------------------------------------------------
      1 C                    -0.534828      -0.000143
      2 C                     0.774994       0.024104
      3 C                    -0.970159       0.051409
      4 C                    -0.171649       0.006797
      5 C                     0.567114       0.044373
      6 C                    -0.556592       0.096711
      7 O                    -0.456584       0.194099
      8 C                     0.109648       0.020682
      9 C                     0.093510       0.029889
     10 C                    -0.425030       0.035831
     11 C                    -0.455680       0.028962
     12 C                     0.085114       0.037660
     13 C                     0.097434       0.026062
     14 C                    -0.563666       0.102659
     15 O                    -0.418228       0.212216
     16 C                     0.058323       0.061099
     17 C                     0.268901       0.040778
     18 N                    -0.175562      -0.003471
     19 O                    -0.020769       0.000186
     20 O                    -0.021205       0.002172
     21 H                     0.187742       0.000173
     22 H                     0.187319       0.000462
     23 H                     0.212218       0.001155
     24 H                     0.195293      -0.003876
     25 H                     0.177920      -0.001167
     26 H                     0.174439      -0.001619
     27 H                     0.201891      -0.002759
     28 H                     0.203657      -0.002649
     29 H                     0.174436      -0.001792
  --------------------------------------------------------
  Sum of atomic charges =    -1.000000

                    Cartesian Multipole Moments
 -----------------------------------------------------------------
    Charge (ESU x 10^10)
                -4.8032
    Dipole Moment (Debye)
         X       1.8589      Y       3.7283      Z      -0.9282
       Tot       4.2682
    Quadrupole Moments (Debye-Ang)
        XX    -111.2203     XY      22.7771     YY    -157.8723
        XZ      -5.8932     YZ       8.4107     ZZ    -126.8090

 Total job time:  251.47s(wall), 607.55s(cpu)
        *  Thank you very much for using Q-Chem.  Have a nice day.  *
