 Gaussian 16, Revision A.03,
 Gaussian 16:  ES64L-G16RevA.03 25-Dec-2016

 --------------------------------------
 #P UB3LYP/6-311++G(d,p) nosym opt freq
 --------------------------------------

 -------
 Radical
 -------
 Symbolic Z-matrix:
 Charge = -1 Multiplicity = 2

 SCF Done:  E(UB3LYP) =  -932.906968228     A.U. after   25 cycles
 Optimization completed.
    -- Stationary point found.
 Normal termination of Gaussian 16 at Wed Dec 27 19:55:27 2023.

 ----------------------------------------------------------------------
 #P Geom=AllCheck Guess=TCheck SCRF=Check GenChk UB3LYP/6-311++G(d,p) F
 req
 ----------------------------------------------------------------------

 Structure from the checkpoint file:  "175-rad.chk"
 -------
 Radical
 -------
 Charge = -1 Multiplicity = 2

                          Input orientation:
 ---------------------------------------------------------------------
 Center     Atomic      Atomic             Coordinates (Angstroms)
 Number     Number       Type             X           Y           Z
 ---------------------------------------------------------------------
      1          6           0        4.390425   -0.111288    0.016068
      2          6           0        2.944967    0.309952   -0.100765
      3          6           0        2.614127    1.644397   -0.435413
      4          6           0        1.301506    2.049131   -0.535563
      5          6           0        0.238205    1.156626   -0.301953
      6          6           0       -1.135148    1.652111   -0.423132
      7          8           0       -1.380549    2.842731   -0.732365
      8          6           0       -2.197914    0.680861   -0.162045
      9          6           0       -3.546345    1.086256   -0.266109
     10          6           0       -4.577440    0.201151   -0.023773
     11          6           0       -4.289327   -1.133381    0.336118
     12          6           0       -2.978286   -1.551102    0.444889
     13          6           0       -1.907551   -0.663487    0.199587
     14          6           0       -0.535428   -1.159395    0.329899
     15          8           0       -0.284402   -2.337585    0.673464
     16          6           0        0.527550   -0.199346    0.044505
     17          6           0        1.892655   -0.561786    0.119041
     18          7           0        2.294612   -1.965552    0.428520
     19          8           0        2.402496   -2.739337   -0.512039
     20          8           0        2.632396   -2.211472    1.578781
     21          1           0        5.041362    0.651259   -0.416859
     22          1           0        4.583800   -1.054614   -0.501651
     23          1           0        4.680272   -0.250346    1.062460
     24          1           0        3.419165    2.349030   -0.620265
     25          1           0        1.043277    3.068487   -0.797276
     26          1           0       -3.736790    2.116790   -0.542557
     27          1           0       -5.609072    0.529098   -0.108871
     28          1           0       -5.099954   -1.830123    0.527063
     29          1           0       -2.728608   -2.569064    0.720241
 ---------------------------------------------------------------------

 SCF Done:  E(UB3LYP) =  -932.906968228     A.U. after    1 cycles

 Alpha  occ. eigenvalues --  -19.04745 -19.04730 -18.96014 -18.96014 -14.43760
 Alpha  occ. eigenvalues --  -10.12018 -10.11175 -10.11102 -10.09496 -10.08252
 Alpha  occ. eigenvalues --  -10.07839 -10.07561 -10.06966 -10.06922 -10.06874
 Alpha  occ. eigenvalues --  -10.06806 -10.06337 -10.06280 -10.06225 -10.06193
 Alpha  occ. eigenvalues --   -1.12215  -0.94862  -0.89024  -0.88632  -0.77484
 Alpha  occ. eigenvalues --   -0.74814  -0.69884  -0.68353  -0.65423  -0.64216
 Alpha  occ. eigenvalues --   -0.61141  -0.58346  -0.54893  -0.52603  -0.51332
 Alpha  occ. eigenvalues --   -0.47526  -0.45543  -0.44653  -0.42005  -0.41381
 Alpha  occ. eigenvalues --   -0.40651  -0.39668  -0.36526  -0.35978  -0.34926
 Alpha  occ. eigenvalues --   -0.34426  -0.33713  -0.31872  -0.31542  -0.30970
 Alpha  occ. eigenvalues --   -0.29884  -0.29499  -0.28787  -0.27701  -0.26583
 Alpha  occ. eigenvalues --   -0.26156  -0.26012  -0.24435  -0.23107  -0.22969
 Alpha  occ. eigenvalues --   -0.20576  -0.19928  -0.19624  -0.15813  -0.14956
 Alpha  occ. eigenvalues --   -0.14607  -0.14231  -0.13010  -0.12231  -0.02916
 Alpha virt. eigenvalues --    0.03549   0.05151   0.07408   0.07824   0.08047
 Alpha virt. eigenvalues --    0.09430   0.09864   0.09878   0.11062   0.11616
 Alpha virt. eigenvalues --    0.12353   0.13104   0.14167   0.14553   0.14870

  Beta  occ. eigenvalues --  -19.04743 -19.04731 -18.95428 -18.95377 -14.43759
  Beta  occ. eigenvalues --  -10.12014 -10.11050 -10.10980 -10.09448 -10.08255
  Beta  occ. eigenvalues --  -10.07719 -10.07491 -10.06992 -10.06878 -10.06830
  Beta  occ. eigenvalues --  -10.06695 -10.06283 -10.06264 -10.06195 -10.06151
  Beta  occ. eigenvalues --   -1.12212  -0.94860  -0.87967  -0.87598  -0.77302
  Beta  occ. eigenvalues --   -0.74637  -0.69601  -0.68183  -0.65236  -0.64040
  Beta  occ. eigenvalues --   -0.60988  -0.57990  -0.54426  -0.52431  -0.51109
  Beta  occ. eigenvalues --   -0.47464  -0.45416  -0.44512  -0.41867  -0.41258
  Beta  occ. eigenvalues --   -0.40643  -0.39513  -0.36418  -0.35742  -0.34783
  Beta  occ. eigenvalues --   -0.34360  -0.33590  -0.31777  -0.31509  -0.29807
  Beta  occ. eigenvalues --   -0.29765  -0.28952  -0.28568  -0.27470  -0.26024
  Beta  occ. eigenvalues --   -0.25764  -0.24299  -0.24283  -0.22813  -0.21999
  Beta  occ. eigenvalues --   -0.20512  -0.19724  -0.19591  -0.14758  -0.13851
  Beta  occ. eigenvalues --   -0.13610  -0.13237  -0.12439  -0.11660
  Beta virt. eigenvalues --    0.03067   0.03591   0.05955   0.07398   0.07818
  Beta virt. eigenvalues --    0.09083   0.09428   0.09863   0.10081   0.11083
  Beta virt. eigenvalues --    0.11685   0.12351   0.13104   0.14154   0.14564

 Mulliken charges and spin densities:
               1          2
     1  C   -0.539974  -0.000070
     2  C    0.897830   0.030295
     3  C   -0.938447   0.058406
     4  C   -0.189129  -0.005199
     5  C    0.611213   0.059633
     6  C   -0.774856   0.062364
     7  O   -0.352719   0.218483
     8  C    0.195933   0.033351
     9  C    0.067355   0.018989
    10  C   -0.349556   0.036865
    11  C   -0.394717   0.032485
    12  C    0.073965   0.025527
    13  C    0.190836   0.044567
    14  C   -0.701941   0.052775
    15  O   -0.299422   0.240842
    16  C    0.070417   0.078830
    17  C    0.259706   0.025230
    18  N   -0.225574  -0.002803
    19  O    0.027865  -0.000570
    20  O    0.024698   0.001241
    21  H    0.141977   0.000350
    22  H    0.167042   0.000555
    23  H    0.188954   0.001628
    24  H    0.107952  -0.004684
    25  H    0.160981  -0.000548
    26  H    0.158915  -0.001165
    27  H    0.128745  -0.003032
    28  H    0.130796  -0.002823
    29  H    0.161156  -0.001521
 Sum of Mulliken charges =  -1.00000   1.00000

 Dipole moment (field-independent basis, Debye):
    X=              1.4329    Y=              2.6346    Z=             -0.6415  Tot=              3.0669
 Quadrupole moment (field-independent basis, Debye-Ang):
   XX=           -131.9382   YY=           -154.6859   ZZ=           -126.6547
   XY=             17.2754   XZ=             -4.3517   YZ=              7.5909

  Exact polarizability: 360.612   5.050 235.325  -1.725 -31.012 125.405
 Approx polarizability: 519.614   4.739 440.647   1.774 -60.821 228.676

                      1                      2                      3
                      A                      A                      A
 Frequencies --     30.5896                48.9555                75.7133
 Red. masses --     11.7954                 5.7363                 1.1612
 Frc consts  --      0.0065                 0.0081                 0.0039
 IR Inten    --      0.1693                 6.2653                 0.1621

                      4                      5                      6
                      A                      A                      A
 Frequencies --     98.9146               124.4923               134.9521
 Red. masses --      3.6451                 5.2572                 5.5080
 Frc consts  --      0.0210                 0.0480                 0.0591
 IR Inten    --      0.6581                 0.4449                 0.4335

                      7                      8                      9
                      A                      A                      A
 Frequencies --    148.5335               174.5379               196.5916
 Red. masses --      8.6379                 7.8828                 6.1786
 Frc consts  --      0.1123                 0.1415                 0.1407
 IR Inten    --      1.1623                 0.9392                 0.7180

                     10                     11                     12
                      A                      A                      A
 Frequencies --    226.6998               268.7549               278.5749
 Red. masses --      4.4004                 5.9031                 4.8041
 Frc consts  --      0.1332                 0.2512                 0.2197
 IR Inten    --      3.7388                 0.1589                 1.5131

                     13                     14                     15
                      A                      A                      A
 Frequencies --    306.2181               341.4697               377.7414
 Red. masses --     11.2497                 6.6248                10.6945
 Frc consts  --      0.6215                 0.4551                 0.8991
 IR Inten    --      3.6588                 5.1969                 8.4410

                     16                     17                     18
                      A                      A                      A
 Frequencies --    386.3141               423.8706               428.4238
 Red. masses --      5.5524                 4.7324                 5.2018
 Frc consts  --      0.4882                 0.5010                 0.5625
 IR Inten    --      0.7959                 0.7799                 1.0103

                     19                     20                     21
                      A                      A                      A
 Frequencies --    444.9620               449.4216               494.0464
 Red. masses --      5.9010                 3.7120                11.8731
 Frc consts  --      0.6884                 0.4417                 1.7075
 IR Inten    --      0.4853                 0.8270                 0.4122

                     22                     23                     24
                      A                      A                      A
 Frequencies --    509.0015               581.7580               596.9380
 Red. masses --      4.0998                 5.6824                 4.9489
 Frc consts  --      0.6258                 1.1331                 1.0390
 IR Inten    --      2.7714                 7.5327                 1.3381

                     25                     26                     27
                      A                      A                      A
 Frequencies --    654.2443               661.5148               671.0869
 Red. masses --      6.9658                 8.3247                 5.5348
 Frc consts  --      1.7567                 2.1463                 1.4686
 IR Inten    --     12.3160                12.4489                 4.2744

                     28                     29                     30
                      A                      A                      A
 Frequencies --    705.5841               712.6943               744.1075
 Red. masses --      2.6337                 7.2658                 4.9392
 Frc consts  --      0.7725                 2.1744                 1.6113
 IR Inten    --     56.9466                24.9945                 7.3470

                     31                     32                     33
                      A                      A                      A
 Frequencies --    749.4951               778.2183               780.4540
 Red. masses --      7.4449                 7.7770                 1.6893
 Frc consts  --      2.4640                 2.7750                 0.6062
 IR Inten    --      8.1728                 5.6422                 9.1520

                     34                     35                     36
                      A                      A                      A
 Frequencies --    792.2889               822.4170               845.2893
 Red. masses --      3.3295                 1.7542                 7.6957
 Frc consts  --      1.2314                 0.6990                 3.2397
 IR Inten    --      9.6687                20.1250                 6.9014

                     37                     38                     39
                      A                      A                      A
 Frequencies --    874.6915               895.1395               975.3286
 Red. masses --      1.4886                 7.7958                 3.4400
 Frc consts  --      0.6710                 3.6804                 1.9280
 IR Inten    --      0.0055                 2.9031                22.7650

                     40                     41                     42
                      A                      A                      A
 Frequencies --    982.8530               986.5339               987.8246
 Red. masses --      1.3195                 1.3521                 1.2741
 Frc consts  --      0.7510                 0.7753                 0.7325
 IR Inten    --      0.1982                 3.1444                 0.0213

                     43                     44                     45
                      A                      A                      A
 Frequencies --    990.7414              1038.9880              1052.8263
 Red. masses --      3.3620                 2.0327                 1.4692
 Frc consts  --      1.9443                 1.2928                 0.9595
 IR Inten    --      1.6899                26.5261                 4.1729

                     46                     47                     48
                      A                      A                      A
 Frequencies --   1064.3921              1113.1187              1143.0066
 Red. masses --      2.3200                 2.0197                 1.6313
 Frc consts  --      1.5486                 1.4744                 1.2556
 IR Inten    --      0.8497                13.3025                17.6069

                     49                     50                     51
                      A                      A                      A
 Frequencies --   1158.9900              1180.5164              1204.6873
 Red. masses --      1.6190                 2.1010                 2.5711
 Frc consts  --      1.2813                 1.7251                 2.1985
 IR Inten    --      3.2837                 0.7969                 7.6545

                     52                     53                     54
                      A                      A                      A
 Frequencies --   1222.5845              1233.2225              1262.5901
 Red. masses --      2.2868                 3.5311                 2.1297
 Frc consts  --      2.0139                 3.1640                 2.0003
 IR Inten    --     16.7657                31.4951                41.4800

                     55                     56                     57
                      A                      A                      A
 Frequencies --   1331.9457              1350.8310              1362.6032
 Red. masses --      2.7001                 6.5833                10.4441
 Frc consts  --      2.8223                 7.0777                11.4251
 IR Inten    --     25.3228                55.6100                 5.9436

                     58                     59                     60
                      A                      A                      A
 Frequencies --   1394.2836              1405.3857              1413.6917
 Red. masses --      3.7000                 7.5001                 1.3950
 Frc consts  --      4.2379                 8.7279                 1.6426
 IR Inten    --    313.4534                65.2021                40.1732

                     61                     62                     63
                      A                      A                      A
 Frequencies --   1454.0422              1472.7283              1484.8996
 Red. masses --      3.0166                 2.1145                 1.3825
 Frc consts  --      3.7577                 2.7022                 1.7961
 IR Inten    --    126.3476                77.9599                14.7379

                     64                     65                     66
                      A                      A                      A
 Frequencies --   1491.4239              1497.3356              1525.3919
 Red. masses --      2.5927                 1.3149                 3.2485
 Frc consts  --      3.3979                 1.7369                 4.4535
 IR Inten    --     11.4839                32.7387               375.9783

                     67                     68                     69
                      A                      A                      A
 Frequencies --   1542.3238              1558.3956              1582.4374
 Red. masses --      6.2244                 5.5419                12.0381
 Frc consts  --      8.7237                 7.9298                17.7608
 IR Inten    --    124.0015                64.9362               309.3746

                     70                     71                     72
                      A                      A                      A
 Frequencies --   1617.3568              1619.7230              1634.0491
 Red. masses --      9.3732                 6.4388                 6.8322
 Frc consts  --     14.4461                 9.9525                10.7483
 IR Inten    --      3.8054                 7.9504                19.3990

                     73                     74                     75
                      A                      A                      A
 Frequencies --   3023.1374              3075.0350              3096.7907
 Red. masses --      1.0369                 1.0988                 1.1018
 Frc consts  --      5.5833                 6.1215                 6.2254
 IR Inten    --     60.7165                15.3813                17.6546

                     76                     77                     78
                      A                      A                      A
 Frequencies --   3138.2280              3149.2984              3156.8528
 Red. masses --      1.0849                 1.0880                 1.0912
 Frc consts  --      6.2954                 6.3576                 6.4074
 IR Inten    --     16.9134                27.0104                47.6861

                     79                     80                     81
                      A                      A                      A
 Frequencies --   3184.9415              3187.9278              3188.7136
 Red. masses --      1.0917                 1.0928                 1.0922
 Frc consts  --      6.5245                 6.5434                 6.5431
 IR Inten    --     11.2559                33.8441                 4.4300

 - Thermochemistry -
 -------------------
 Temperature   298.150 Kelvin.  Pressure   1.00000 Atm.
 Atom     1 has atomic number  6 and mass  12.00000

 Molecular mass:   267.05316 amu.
 Principal axes and moments of inertia in atomic units:
                           1         2         3
     Eigenvalues --  2722.314056697.547159140.25821
           X            0.98573   0.16810   0.00928
           Y           -0.16521   0.95524   0.24540
           Z            0.03239  -0.24343   0.96938
 This molecule is an asymmetric top.
 Rotational symmetry number  1.
 Warning -- assumption of classical behavior for rotation
           may cause significant error
 Rotational temperatures (Kelvin)      0.03182     0.01293     0.00948
 Rotational constants (GHZ):           0.66294     0.26946     0.19745
 Zero-point vibrational energy     540548.7 (Joules/Mol)
                                  129.19423 (Kcal/Mol)
 Warning -- explicit consideration of  24 degrees of freedom as
           vibrations may cause significant error
 Vibrational temperatures:     44.01    70.44   108.93   142.32   179.12
          (Kelvin)            194.17   213.71   251.12   282.85   326.17
                              386.68   400.81   440.58   491.30   543.49
                              555.82   609.86   616.41   640.20   646.62
                              710.82   732.34   837.02   858.86   941.31
                              951.77   965.54  1015.18  1025.41  1070.60
                             1078.36  1119.68  1122.90  1139.93  1183.27
                             1216.18  1258.49  1287.91  1403.28  1414.11
                             1419.40  1421.26  1425.46  1494.87  1514.78
                             1531.42  1601.53  1644.53  1667.53  1698.50
                             1733.28  1759.03  1774.33  1816.59  1916.37
                             1943.54  1960.48  2006.06  2022.04  2033.99
                             2092.04  2118.93  2136.44  2145.83  2154.33
                             2194.70  2219.06  2242.18  2276.77  2327.02
                             2330.42  2351.03  4349.62  4424.29  4455.59
                             4515.21  4531.14  4542.01  4582.42  4586.72
                             4587.85

 Zero-point correction=                           0.205884 (Hartree/Particle)
 Thermal correction to Energy=                    0.221694
 Thermal correction to Enthalpy=                  0.222638
 Thermal correction to Gibbs Free Energy=         0.161405
 Sum of electronic and zero-point Energies=           -932.701084
 Sum of electronic and thermal Energies=              -932.685274
 Sum of electronic and thermal Enthalpies=            -932.684330
 Sum of electronic and thermal Free Energies=         -932.745564

                     E (Thermal)             CV                S
                      KCal/Mol        Cal/Mol-Kelvin    Cal/Mol-Kelvin
 Total                  139.115             61.216            128.876
 Electronic               0.000              0.000              1.377
 Translational            0.889              2.981             42.646
 Rotational               0.889              2.981             33.477
 Vibrational            137.337             55.254             51.376
 Vibration     1          0.594              1.984              5.791
 Vibration     2          0.595              1.978              4.859
 Vibration     3          0.599              1.965              3.999
 Vibration     4          0.604              1.950              3.476
 Vibration     5          0.610              1.929              3.029
 Vibration     6          0.613              1.918              2.874
 Vibration     7          0.618              1.904              2.691
 Vibration     8          0.627              1.874              2.386
 Vibration     9          0.636              1.845              2.165
 Vibration    10          0.650              1.800              1.905
 Vibration    11          0.673              1.731              1.604
 Vibration    12          0.679              1.713              1.542
 Vibration    13          0.697              1.662              1.383
 Vibration    14          0.721              1.593              1.205
 Vibration    15          0.748              1.518              1.048
 Vibration    16          0.755              1.499              1.014
 Vibration    17          0.786              1.418              0.879
 Vibration    18          0.790              1.408              0.864
 Vibration    19          0.804              1.372              0.811
 Vibration    20          0.808              1.362              0.798
 Vibration    21          0.850              1.263              0.673
 Vibration    22          0.864              1.230              0.636
 Vibration    23          0.939              1.071              0.482
 Vibration    24          0.955              1.038              0.455

 Optimization completed.
    -- Stationary point found.
 Normal termination of Gaussian 16 at Wed Dec 27 21:11:56 2023.
