 Q-Chem 5.4, Q-Chem, Inc., Pleasanton, CA (2021)
 Q-Chem 5.4.0 for Intel X86 EM64T Linux

User input:
--------------------------------------------------------------
$molecule
0 1
C                  7.1211830000     -1.8316450000     -0.5948240000
C                  7.6386430000     -0.7953740000     -1.4458740000
C                  6.7954580000      0.2850470000     -1.8595030000
C                  5.4901580000      0.3035390000     -1.4347810000
C                  4.9570000000     -0.7025260000     -0.6029270000
C                  5.7453320000     -1.7702990000     -0.1663250000
C                  5.1331050000     -2.7958070000      0.7347590000
C                  3.6784260000     -2.6674290000      1.0766380000
C                  2.9013930000     -1.5962390000      0.6184270000
C                  3.5142240000     -0.5499260000     -0.2351860000
C                  3.0906950000     -3.6467740000      1.8839870000
C                  1.7456650000     -3.5572570000      2.2235670000
C                  0.9730370000     -2.4864840000      1.7645590000
C                  1.5496950000     -1.5074310000      0.9650950000
O                  5.7595890000     -3.7330400000      1.2094320000
O                  2.8623960000      0.4038570000     -0.6324030000
H                  4.8246120000      1.1040470000     -1.7321640000
H                  3.7052420000     -4.4666520000      2.2328680000
H                  0.9752980000     -0.6662310000      0.5976650000
C                  7.3106670000      1.3899800000     -2.7461550000
H                 -0.0752400000     -2.4193920000      2.0325480000
C                  8.9916250000     -0.8551960000     -1.8715380000
C                  8.0165940000     -2.8773920000     -0.2287840000
C                  9.3178120000     -2.8942610000     -0.6670960000
C                  9.8377330000     -1.8765740000     -1.5018120000
C                 11.2723600000     -1.9289740000     -1.9600100000
H                  1.2956180000     -4.3211140000      2.8475970000
H                  8.1472080000      1.9211740000     -2.2816070000
H                  6.5222480000      2.1158320000     -2.9475630000
H                  7.6656110000      1.0029350000     -3.7063770000
H                  9.3713130000     -0.0689060000     -2.5117600000
H                  7.6575320000     -3.6675620000      0.4084760000
H                  9.9643250000     -3.7119830000     -0.3637240000
H                 11.5206150000     -1.0794950000     -2.5989390000
H                 11.4712120000     -2.8461290000     -2.5234730000
H                 11.9572920000     -1.9218590000     -1.1061350000
$end
$rem
MAX_SCF_CYCLES=200
BASIS  =  6-311++G(d,p)
GUI  =  2
JOB_TYPE  =  SP
METHOD  =  B3LYP
SOLVENT_METHOD = PCM
$end
$pcm
theory = CPCM
$end
$solvent
dielectric 37.219
opticaldielectric 1.43
$end

--------------------------------------------------------------

             Standard Nuclear Orientation (Angstroms)
    I     Atom           X                Y                Z
 ----------------------------------------------------------------
    1      C       7.1211830000    -1.8316450000    -0.5948240000
    2      C       7.6386430000    -0.7953740000    -1.4458740000
    3      C       6.7954580000     0.2850470000    -1.8595030000
    4      C       5.4901580000     0.3035390000    -1.4347810000
    5      C       4.9570000000    -0.7025260000    -0.6029270000
    6      C       5.7453320000    -1.7702990000    -0.1663250000
    7      C       5.1331050000    -2.7958070000     0.7347590000
    8      C       3.6784260000    -2.6674290000     1.0766380000
    9      C       2.9013930000    -1.5962390000     0.6184270000
   10      C       3.5142240000    -0.5499260000    -0.2351860000
   11      C       3.0906950000    -3.6467740000     1.8839870000
   12      C       1.7456650000    -3.5572570000     2.2235670000
   13      C       0.9730370000    -2.4864840000     1.7645590000
   14      C       1.5496950000    -1.5074310000     0.9650950000
   15      O       5.7595890000    -3.7330400000     1.2094320000
   16      O       2.8623960000     0.4038570000    -0.6324030000
   17      H       4.8246120000     1.1040470000    -1.7321640000
   18      H       3.7052420000    -4.4666520000     2.2328680000
   19      H       0.9752980000    -0.6662310000     0.5976650000
   20      C       7.3106670000     1.3899800000    -2.7461550000
   21      H      -0.0752400000    -2.4193920000     2.0325480000
   22      C       8.9916250000    -0.8551960000    -1.8715380000
   23      C       8.0165940000    -2.8773920000    -0.2287840000
   24      C       9.3178120000    -2.8942610000    -0.6670960000
   25      C       9.8377330000    -1.8765740000    -1.5018120000
   26      C      11.2723600000    -1.9289740000    -1.9600100000
   27      H       1.2956180000    -4.3211140000     2.8475970000
   28      H       8.1472080000     1.9211740000    -2.2816070000
   29      H       6.5222480000     2.1158320000    -2.9475630000
   30      H       7.6656110000     1.0029350000    -3.7063770000
   31      H       9.3713130000    -0.0689060000    -2.5117600000
   32      H       7.6575320000    -3.6675620000     0.4084760000
   33      H       9.9643250000    -3.7119830000    -0.3637240000
   34      H      11.5206150000    -1.0794950000    -2.5989390000
   35      H      11.4712120000    -2.8461290000    -2.5234730000
   36      H      11.9572920000    -1.9218590000    -1.1061350000
 ----------------------------------------------------------------

    8    -921.2947646427      8.49e-06  Convergence criterion met
 Total energy in the final basis set =     -921.2947646427

                    Orbital Energies (a.u.)
 --------------------------------------------------------------

 Alpha MOs
 -- Occupied --
-19.1308 -19.1277 -10.2834 -10.2816 -10.2117 -10.2077 -10.2057 -10.2055
-10.2052 -10.2040 -10.2006 -10.1953 -10.1950 -10.1945 -10.1944 -10.1935
-10.1845 -10.1813 -10.1793 -10.1786 -10.1699 -10.1670  -1.0662  -1.0639
 -0.8978  -0.8855  -0.8509  -0.8183  -0.7919  -0.7755  -0.7736  -0.7483
 -0.7203  -0.7011  -0.6776  -0.6469  -0.6368  -0.6229  -0.6025  -0.5837
 -0.5554  -0.5435  -0.5192  -0.5056  -0.4982  -0.4787  -0.4689  -0.4608
 -0.4562  -0.4557  -0.4507  -0.4489  -0.4341  -0.4320  -0.4259  -0.4222
 -0.4185  -0.4122  -0.3967  -0.3892  -0.3862  -0.3835  -0.3741  -0.3722
 -0.3663  -0.3534  -0.3478  -0.3331  -0.2940  -0.2854  -0.2821  -0.2763
 -0.2695  -0.2592  -0.2358

          Ground-State Mulliken Net Atomic Charges

     Atom                 Charge (a.u.)
  ----------------------------------------
      1 C                     0.805780
      2 C                     0.198961
      3 C                     0.509928
      4 C                    -0.154531
      5 C                     0.209388
      6 C                     0.721999
      7 C                    -1.072054
      8 C                     0.100390
      9 C                     0.133048
     10 C                    -0.701817
     11 C                     0.102156
     12 C                    -0.454888
     13 C                    -0.329947
     14 C                     0.066877
     15 O                    -0.248203
     16 O                    -0.276242
     17 H                     0.137280
     18 H                     0.196857
     19 H                     0.197298
     20 C                    -0.354632
     21 H                     0.223096
     22 C                    -0.809019
     23 C                    -0.548759
     24 C                    -0.484872
     25 C                     0.295914
     26 C                    -0.276860
     27 H                     0.222478
     28 H                     0.185754
     29 H                     0.201934
     30 H                     0.183926
     31 H                     0.108153
     32 H                     0.153041
     33 H                     0.225384
     34 H                     0.179377
     35 H                     0.175547
     36 H                     0.177251
  ----------------------------------------
  Sum of atomic charges =    -0.000005

                    Cartesian Multipole Moments
 -----------------------------------------------------------------
    Charge (ESU x 10^10)
                -0.0000
    Dipole Moment (Debye)
         X       2.1555      Y       0.0544      Z      -1.0661
       Tot       2.4053
    Quadrupole Moments (Debye-Ang)
        XX     -74.5996     XY      10.0599     YY    -127.8971
        XZ     -25.6754     YZ      -4.5512     ZZ    -121.1506

 Total job time:  94.28s(wall), 617.71s(cpu)
        *  Thank you very much for using Q-Chem.  Have a nice day.  *
