 Q-Chem 5.4, Q-Chem, Inc., Pleasanton, CA (2021)
 Q-Chem 5.4.0 for Intel X86 EM64T Linux

User input:
--------------------------------------------------------------
$molecule
-1 2
C                  3.2917220000     -0.2727640000     -0.1038390000
C                  1.7932050000     -0.4018260000     -0.1454660000
C                  0.9703100000      0.7520480000      0.1498850000
O                  1.4632910000      1.8722720000      0.4437060000
C                 -0.4962980000      0.5642640000      0.0932160000
C                 -1.3450560000      1.6500540000      0.3707240000
C                 -2.7234210000      1.5145100000      0.3278730000
C                 -3.2964630000      0.2688840000      0.0009700000
C                 -2.4837900000     -0.8146960000     -0.2763690000
C                 -1.0777670000     -0.6938280000     -0.2371740000
C                 -0.2278770000     -1.8290100000     -0.5277700000
O                 -0.6394150000     -2.9965630000     -0.8335620000
C                  1.1959840000     -1.6030130000     -0.4612980000
O                  1.9407840000     -2.7110970000     -0.7454150000
H                  3.7335620000     -0.9681970000      0.6197820000
H                  3.5565610000      0.7479830000      0.1743920000
H                  3.7412870000     -0.5065290000     -1.0762790000
H                 -0.8773550000      2.5959940000      0.6193150000
H                 -3.3620380000      2.3655210000      0.5456480000
H                 -4.3769040000      0.1612060000     -0.0330090000
H                 -2.9004110000     -1.7829140000     -0.5302990000
H                  1.2456480000     -3.3821710000     -0.9234540000
$end

$rem
BASIS  =  6-311++G(d,p)
GUI  =  2
JOB_TYPE  =  SP
METHOD  =  B3LYP
SCF_CONVERGENCE  = 8
SOLVENT_METHOD = sm12
$end

$smx
solvent dimethylformamide
charges CM5
$end

--------------------------------------------------------------

             Standard Nuclear Orientation (Angstroms)
    I     Atom           X                Y                Z
 ----------------------------------------------------------------
    1      C       3.2917220000    -0.2727640000    -0.1038390000
    2      C       1.7932050000    -0.4018260000    -0.1454660000
    3      C       0.9703100000     0.7520480000     0.1498850000
    4      O       1.4632910000     1.8722720000     0.4437060000
    5      C      -0.4962980000     0.5642640000     0.0932160000
    6      C      -1.3450560000     1.6500540000     0.3707240000
    7      C      -2.7234210000     1.5145100000     0.3278730000
    8      C      -3.2964630000     0.2688840000     0.0009700000
    9      C      -2.4837900000    -0.8146960000    -0.2763690000
   10      C      -1.0777670000    -0.6938280000    -0.2371740000
   11      C      -0.2278770000    -1.8290100000    -0.5277700000
   12      O      -0.6394150000    -2.9965630000    -0.8335620000
   13      C       1.1959840000    -1.6030130000    -0.4612980000
   14      O       1.9407840000    -2.7110970000    -0.7454150000
   15      H       3.7335620000    -0.9681970000     0.6197820000
   16      H       3.5565610000     0.7479830000     0.1743920000
   17      H       3.7412870000    -0.5065290000    -1.0762790000
   18      H      -0.8773550000     2.5959940000     0.6193150000
   19      H      -3.3620380000     2.3655210000     0.5456480000
   20      H      -4.3769040000     0.1612060000    -0.0330090000
   21      H      -2.9004110000    -1.7829140000    -0.5302990000
   22      H       1.2456480000    -3.3821710000    -0.9234540000
 ----------------------------------------------------------------

   18    -649.9201162916      6.26e-09  Convergence criterion met
 Total energy in the final basis set =     -650.0054423844

                    Orbital Energies (a.u.)
 --------------------------------------------------------------

 Alpha MOs
 -- Occupied --
-19.1468 -19.0875 -19.0754 -10.2268 -10.2249 -10.2233 -10.1826 -10.1818
-10.1813 -10.1799 -10.1798 -10.1785 -10.1698 -10.1643  -1.0660  -1.0006
 -0.9970  -0.8652  -0.8130  -0.7621  -0.7582  -0.7027  -0.6662  -0.6245
 -0.6016  -0.5759  -0.5423  -0.5094  -0.4872  -0.4663  -0.4585  -0.4445
 -0.4346  -0.4190  -0.4122  -0.4061  -0.3958  -0.3905  -0.3880  -0.3701
 -0.3637  -0.3516  -0.3453  -0.3428  -0.2721  -0.2649  -0.2604  -0.2409
 -0.2337  -0.1540

 Beta MOs
 -- Occupied --
-19.1463 -19.0808 -19.0697 -10.2258 -10.2240 -10.2207 -10.1826 -10.1815
-10.1804 -10.1794 -10.1790 -10.1784 -10.1690 -10.1644  -1.0638  -0.9908
 -0.9857  -0.8629  -0.8092  -0.7597  -0.7563  -0.6992  -0.6595  -0.6228
 -0.5987  -0.5735  -0.5407  -0.5071  -0.4842  -0.4650  -0.4575  -0.4354
 -0.4341  -0.4149  -0.4080  -0.3990  -0.3944  -0.3859  -0.3808  -0.3690
 -0.3502  -0.3475  -0.3409  -0.3290  -0.2577  -0.2544  -0.2519  -0.2355
 -0.2232

          Ground-State Mulliken Net Atomic Charges

     Atom                 Charge (a.u.)    Spin (a.u.)
  --------------------------------------------------------
      1 C                     0.356208      -0.000974
      2 C                     0.786718       0.061224
      3 C                    -1.747926       0.042962
      4 O                    -0.327466       0.210038
      5 C                    -0.988473       0.082290
      6 C                    -0.079425      -0.002327
      7 C                     0.870759       0.072890
      8 C                     0.974102       0.001502
      9 C                     0.154794       0.076168
     10 C                    -0.347703      -0.007161
     11 C                    -1.412538       0.141860
     12 O                    -0.363907       0.248506
     13 C                    -0.627865       0.065701
     14 O                    -0.161777       0.016384
     15 H                     0.196301       0.002908
     16 H                     0.181465      -0.001463
     17 H                     0.196603       0.003006
     18 H                     0.148643      -0.000025
     19 H                     0.352395      -0.005268
     20 H                     0.363827      -0.000587
     21 H                     0.173609      -0.003998
     22 H                     0.301655      -0.003637
  --------------------------------------------------------
  Sum of atomic charges =    -1.000000

                    Cartesian Multipole Moments
 -----------------------------------------------------------------
    Charge (ESU x 10^10)
                -4.8032
    Dipole Moment (Debye)
         X      -2.5845      Y       2.2121      Z       0.8063
       Tot       3.4961
    Quadrupole Moments (Debye-Ang)
        XX     -96.1699     XY      -6.4912     YY    -110.6669
        XZ      -1.5982     YZ      -6.2008     ZZ     -89.0382

 Total job time:  453.70s(wall), 2879.14s(cpu)
        *  Thank you very much for using Q-Chem.  Have a nice day.  *
