 Q-Chem 5.4, Q-Chem, Inc., Pleasanton, CA (2021)
 Q-Chem 5.4.0 for Intel X86 EM64T Linux

User input:
--------------------------------------------------------------
$molecule
-1 2
C                 -3.0088010000      3.7297910000      0.4086100000
C                 -4.2505510000      3.1550530000      0.4958090000
C                 -4.4342930000      1.7626250000      0.4200090000
C                 -1.8636420000      2.9192460000      0.2426300000
C                 -2.0242600000      1.5057670000      0.1655770000
C                 -3.3231380000      0.9612550000      0.2590200000
C                 -0.5535600000      3.5610880000      0.1465390000
C                  0.5852790000      2.6610230000     -0.0278580000
C                  0.4307010000      1.2468970000     -0.1054420000
C                 -0.8830500000      0.6052970000     -0.0149110000
C                  1.8811090000      3.2142190000     -0.1316480000
C                  2.9666520000      2.3940740000     -0.3013580000
C                  2.8387590000      0.9957360000     -0.3829590000
C                  1.5783630000      0.4444030000     -0.2820060000
O                 -0.4152120000      4.8090020000      0.2077370000
O                 -1.0226260000     -0.6384940000     -0.0911430000
H                 -3.4172520000     -0.1165390000      0.1976370000
H                  1.4328370000     -0.6279790000     -0.3375700000
H                 -2.8798690000      4.8040750000      0.4547980000
H                  1.9893490000      4.2906960000     -0.0834480000
H                  3.7163410000      0.3745520000     -0.5133970000
O                  4.2275150000      3.0072320000     -0.5027500000
C                  5.2439310000      2.7919100000      0.3645770000
C                  6.4597720000      3.5800550000     -0.0681390000
O                  5.1897500000      2.0856240000      1.3383860000
O                 -5.3708760000      4.0195280000      0.5577800000
H                  6.2367800000      4.6490680000     -0.0251960000
H                  6.7165580000      3.3408320000     -1.1023530000
H                  7.2951450000      3.3505960000      0.5907480000
C                 -6.1986430000      3.9979160000      1.6283300000
C                 -7.2888840000      5.0307640000      1.4514680000
O                 -6.0833690000      3.2723130000      2.5824250000
H                 -5.4280490000      1.3387400000      0.4961090000
H                 -6.8455240000      6.0293760000      1.4266790000
H                 -7.9936620000      4.9605880000      2.2779060000
H                 -7.8037890000      4.8778380000      0.5005740000
$end
$rem
MAX_SCF_CYCLES=200
BASIS  =  6-311++G(d,p)
GUI  =  2
JOB_TYPE  =  SP
METHOD  =  B3LYP
SOLVENT_METHOD = PCM
$end
$pcm
theory = CPCM
$end
$solvent
dielectric 37.219
opticaldielectric 1.43
$end

--------------------------------------------------------------

             Standard Nuclear Orientation (Angstroms)
    I     Atom           X                Y                Z
 ----------------------------------------------------------------
    1      C      -3.0088010000     3.7297910000     0.4086100000
    2      C      -4.2505510000     3.1550530000     0.4958090000
    3      C      -4.4342930000     1.7626250000     0.4200090000
    4      C      -1.8636420000     2.9192460000     0.2426300000
    5      C      -2.0242600000     1.5057670000     0.1655770000
    6      C      -3.3231380000     0.9612550000     0.2590200000
    7      C      -0.5535600000     3.5610880000     0.1465390000
    8      C       0.5852790000     2.6610230000    -0.0278580000
    9      C       0.4307010000     1.2468970000    -0.1054420000
   10      C      -0.8830500000     0.6052970000    -0.0149110000
   11      C       1.8811090000     3.2142190000    -0.1316480000
   12      C       2.9666520000     2.3940740000    -0.3013580000
   13      C       2.8387590000     0.9957360000    -0.3829590000
   14      C       1.5783630000     0.4444030000    -0.2820060000
   15      O      -0.4152120000     4.8090020000     0.2077370000
   16      O      -1.0226260000    -0.6384940000    -0.0911430000
   17      H      -3.4172520000    -0.1165390000     0.1976370000
   18      H       1.4328370000    -0.6279790000    -0.3375700000
   19      H      -2.8798690000     4.8040750000     0.4547980000
   20      H       1.9893490000     4.2906960000    -0.0834480000
   21      H       3.7163410000     0.3745520000    -0.5133970000
   22      O       4.2275150000     3.0072320000    -0.5027500000
   23      C       5.2439310000     2.7919100000     0.3645770000
   24      C       6.4597720000     3.5800550000    -0.0681390000
   25      O       5.1897500000     2.0856240000     1.3383860000
   26      O      -5.3708760000     4.0195280000     0.5577800000
   27      H       6.2367800000     4.6490680000    -0.0251960000
   28      H       6.7165580000     3.3408320000    -1.1023530000
   29      H       7.2951450000     3.3505960000     0.5907480000
   30      C      -6.1986430000     3.9979160000     1.6283300000
   31      C      -7.2888840000     5.0307640000     1.4514680000
   32      O      -6.0833690000     3.2723130000     2.5824250000
   33      H      -5.4280490000     1.3387400000     0.4961090000
   34      H      -6.8455240000     6.0293760000     1.4266790000
   35      H      -7.9936620000     4.9605880000     2.2779060000
   36      H      -7.8037890000     4.8778380000     0.5005740000
 ----------------------------------------------------------------

    8   -1145.0020197154      6.07e-06  Convergence criterion met
 Total energy in the final basis set =    -1145.0020197154

                    Orbital Energies (a.u.)
 --------------------------------------------------------------

 Alpha MOs
 -- Occupied --
-19.1850 -19.1850 -19.1272 -19.1272 -19.0832 -19.0821 -10.3189 -10.3189
-10.2429 -10.2429 -10.2327 -10.2301 -10.1825 -10.1825 -10.1817 -10.1817
-10.1794 -10.1794 -10.1788 -10.1788 -10.1786 -10.1785 -10.1769 -10.1769
 -1.1242  -1.1242  -1.0431  -1.0431  -1.0112  -1.0080  -0.8728  -0.8639
 -0.8023  -0.7781  -0.7694  -0.7593  -0.7482  -0.7327  -0.6825  -0.6595
 -0.6524  -0.6099  -0.6092  -0.5829  -0.5647  -0.5248  -0.5226  -0.5039
 -0.5025  -0.5002  -0.4928  -0.4915  -0.4827  -0.4646  -0.4641  -0.4451
 -0.4395  -0.4331  -0.4307  -0.4263  -0.4209  -0.4189  -0.4153  -0.4109
 -0.4074  -0.3925  -0.3905  -0.3876  -0.3863  -0.3752  -0.3667  -0.3609
 -0.3559  -0.3426  -0.3312  -0.3281  -0.2980  -0.2980  -0.2722  -0.2663
 -0.2619  -0.2542  -0.2510  -0.2449  -0.1483

 Beta MOs
 -- Occupied --
-19.1850 -19.1850 -19.1272 -19.1272 -19.0782 -19.0767 -10.3189 -10.3188
-10.2425 -10.2425 -10.2310 -10.2280 -10.1817 -10.1817 -10.1812 -10.1811
-10.1794 -10.1794 -10.1784 -10.1784 -10.1781 -10.1781 -10.1769 -10.1769
 -1.1241  -1.1241  -1.0430  -1.0430  -1.0023  -0.9982  -0.8703  -0.8628
 -0.7990  -0.7774  -0.7672  -0.7579  -0.7468  -0.7317  -0.6764  -0.6575
 -0.6510  -0.6088  -0.6075  -0.5816  -0.5619  -0.5237  -0.5209  -0.5037
 -0.5022  -0.4993  -0.4923  -0.4902  -0.4821  -0.4638  -0.4629  -0.4434
 -0.4390  -0.4326  -0.4252  -0.4216  -0.4184  -0.4163  -0.4120  -0.4072
 -0.4068  -0.3913  -0.3902  -0.3858  -0.3735  -0.3655  -0.3644  -0.3595
 -0.3530  -0.3373  -0.3307  -0.3223  -0.2978  -0.2977  -0.2624  -0.2544
 -0.2510  -0.2494  -0.2460  -0.2400

          Ground-State Mulliken Net Atomic Charges

     Atom                 Charge (a.u.)    Spin (a.u.)
  --------------------------------------------------------
      1 C                    -0.016790       0.031149
      2 C                    -0.790772       0.024814
      3 C                     0.098538       0.047182
      4 C                     0.405363       0.048877
      5 C                     0.292830       0.031838
      6 C                     0.193875       0.019257
      7 C                    -0.817348       0.119543
      8 C                     0.412752       0.048886
      9 C                     0.298523       0.031669
     10 C                    -0.521914       0.086569
     11 C                    -0.019234       0.030967
     12 C                    -0.813508       0.025029
     13 C                     0.104795       0.047500
     14 C                     0.195038       0.019189
     15 O                    -0.462950       0.209740
     16 O                    -0.458532       0.189450
     17 H                     0.187752      -0.000772
     18 H                     0.187232      -0.000775
     19 H                     0.200506      -0.002374
     20 H                     0.200972      -0.002365
     21 H                     0.240538      -0.003702
     22 O                    -0.025186       0.000865
     23 C                     0.153263       0.000050
     24 C                    -0.564967       0.000657
     25 O                    -0.320982      -0.000656
     26 O                    -0.025020       0.000836
     27 H                     0.200255       0.000041
     28 H                     0.197600       0.000068
     29 H                     0.180703      -0.000029
     30 C                     0.153924       0.000083
     31 C                    -0.564845       0.000696
     32 O                    -0.321338      -0.000664
     33 H                     0.240516      -0.003696
     34 H                     0.200307       0.000039
     35 H                     0.180676      -0.000029
     36 H                     0.197406       0.000068
  --------------------------------------------------------
  Sum of atomic charges =    -1.000019

                    Cartesian Multipole Moments
 -----------------------------------------------------------------
    Charge (ESU x 10^10)
                -4.8033
    Dipole Moment (Debye)
         X       3.1874      Y      -7.9543      Z      -4.6510
       Tot       9.7500
    Quadrupole Moments (Debye-Ang)
        XX    -129.9437     XY       1.6345     YY    -174.2721
        XZ       0.1777     YZ      -7.9935     ZZ    -157.5256

 Total job time:  131.52s(wall), 671.25s(cpu)
        *  Thank you very much for using Q-Chem.  Have a nice day.  *
