 Gaussian 16, Revision A.03,
 Gaussian 16:  ES64L-G16RevA.03 25-Dec-2016

 ----------------------------------------------------------------------
 #P UB3LYP/6-311++G(d,p) nosym opt freq SCRF=(PCM,Solvent=n,n-DiMethylF
 ormamide)
 ----------------------------------------------------------------------

 --------
 Oxidized
 --------
 Symbolic Z-matrix:
 Charge =  0 Multiplicity = 1

 SCF Done:  E(UB3LYP) =  -1048.99744781     A.U. after   16 cycles
 SCF Done:  E(UB3LYP) =  -1048.99764328     A.U. after   13 cycles
 SCF Done:  E(UB3LYP) =  -1048.99750043     A.U. after   13 cycles
 SCF Done:  E(UB3LYP) =  -1048.99772934     A.U. after   13 cycles
 SCF Done:  E(UB3LYP) =  -1048.99773645     A.U. after   12 cycles
 Optimization completed.
    -- Stationary point found.
 Normal termination of Gaussian 16 at Sun Feb 11 15:30:32 2024.

 ----------------------------------------------------------------------
 #P Geom=AllCheck Guess=TCheck SCRF=Check GenChk UB3LYP/6-311++G(d,p) F
 req
 ----------------------------------------------------------------------

 Structure from the checkpoint file:  "338.chk"
 --------
 Oxidized
 --------
 Charge =  0 Multiplicity = 1

                          Input orientation:
 ---------------------------------------------------------------------
 Center     Atomic      Atomic             Coordinates (Angstroms)
 Number     Number       Type             X           Y           Z
 ---------------------------------------------------------------------
      1          8           0       -0.015801   -2.681669    0.823222
      2          6           0       -0.008460   -1.464279    0.706840
      3          6           0        1.274880   -0.714422    0.576692
      4          6           0        2.423371   -1.417362    0.186139
      5          6           0        3.621277   -0.750159   -0.039349
      6          6           0        3.692534    0.634312    0.125147
      7          6           0        2.569668    1.350055    0.535682
      8          6           0        1.373074    0.673839    0.748774
      9         16           0        0.011748    1.635543    1.464492
     10          8           0        0.019493    3.028139    0.849711
     11          6           0       -1.363555    0.690689    0.753034
     12          6           0       -2.552515    1.381423    0.543695
     13          6           0       -3.685272    0.679441    0.136578
     14          6           0       -3.631404   -0.705771   -0.028269
     15          6           0       -2.441026   -1.387503    0.193532
     16          6           0       -1.282868   -0.698659    0.580612
     17          1           0        2.350000   -2.488315    0.045284
     18          1           0        4.498123   -1.305575   -0.349369
     19          1           0        4.622253    1.158453   -0.061669
     20          1           0        2.618972    2.422364    0.680036
     21          1           0       -2.588416    2.454230    0.688275
     22          1           0       -4.609106    1.214900   -0.047329
     23          1           0       -4.515884   -1.250432   -0.335676
     24          1           0       -2.381085   -2.459245    0.052371
 ---------------------------------------------------------------------

 SCF Done:  E(UB3LYP) =  -1048.99773645     A.U. after    2 cycles

 Alpha  occ. eigenvalues --  -88.98039 -19.13477 -19.11378 -10.29067 -10.23429
 Alpha  occ. eigenvalues --  -10.23428 -10.21812 -10.21811 -10.20574 -10.20573
 Alpha  occ. eigenvalues --  -10.20438 -10.20438 -10.20398 -10.20398 -10.19939
 Alpha  occ. eigenvalues --  -10.19939  -8.05692  -6.01974  -6.01840  -6.01267
 Alpha  occ. eigenvalues --   -1.06902  -1.03999  -0.90327  -0.89048  -0.82108
 Alpha  occ. eigenvalues --   -0.79400  -0.78418  -0.77767  -0.72208  -0.67923
 Alpha  occ. eigenvalues --   -0.64665  -0.62673  -0.61372  -0.57572  -0.56335
 Alpha  occ. eigenvalues --   -0.51818  -0.49577  -0.49493  -0.48927  -0.46719
 Alpha  occ. eigenvalues --   -0.46195  -0.45987  -0.45278  -0.45086  -0.44325
 Alpha  occ. eigenvalues --   -0.42167  -0.40035  -0.39992  -0.38388  -0.37979
 Alpha  occ. eigenvalues --   -0.37828  -0.37697  -0.31363  -0.29888  -0.28930
 Alpha  occ. eigenvalues --   -0.28555  -0.28456  -0.27813  -0.25679
 Alpha virt. eigenvalues --   -0.10345  -0.05625  -0.05183  -0.03461  -0.00567
 Alpha virt. eigenvalues --    0.00083   0.00438   0.01399   0.01673   0.02091
 Alpha virt. eigenvalues --    0.02219   0.02592   0.03199   0.03879   0.04300

  Beta  occ. eigenvalues --  -88.98039 -19.13477 -19.11378 -10.29067 -10.23429
  Beta  occ. eigenvalues --  -10.23428 -10.21812 -10.21811 -10.20574 -10.20573
  Beta  occ. eigenvalues --  -10.20438 -10.20438 -10.20398 -10.20398 -10.19939
  Beta  occ. eigenvalues --  -10.19939  -8.05692  -6.01974  -6.01840  -6.01267
  Beta  occ. eigenvalues --   -1.06902  -1.03999  -0.90327  -0.89048  -0.82108
  Beta  occ. eigenvalues --   -0.79400  -0.78418  -0.77767  -0.72208  -0.67923
  Beta  occ. eigenvalues --   -0.64665  -0.62673  -0.61372  -0.57572  -0.56335
  Beta  occ. eigenvalues --   -0.51818  -0.49577  -0.49493  -0.48927  -0.46719
  Beta  occ. eigenvalues --   -0.46195  -0.45987  -0.45278  -0.45086  -0.44325
  Beta  occ. eigenvalues --   -0.42167  -0.40035  -0.39992  -0.38388  -0.37979
  Beta  occ. eigenvalues --   -0.37828  -0.37697  -0.31363  -0.29888  -0.28930
  Beta  occ. eigenvalues --   -0.28555  -0.28456  -0.27813  -0.25679
  Beta virt. eigenvalues --   -0.10345  -0.05625  -0.05183  -0.03461  -0.00567
  Beta virt. eigenvalues --    0.00083   0.00438   0.01399   0.01673   0.02091
  Beta virt. eigenvalues --    0.02219   0.02592   0.03199   0.03879   0.04300

 Mulliken charges and spin densities:
               1          2
     1  O   -0.268734   0.000000
     2  C   -0.485536  -0.000000
     3  C    1.561533   0.000000
     4  C    0.272214  -0.000000
     5  C   -0.621974   0.000000
     6  C   -0.111508  -0.000000
     7  C   -0.177131   0.000000
     8  C   -1.230971  -0.000000
     9  S    0.147220  -0.000000
    10  O   -0.495238  -0.000000
    11  C   -1.230858   0.000000
    12  C   -0.177222   0.000000
    13  C   -0.111479   0.000000
    14  C   -0.622061   0.000000
    15  C    0.272394  -0.000000
    16  C    1.561748   0.000000
    17  H    0.208168   0.000000
    18  H    0.207444  -0.000000
    19  H    0.215582   0.000000
    20  H    0.227610   0.000000
    21  H    0.227636  -0.000000
    22  H    0.215579  -0.000000
    23  H    0.207449  -0.000000
    24  H    0.208133  -0.000000
 Sum of Mulliken charges =  -0.00000  -0.00000

 Dipole moment (field-independent basis, Debye):
    X=             -0.0103    Y=             -1.3713    Z=             -0.9879  Tot=              1.6901
 Quadrupole moment (field-independent basis, Debye-Ang):
   XX=            -65.7432   YY=           -118.5867   ZZ=           -102.1595
   XY=             -0.3204   XZ=             -0.0355   YZ=              3.2573

  Exact polarizability: 334.138  -0.293 281.721  -0.216  15.028 133.604
 Approx polarizability: 358.304   0.029 358.129  -0.207  16.368 159.642

                      1                      2                      3
                      A                      A                      A
 Frequencies --     40.0217               102.5664               116.3474
 Red. masses --      7.2793                 4.0038                 5.1758
 Frc consts  --      0.0069                 0.0248                 0.0413
 IR Inten    --     11.1286                 0.9872                 0.3912

                      4                      5                      6
                      A                      A                      A
 Frequencies --    143.8135               187.7923               208.1703
 Red. masses --      7.9150                 7.4825                 5.5298
 Frc consts  --      0.0964                 0.1555                 0.1412
 IR Inten    --      6.5547                10.1335                 1.0271

                      7                      8                      9
                      A                      A                      A
 Frequencies --    237.4237               321.2025               325.3485
 Red. masses --      6.1164                 7.4654                 7.1042
 Frc consts  --      0.2031                 0.4538                 0.4431
 IR Inten    --      1.7859                23.0458                 3.5780

                     10                     11                     12
                      A                      A                      A
 Frequencies --    361.2992               381.3334               392.3613
 Red. masses --      6.9157                11.1375                 8.6890
 Frc consts  --      0.5319                 0.9542                 0.7881
 IR Inten    --      7.2653                12.1075                 2.3429

                     13                     14                     15
                      A                      A                      A
 Frequencies --    417.0025               434.0327               485.9884
 Red. masses --      4.0470                 3.4012                 4.6824
 Frc consts  --      0.4146                 0.3775                 0.6516
 IR Inten    --      2.0083                 3.7239                 3.1267

                     16                     17                     18
                      A                      A                      A
 Frequencies --    522.8620               546.4283               587.3738
 Red. masses --      7.1366                 4.8505                 6.0990
 Frc consts  --      1.1495                 0.8533                 1.2398
 IR Inten    --      4.2367                59.2319                 1.6606

                     19                     20                     21
                      A                      A                      A
 Frequencies --    642.9890               669.4692               693.7606
 Red. masses --      6.8487                 6.4083                 4.1564
 Frc consts  --      1.6683                 1.6922                 1.1787
 IR Inten    --     17.5469                 0.1693                49.7774

                     22                     23                     24
                      A                      A                      A
 Frequencies --    702.6909               731.8307               760.1311
 Red. masses --      5.4505                 5.2884                 1.9330
 Frc consts  --      1.5857                 1.6688                 0.6581
 IR Inten    --     30.7136                 8.6225               102.5484

                     25                     26                     27
                      A                      A                      A
 Frequencies --    766.0233               773.9446               819.4301
 Red. masses --      4.7014                 1.2362                 2.5016
 Frc consts  --      1.6254                 0.4363                 0.9897
 IR Inten    --     12.9934                12.1561                24.7062

                     28                     29                     30
                      A                      A                      A
 Frequencies --    893.4388               901.6411               935.9505
 Red. masses --      1.3211                 1.4641                 6.8293
 Frc consts  --      0.6213                 0.7013                 3.5248
 IR Inten    --      0.7551                 0.4334                67.8495

                     31                     32                     33
                      A                      A                      A
 Frequencies --    988.3962               990.6149               991.2515
 Red. masses --      1.3729                 1.6705                 5.5305
 Frc consts  --      0.7902                 0.9659                 3.2017
 IR Inten    --      0.4496                51.3998               272.7212

                     34                     35                     36
                      A                      A                      A
 Frequencies --   1019.5191              1020.6512              1048.2519
 Red. masses --      1.3310                 1.3337                 4.7585
 Frc consts  --      0.8151                 0.8186                 3.0807
 IR Inten    --      2.2933                 0.1793                 0.8898

                     37                     38                     39
                      A                      A                      A
 Frequencies --   1049.6705              1068.4957              1074.4052
 Red. masses --      3.0035                 2.1054                 4.2242
 Frc consts  --      1.9498                 1.4162                 2.8730
 IR Inten    --      0.3486                 1.0981                18.4511

                     40                     41                     42
                      A                      A                      A
 Frequencies --   1133.7323              1140.5900              1177.6320
 Red. masses --      1.7620                 1.7473                 1.4896
 Frc consts  --      1.3344                 1.3393                 1.2172
 IR Inten    --     51.6308                 2.6596                15.1886

                     43                     44                     45
                      A                      A                      A
 Frequencies --   1182.9317              1189.0195              1245.7071
 Red. masses --      1.1176                 1.6041                 1.7490
 Frc consts  --      0.9214                 1.3362                 1.5991
 IR Inten    --      1.9604                 4.5879                76.0914

                     46                     47                     48
                      A                      A                      A
 Frequencies --   1281.7413              1309.4717              1333.2424
 Red. masses --      1.5846                 2.9026                 7.8272
 Frc consts  --      1.5339                 2.9324                 8.1974
 IR Inten    --      4.4823               436.8053                 1.6887

                     49                     50                     51
                      A                      A                      A
 Frequencies --   1341.6403              1466.4481              1467.4506
 Red. masses --      7.8672                 2.1110                 2.1007
 Frc consts  --      8.3434                 2.6746                 2.6652
 IR Inten    --     11.0467                67.6733                 7.1187

                     52                     53                     54
                      A                      A                      A
 Frequencies --   1483.1928              1493.1077              1596.6188
 Red. masses --      2.4617                 2.4044                 5.6404
 Frc consts  --      3.1907                 3.1583                 8.4715
 IR Inten    --      1.4975                 1.6499                 5.1266

                     55                     56                     57
                      A                      A                      A
 Frequencies --   1603.3255              1619.2140              1623.8962
 Red. masses --      5.8519                 5.6561                 6.2145
 Frc consts  --      8.8632                 8.7373                 9.6554
 IR Inten    --     51.1375               110.7635                60.9812

                     58                     59                     60
                      A                      A                      A
 Frequencies --   1694.0091              3181.5481              3181.6178
 Red. masses --     12.2508                 1.0872                 1.0871
 Frc consts  --     20.7131                 6.4836                 6.4839
 IR Inten    --    566.7288                 1.2184                 3.9757

                     61                     62                     63
                      A                      A                      A
 Frequencies --   3191.6168              3191.7650              3199.2981
 Red. masses --      1.0899                 1.0900                 1.0938
 Frc consts  --      6.5410                 6.5422                 6.5962
 IR Inten    --      3.8327                 0.6274                 9.3839

                     64                     65                     66
                      A                      A                      A
 Frequencies --   3199.5566              3205.4432              3205.8535
 Red. masses --      1.0939                 1.0963                 1.0964
 Frc consts  --      6.5980                 6.6365                 6.6388
 IR Inten    --      1.2760                31.0784                 3.5030

 - Thermochemistry -
 -------------------
 Temperature   298.150 Kelvin.  Pressure   1.00000 Atm.
 Atom     1 has atomic number  8 and mass  15.99491

 Molecular mass:   228.02450 amu.
 Principal axes and moments of inertia in atomic units:
                           1         2         3
     Eigenvalues --  2086.755154191.965005998.66325
           X            0.99998   0.00626   0.00069
           Y           -0.00611   0.99057  -0.13687
           Z           -0.00154   0.13686   0.99059
 This molecule is an asymmetric top.
 Rotational symmetry number  1.
 Warning -- assumption of classical behavior for rotation
           may cause significant error
 Rotational temperatures (Kelvin)      0.04151     0.02066     0.01444
 Rotational constants (GHZ):           0.86486     0.43052     0.30086
 Zero-point vibrational energy     456337.0 (Joules/Mol)
                                  109.06717 (Kcal/Mol)
 Warning -- explicit consideration of  18 degrees of freedom as
           vibrations may cause significant error
 Vibrational temperatures:     57.58   147.57   167.40   206.92   270.19
          (Kelvin)            299.51   341.60   462.14   468.10   519.83
                              548.65   564.52   599.97   624.48   699.23
                              752.28   786.19   845.10   925.12   963.22
                              998.17  1011.02  1052.94  1093.66  1102.14
                             1113.53  1178.98  1285.46  1297.26  1346.62
                             1422.08  1425.27  1426.19  1466.86  1468.49
                             1508.20  1510.24  1537.33  1545.83  1631.19
                             1641.05  1694.35  1701.97  1710.73  1792.29
                             1844.14  1884.04  1918.24  1930.32  2109.89
                             2111.33  2133.98  2148.25  2297.18  2306.83
                             2329.69  2336.42  2437.30  4577.54  4577.64
                             4592.02  4592.24  4603.08  4603.45  4611.92
                             4612.51

 Zero-point correction=                           0.173810 (Hartree/Particle)
 Thermal correction to Energy=                    0.185942
 Thermal correction to Enthalpy=                  0.186886
 Thermal correction to Gibbs Free Energy=         0.135028
 Sum of electronic and zero-point Energies=          -1048.823927
 Sum of electronic and thermal Energies=             -1048.811794
 Sum of electronic and thermal Enthalpies=           -1048.810850
 Sum of electronic and thermal Free Energies=        -1048.862709

                     E (Thermal)             CV                S
                      KCal/Mol        Cal/Mol-Kelvin    Cal/Mol-Kelvin
 Total                  116.681             48.583            109.146
 Electronic               0.000              0.000              0.000
 Translational            0.889              2.981             42.175
 Rotational               0.889              2.981             32.329
 Vibrational            114.903             42.622             34.642
 Vibration     1          0.594              1.981              5.258
 Vibration     2          0.605              1.947              3.405
 Vibration     3          0.608              1.936              3.160
 Vibration     4          0.616              1.909              2.753
 Vibration     5          0.632              1.857              2.250
 Vibration     6          0.641              1.828              2.060
 Vibration     7          0.656              1.783              1.822
 Vibration     8          0.707              1.633              1.304
 Vibration     9          0.709              1.625              1.283
 Vibration    10          0.735              1.552              1.117
 Vibration    11          0.751              1.510              1.034
 Vibration    12          0.760              1.487              0.991
 Vibration    13          0.780              1.433              0.902
 Vibration    14          0.795              1.396              0.846
 Vibration    15          0.842              1.281              0.694
 Vibration    16          0.878              1.199              0.603
 Vibration    17          0.902              1.148              0.552
 Vibration    18          0.945              1.059              0.472

                           ! Non-Optimized Parameters !
 Normal termination of Gaussian 16 at Sun Feb 11 16:24:22 2024.
