 Gaussian 16, Revision A.03,
 Gaussian 16:  ES64L-G16RevA.03 25-Dec-2016

 ----------------------------------------------------------------------
 #P UB3LYP/genecp nosym opt freq SCRF=(PCM,Solvent=n,n-DiMethylFormamid
 e)
 ----------------------------------------------------------------------

 -------
 Radical
 -------
 Symbolic Z-matrix:
 Charge = -1 Multiplicity = 2

 SCF Done:  E(UB3LYP) =  -1570.50736137     A.U. after   18 cycles
 SCF Done:  E(UB3LYP) =  -1570.50749366     A.U. after   14 cycles
 SCF Done:  E(UB3LYP) =  -1570.50752579     A.U. after   13 cycles
 SCF Done:  E(UB3LYP) =  -1570.50752533     A.U. after   12 cycles
 SCF Done:  E(UB3LYP) =  -1570.50752374     A.U. after   12 cycles
 SCF Done:  E(UB3LYP) =  -1570.50752684     A.U. after   11 cycles
 Optimization completed.
    -- Stationary point found.
 Normal termination of Gaussian 16 at Sat Feb 10 10:29:16 2024.

 ------------------------------------------------------------------
 #P Geom=AllCheck Guess=TCheck SCRF=Check GenChk UB3LYP/GenECP Freq
 ------------------------------------------------------------------

 Structure from the checkpoint file:  "031-rad.chk"
 -------
 Radical
 -------
 Charge = -1 Multiplicity = 2

                          Input orientation:
 ---------------------------------------------------------------------
 Center     Atomic      Atomic             Coordinates (Angstroms)
 Number     Number       Type             X           Y           Z
 ---------------------------------------------------------------------
      1         53           0       -3.353990   -1.059334   -0.151134
      2          6           0       -1.364001   -0.357913   -0.060739
      3          6           0       -1.025751    0.969553   -0.026441
      4         53           0       -2.436846    2.540719   -0.059400
      5          6           0        0.362538    1.422337    0.037016
      6          8           0        0.671539    2.633478    0.069210
      7          6           0        1.364001    0.357914    0.060687
      8          6           0        1.025750   -0.969551    0.026388
      9         53           0        2.436843   -2.540720    0.059518
     10          6           0       -0.362527   -1.422336   -0.037181
     11          8           0       -0.671543   -2.633479   -0.069178
     12         53           0        3.353986    1.059332    0.151252
 ---------------------------------------------------------------------

 SCF Done:  E(UB3LYP) =  -1570.50752684     A.U. after    1 cycles

 Alpha  occ. eigenvalues --  -19.09988 -19.09988 -10.25608 -10.25606 -10.23040
 Alpha  occ. eigenvalues --  -10.23038 -10.22977 -10.22976  -6.84554  -6.84554
 Alpha  occ. eigenvalues --   -6.84553  -6.84553  -4.87008  -4.87007  -4.87007
 Alpha  occ. eigenvalues --   -4.87007  -4.85872  -4.85872  -4.85871  -4.85871
 Alpha  occ. eigenvalues --   -4.85757  -4.85757  -4.85756  -4.85756  -1.91822
 Alpha  occ. eigenvalues --   -1.91821  -1.91820  -1.91820  -1.91461  -1.91461
 Alpha  occ. eigenvalues --   -1.91460  -1.91460  -1.91376  -1.91376  -1.91371
 Alpha  occ. eigenvalues --   -1.91371  -1.90392  -1.90392  -1.90391  -1.90391
 Alpha  occ. eigenvalues --   -1.90391  -1.90391  -1.90388  -1.90387  -1.03104
 Alpha  occ. eigenvalues --   -1.02844  -0.86068  -0.80110  -0.73504  -0.72090
 Alpha  occ. eigenvalues --   -0.70758  -0.66868  -0.66771  -0.57678  -0.57632
 Alpha  occ. eigenvalues --   -0.51660  -0.45924  -0.44276  -0.43871  -0.40378
 Alpha  occ. eigenvalues --   -0.39020  -0.38748  -0.38592  -0.34931  -0.33983
 Alpha  occ. eigenvalues --   -0.32350  -0.28727  -0.28473  -0.27779  -0.27626
 Alpha  occ. eigenvalues --   -0.27424  -0.26428  -0.26187  -0.24919  -0.23854
 Alpha  occ. eigenvalues --   -0.23116  -0.18231
 Alpha virt. eigenvalues --   -0.06863  -0.04659  -0.04022  -0.02488   0.00382
 Alpha virt. eigenvalues --    0.00902   0.01209   0.03582   0.03687   0.06078
 Alpha virt. eigenvalues --    0.06416   0.07031   0.08376   0.08708   0.08716

  Beta  occ. eigenvalues --  -19.09311 -19.09310 -10.25486 -10.25485 -10.22918
  Beta  occ. eigenvalues --  -10.22916 -10.22854 -10.22853  -6.84552  -6.84552
  Beta  occ. eigenvalues --   -6.84551  -6.84551  -4.87010  -4.87010  -4.87010
  Beta  occ. eigenvalues --   -4.87010  -4.85864  -4.85864  -4.85863  -4.85863
  Beta  occ. eigenvalues --   -4.85756  -4.85756  -4.85756  -4.85756  -1.91823
  Beta  occ. eigenvalues --   -1.91823  -1.91822  -1.91822  -1.91458  -1.91458
  Beta  occ. eigenvalues --   -1.91457  -1.91457  -1.91379  -1.91379  -1.91374
  Beta  occ. eigenvalues --   -1.91374  -1.90387  -1.90387  -1.90386  -1.90385
  Beta  occ. eigenvalues --   -1.90385  -1.90385  -1.90382  -1.90382  -1.01949
  Beta  occ. eigenvalues --   -1.01659  -0.85467  -0.79865  -0.72914  -0.71967
  Beta  occ. eigenvalues --   -0.70654  -0.66789  -0.66208  -0.57289  -0.57183
  Beta  occ. eigenvalues --   -0.51426  -0.45396  -0.43123  -0.42540  -0.38723
  Beta  occ. eigenvalues --   -0.38666  -0.38376  -0.37655  -0.34697  -0.33448
  Beta  occ. eigenvalues --   -0.29863  -0.28698  -0.28347  -0.27641  -0.27268
  Beta  occ. eigenvalues --   -0.26974  -0.25886  -0.25112  -0.24904  -0.23437
  Beta  occ. eigenvalues --   -0.22904
  Beta virt. eigenvalues --   -0.11365  -0.06741  -0.04584  -0.02545  -0.02291
  Beta virt. eigenvalues --    0.00948   0.01363   0.02822   0.03590   0.03732
  Beta virt. eigenvalues --    0.06135   0.06529   0.07045   0.08392   0.08782

 Mulliken charges and spin densities:
               1          2
     1  I   -0.084038   0.001111
     2  C    1.019077   0.112507
     3  C    1.019155   0.112388
     4  I   -0.083923   0.001110
     5  C   -2.075028   0.021758
     6  O   -0.295260   0.251121
     7  C    1.019090   0.112512
     8  C    1.019174   0.112393
     9  I   -0.083924   0.001110
    10  C   -2.075025   0.021758
    11  O   -0.295260   0.251120
    12  I   -0.084038   0.001112
 Sum of Mulliken charges =  -1.00000   1.00000

 Dipole moment (field-independent basis, Debye):
    X=             -0.0000    Y=              0.0000    Z=             -0.0002  Tot=              0.0002
 Quadrupole moment (field-independent basis, Debye-Ang):
   XX=           -163.6108   YY=           -189.1766   ZZ=           -156.2991
   XY=             -6.9739   XZ=             -0.4147   YZ=             -0.8024

  Exact polarizability: 435.577   0.351 437.739   9.468   3.652 202.389
 Approx polarizability: 447.005  17.261 511.065   8.749   4.975 237.303

                      1                      2                      3
                      A                      A                      A
 Frequencies --     25.5471                47.4540                72.9640
 Red. masses --    117.7154                16.6818                17.5557
 Frc consts  --      0.0453                 0.0221                 0.0551
 IR Inten    --      0.0960                10.5685                 0.0000

                      4                      5                      6
                      A                      A                      A
 Frequencies --     92.3621               100.1705               101.4488
 Red. masses --    125.9316                56.1345                98.9857
 Frc consts  --      0.6330                 0.3319                 0.6002
 IR Inten    --      0.0000                 2.7713                 2.9188

                      7                      8                      9
                      A                      A                      A
 Frequencies --    143.8638               157.3393               161.6133
 Red. masses --    104.3125               114.5252                13.3089
 Frc consts  --      1.2720                 1.6704                 0.2048
 IR Inten    --      0.0000                 0.0000                 2.3023

                     10                     11                     12
                      A                      A                      A
 Frequencies --    267.0193               272.3535               275.1536
 Red. masses --     15.7421                12.1761                18.5503
 Frc consts  --      0.6613                 0.5321                 0.8275
 IR Inten    --      0.0000                 0.0000                 4.9339

                     13                     14                     15
                      A                      A                      A
 Frequencies --    312.8804               357.0571               481.7491
 Red. masses --     17.2394                12.3888                13.9515
 Frc consts  --      0.9943                 0.9306                 1.9077
 IR Inten    --     19.4105                 0.0000                 0.0000

                     16                     17                     18
                      A                      A                      A
 Frequencies --    510.2328               549.3591               673.7740
 Red. masses --     12.0240                13.3963                12.6379
 Frc consts  --      1.8443                 2.3820                 3.3803
 IR Inten    --      0.0003               113.7382                 0.0000

                     19                     20                     21
                      A                      A                      A
 Frequencies --    697.4617               725.0184               747.9279
 Red. masses --     12.2146                12.2936                12.1192
 Frc consts  --      3.5008                 3.8074                 3.9943
 IR Inten    --     21.0831                 0.0000                 0.0000

                     22                     23                     24
                      A                      A                      A
 Frequencies --    841.8903               901.8403              1058.1709
 Red. masses --     12.8739                12.3491                12.1541
 Frc consts  --      5.3761                 5.9176                 8.0183
 IR Inten    --    416.5709                 0.0000               477.5311

                     25                     26                     27
                      A                      A                      A
 Frequencies --   1093.4666              1271.4256              1420.1458
 Red. masses --     12.0212                12.0132                12.0246
 Frc consts  --      8.4686                11.4417                14.2885
 IR Inten    --     76.3261                 0.0000                 9.9897

                     28                     29                     30
                      A                      A                      A
 Frequencies --   1511.0738              1511.4217              1556.6117
 Red. masses --     13.0578                12.6196                12.5448
 Frc consts  --     17.5668                16.9851                17.9091
 IR Inten    --    882.5816                 0.0037                 0.0000

 - Thermochemistry -
 -------------------
 Temperature   298.150 Kelvin.  Pressure   1.00000 Atm.
 Atom     1 has atomic number 53 and mass 126.90040

 Molecular mass:   611.59143 amu.
 Principal axes and moments of inertia in atomic units:
                           1         2         3
     Eigenvalues --  7367.80786********************
           X            0.96818   0.24699  -0.04026
           Y           -0.24775   0.96870  -0.01531
           Z            0.03522   0.02480   0.99907
 This molecule is an asymmetric top.
 Rotational symmetry number  1.
 Warning -- assumption of classical behavior for rotation
           may cause significant error
 Rotational temperatures (Kelvin)      0.01176     0.00526     0.00363
 Rotational constants (GHZ):           0.24495     0.10956     0.07570
 Zero-point vibrational energy     107297.8 (Joules/Mol)
                                   25.64480 (Kcal/Mol)
 Warning -- explicit consideration of  17 degrees of freedom as
           vibrations may cause significant error
 Vibrational temperatures:     36.76    68.28   104.98   132.89   144.12
          (Kelvin)            145.96   206.99   226.38   232.53   384.18
                              391.86   395.88   450.17   513.73   693.13
                              734.11   790.41   969.41  1003.49  1043.14
                             1076.10  1211.29  1297.55  1522.47  1573.25
                             1829.30  2043.27  2174.10  2174.60  2239.62

 Zero-point correction=                           0.040868 (Hartree/Particle)
 Thermal correction to Energy=                    0.053756
 Thermal correction to Enthalpy=                  0.054700
 Thermal correction to Gibbs Free Energy=        -0.005706
 Sum of electronic and zero-point Energies=          -1570.466659
 Sum of electronic and thermal Energies=             -1570.453771
 Sum of electronic and thermal Enthalpies=           -1570.452827
 Sum of electronic and thermal Free Energies=        -1570.513233

                     E (Thermal)             CV                S
                      KCal/Mol        Cal/Mol-Kelvin    Cal/Mol-Kelvin
 Total                   33.732             40.871            127.135
 Electronic               0.000              0.000              1.377
 Translational            0.889              2.981             45.116
 Rotational               0.889              2.981             36.313
 Vibrational             31.955             34.909             44.329
 Vibration     1          0.593              1.985              6.148
 Vibration     2          0.595              1.979              4.921
 Vibration     3          0.599              1.967              4.072
 Vibration     4          0.602              1.955              3.609
 Vibration     5          0.604              1.949              3.451
 Vibration     6          0.604              1.948              3.426
 Vibration     7          0.616              1.909              2.752
 Vibration     8          0.621              1.894              2.582
 Vibration     9          0.622              1.889              2.531
 Vibration    10          0.672              1.734              1.615
 Vibration    11          0.675              1.724              1.581
 Vibration    12          0.677              1.719              1.564
 Vibration    13          0.701              1.649              1.347
 Vibration    14          0.732              1.561              1.135
 Vibration    15          0.838              1.291              0.705
 Vibration    16          0.865              1.227              0.633
 Vibration    17          0.905              1.141              0.546

 Optimization completed.
    -- Stationary point found.
 Normal termination of Gaussian 16 at Sat Feb 10 10:43:40 2024.
