 Q-Chem 5.4, Q-Chem, Inc., Pleasanton, CA (2021)
 Q-Chem 5.4.0 for Intel X86 EM64T Linux

User input:
--------------------------------------------------------------
$molecule
-2 1
C                 -2.1811100000     -0.3805740000      0.0028100000
C                 -0.6944090000     -0.1299550000      0.0016540000
C                 -0.1932670000      1.1834550000     -0.0436570000
C                  1.1971880000      1.5258970000     -0.0496270000
O                  1.6450150000      2.7540800000     -0.0918980000
C                  2.0429100000      0.3711330000     -0.0029740000
C                  1.5545690000     -0.9429690000      0.0427610000
C                  0.1672820000     -1.2781040000      0.0472780000
O                 -0.2917200000     -2.5057580000      0.0878740000
H                 -2.4868700000     -0.9823180000      0.8730350000
H                 -2.4976080000     -0.9664200000     -0.8757900000
H                 -2.7417710000      0.5644660000      0.0117360000
H                 -0.8998290000      2.0174580000     -0.0772350000
H                  3.1212020000      0.5477510000     -0.0033760000
H                  2.2584170000     -1.7781430000      0.0774090000
$end
$rem
MAX_SCF_CYCLES=200
BASIS  =  6-311++G(d,p)
GUI  =  2
JOB_TYPE  =  SP
METHOD  =  B3LYP
SOLVENT_METHOD = PCM
$end
$pcm
theory = CPCM
$end
$solvent
dielectric 37.219
opticaldielectric 1.43
$end

--------------------------------------------------------------

             Standard Nuclear Orientation (Angstroms)
    I     Atom           X                Y                Z
 ----------------------------------------------------------------
    1      C      -2.1811100000    -0.3805740000     0.0028100000
    2      C      -0.6944090000    -0.1299550000     0.0016540000
    3      C      -0.1932670000     1.1834550000    -0.0436570000
    4      C       1.1971880000     1.5258970000    -0.0496270000
    5      O       1.6450150000     2.7540800000    -0.0918980000
    6      C       2.0429100000     0.3711330000    -0.0029740000
    7      C       1.5545690000    -0.9429690000     0.0427610000
    8      C       0.1672820000    -1.2781040000     0.0472780000
    9      O      -0.2917200000    -2.5057580000     0.0878740000
   10      H      -2.4868700000    -0.9823180000     0.8730350000
   11      H      -2.4976080000    -0.9664200000    -0.8757900000
   12      H      -2.7417710000     0.5644660000     0.0117360000
   13      H      -0.8998290000     2.0174580000    -0.0772350000
   14      H       3.1212020000     0.5477510000    -0.0033760000
   15      H       2.2584170000    -1.7781430000     0.0774090000
 ----------------------------------------------------------------

   10    -421.1611727647      2.24e-06  Convergence criterion met
 Total energy in the final basis set =     -421.1611727647

                    Orbital Energies (a.u.)
 --------------------------------------------------------------

 Alpha MOs
 -- Occupied --
-19.0150 -19.0141 -10.1660 -10.1623 -10.1390 -10.1292 -10.1207 -10.1191
-10.1186  -0.9218  -0.9183  -0.7783  -0.7220  -0.6592  -0.6280  -0.5494
 -0.5123  -0.4308  -0.4236  -0.3992  -0.3905  -0.3671  -0.3534  -0.3499
 -0.3391  -0.3175  -0.3072  -0.3041  -0.2225  -0.2062  -0.1955  -0.1932
 -0.1186

          Ground-State Mulliken Net Atomic Charges

     Atom                 Charge (a.u.)
  ----------------------------------------
      1 C                    -0.499671
      2 C                     1.099211
      3 C                    -0.682700
      4 C                    -0.369450
      5 O                    -0.787385
      6 C                    -0.029346
      7 C                     0.001795
      8 C                    -0.746372
      9 O                    -0.781029
     10 H                     0.139701
     11 H                     0.141886
     12 H                     0.135508
     13 H                     0.109784
     14 H                     0.134340
     15 H                     0.133727
  ----------------------------------------
  Sum of atomic charges =    -2.000000

                    Cartesian Multipole Moments
 -----------------------------------------------------------------
    Charge (ESU x 10^10)
                -9.6064
    Dipole Moment (Debye)
         X      -6.8292      Y      -1.3718      Z       0.0195
       Tot       6.9656
    Quadrupole Moments (Debye-Ang)
        XX     -75.1217     XY     -22.3170     YY    -120.4665
        XZ       0.7507     YZ       1.9664     ZZ     -62.8692

 Total job time:  14.10s(wall), 76.87s(cpu)
        *  Thank you very much for using Q-Chem.  Have a nice day.  *
