 Gaussian 16, Revision A.03,
 Gaussian 16:  ES64L-G16RevA.03 25-Dec-2016

 --------------------------------------
 #P UB3LYP/6-311++G(d,p) nosym opt freq
 --------------------------------------

 -------
 Reduced
 -------
 Symbolic Z-matrix:
 Charge = -2 Multiplicity = 1

 SCF Done:  E(UB3LYP) =  -420.853069768     A.U. after   32 cycles
 SCF Done:  E(UB3LYP) =  -420.853416453     A.U. after   31 cycles
 SCF Done:  E(UB3LYP) =  -420.853435195     A.U. after   22 cycles
 SCF Done:  E(UB3LYP) =  -420.853456225     A.U. after   23 cycles
 SCF Done:  E(UB3LYP) =  -420.853457248     A.U. after   21 cycles
 SCF Done:  E(UB3LYP) =  -420.853457706     A.U. after   27 cycles
 Optimization completed.
    -- Stationary point found.
 Normal termination of Gaussian 16 at Sat Jan  6 06:03:39 2024.

 ----------------------------------------------------------------------
 #P Geom=AllCheck Guess=TCheck SCRF=Check GenChk UB3LYP/6-311++G(d,p) F
 req
 ----------------------------------------------------------------------

 Structure from the checkpoint file:  "032-an.chk"
 -------
 Reduced
 -------
 Charge = -2 Multiplicity = 1

                          Input orientation:
 ---------------------------------------------------------------------
 Center     Atomic      Atomic             Coordinates (Angstroms)
 Number     Number       Type             X           Y           Z
 ---------------------------------------------------------------------
      1          6           0       -2.181110   -0.380574    0.002810
      2          6           0       -0.694409   -0.129955    0.001654
      3          6           0       -0.193267    1.183455   -0.043657
      4          6           0        1.197188    1.525897   -0.049627
      5          8           0        1.645015    2.754080   -0.091898
      6          6           0        2.042910    0.371133   -0.002974
      7          6           0        1.554569   -0.942969    0.042761
      8          6           0        0.167282   -1.278104    0.047278
      9          8           0       -0.291720   -2.505758    0.087874
     10          1           0       -2.486870   -0.982318    0.873035
     11          1           0       -2.497608   -0.966420   -0.875790
     12          1           0       -2.741771    0.564466    0.011736
     13          1           0       -0.899829    2.017458   -0.077235
     14          1           0        3.121202    0.547751   -0.003376
     15          1           0        2.258417   -1.778143    0.077409
 ---------------------------------------------------------------------

 SCF Done:  E(UB3LYP) =  -420.853457706     A.U. after    1 cycles

 Alpha  occ. eigenvalues --  -18.72545 -18.72242  -9.88902  -9.88260  -9.88012
 Alpha  occ. eigenvalues --   -9.85236  -9.84343  -9.84238  -9.84086  -0.63040
 Alpha  occ. eigenvalues --   -0.62572  -0.50019  -0.45276  -0.38571  -0.35107
 Alpha  occ. eigenvalues --   -0.27251  -0.23710  -0.15789  -0.14055  -0.13299
 Alpha  occ. eigenvalues --   -0.12572  -0.10229  -0.08172  -0.06008  -0.05523
 Alpha  occ. eigenvalues --   -0.03314  -0.02950  -0.01228   0.06880   0.07246
 Alpha  occ. eigenvalues --    0.09771   0.10013   0.17094
 Alpha virt. eigenvalues --    0.18837   0.20768   0.21473   0.22430   0.22774
 Alpha virt. eigenvalues --    0.23923   0.28516   0.29186   0.29440   0.29640
 Alpha virt. eigenvalues --    0.31163   0.32076   0.32440   0.33165   0.34200

  Beta  occ. eigenvalues --  -18.72545 -18.72242  -9.88902  -9.88260  -9.88012
  Beta  occ. eigenvalues --   -9.85236  -9.84343  -9.84238  -9.84086  -0.63040
  Beta  occ. eigenvalues --   -0.62572  -0.50019  -0.45276  -0.38571  -0.35107
  Beta  occ. eigenvalues --   -0.27251  -0.23710  -0.15789  -0.14055  -0.13299
  Beta  occ. eigenvalues --   -0.12572  -0.10229  -0.08172  -0.06008  -0.05523
  Beta  occ. eigenvalues --   -0.03314  -0.02950  -0.01228   0.06880   0.07246
  Beta  occ. eigenvalues --    0.09771   0.10013   0.17094
  Beta virt. eigenvalues --    0.18837   0.20768   0.21473   0.22430   0.22774
  Beta virt. eigenvalues --    0.23923   0.28516   0.29186   0.29440   0.29640
  Beta virt. eigenvalues --    0.31163   0.32076   0.32440   0.33165   0.34200

 Mulliken charges and spin densities:
               1          2
     1  C   -0.490464  -0.000000
     2  C    1.665528  -0.000000
     3  C   -0.493371   0.000000
     4  C   -0.986760   0.000000
     5  O   -0.611859  -0.000000
     6  C    0.323548  -0.000000
     7  C    0.348551  -0.000000
     8  C   -1.357669   0.000000
     9  O   -0.603615  -0.000000
    10  H    0.068264   0.000000
    11  H    0.050291  -0.000000
    12  H    0.080483   0.000000
    13  H   -0.020180   0.000000
    14  H    0.013173  -0.000000
    15  H    0.014080   0.000000
 Sum of Mulliken charges =  -2.00000   0.00000

 Dipole moment (field-independent basis, Debye):
    X=             -5.1326    Y=             -1.0841    Z=              0.0385  Tot=              5.2459
 Quadrupole moment (field-independent basis, Debye-Ang):
   XX=            -84.4784   YY=           -119.2887   ZZ=            -65.3468
   XY=            -20.3393   XZ=              0.5645   YZ=              1.7806

  Exact polarizability: 260.045  42.003 174.847  16.147 -15.602 -87.681
 Approx polarizability: 317.813  33.335 251.863  -0.754   0.006 190.004

                      1                      2                      3
                      A                      A                      A
 Frequencies --     36.2188               135.8159               194.5118
 Red. masses --      1.0270                 7.5168                 3.4213
 Frc consts  --      0.0008                 0.0817                 0.0763
 IR Inten    --      5.3750                14.7895                 1.8900

                      4                      5                      6
                      A                      A                      A
 Frequencies --    281.2907               327.4335               354.3367
 Red. masses --      3.1045                 7.3100                 9.9577
 Frc consts  --      0.1447                 0.4618                 0.7366
 IR Inten    --      2.5291                 1.5623                 0.4852

                      7                      8                      9
                      A                      A                      A
 Frequencies --    432.3740               461.8862               514.5942
 Red. masses --      3.2508                 8.7489                 5.2294
 Frc consts  --      0.3581                 1.0997                 0.8159
 IR Inten    --      0.4383                 8.4180                23.3417

                     10                     11                     12
                      A                      A                      A
 Frequencies --    571.7380               588.6428               704.6064
 Red. masses --      1.8777                 4.5605                 3.5371
 Frc consts  --      0.3616                 0.9310                 1.0347
 IR Inten    --      0.2191                 1.3540                53.2993

                     13                     14                     15
                      A                      A                      A
 Frequencies --    726.4829               770.9905               790.9500
 Red. masses --      6.4203                 1.5094                 4.8479
 Frc consts  --      1.9964                 0.5286                 1.7869
 IR Inten    --     21.0782               167.2004                69.7167

                     16                     17                     18
                      A                      A                      A
 Frequencies --    804.1500               833.2904               927.2129
 Red. masses --      1.8889                 1.3382                 3.0028
 Frc consts  --      0.7197                 0.5475                 1.5210
 IR Inten    --      2.4446                20.0667                27.2550

                     19                     20                     21
                      A                      A                      A
 Frequencies --    990.5679              1028.6260              1083.1595
 Red. masses --      1.6028                 1.4469                 1.6579
 Frc consts  --      0.9266                 0.9020                 1.1460
 IR Inten    --     65.5202                 7.7270                12.3843

                     22                     23                     24
                      A                      A                      A
 Frequencies --   1137.4024              1185.1862              1233.7941
 Red. masses --      1.9396                 4.4800                 1.4948
 Frc consts  --      1.4784                 3.7077                 1.3407
 IR Inten    --     58.2492               181.6252                17.3635

                     25                     26                     27
                      A                      A                      A
 Frequencies --   1290.7262              1322.0277              1366.6399
 Red. masses --      2.7617                 8.1075                 1.3533
 Frc consts  --      2.7107                 8.3486                 1.4892
 IR Inten    --    413.2724                71.8785                 4.8925

                     28                     29                     30
                      A                      A                      A
 Frequencies --   1394.4248              1455.0374              1457.0912
 Red. masses --      4.4729                 1.0580                 3.1085
 Frc consts  --      5.1242                 1.3198                 3.8884
 IR Inten    --    211.3334               297.6505               413.1194

                     31                     32                     33
                      A                      A                      A
 Frequencies --   1476.2470              1481.5833              1596.2747
 Red. masses --      3.7922                 1.2129                 6.0649
 Frc consts  --      4.8692                 1.5687                 9.1052
 IR Inten    --    115.3205               190.2079               120.4039

                     34                     35                     36
                      A                      A                      A
 Frequencies --   2933.5719              2976.9658              3004.8185
 Red. masses --      1.0366                 1.0972                 1.0978
 Frc consts  --      5.2560                 5.7292                 5.8401
 IR Inten    --    408.6246               454.6384                65.8675

                     37                     38                     39
                      A                      A                      A
 Frequencies --   3044.3202              3051.1509              3076.5487
 Red. masses --      1.0825                 1.0857                 1.0908
 Frc consts  --      5.9112                 5.9553                 6.0830
 IR Inten    --     79.1465               183.6419               190.4833

 - Thermochemistry -
 -------------------
 Temperature   298.150 Kelvin.  Pressure   1.00000 Atm.
 Atom     1 has atomic number  6 and mass  12.00000

 Molecular mass:   122.03678 amu.
 Principal axes and moments of inertia in atomic units:
                           1         2         3
     Eigenvalues --   576.925911350.710911916.62838
           X            0.55443   0.83221  -0.00512
           Y            0.83178  -0.55392   0.03614
           Z           -0.02724   0.02430   0.99933
 This molecule is an asymmetric top.
 Rotational symmetry number  1.
 Warning -- assumption of classical behavior for rotation
           may cause significant error
 Rotational temperatures (Kelvin)      0.15013     0.06412     0.04519
 Rotational constants (GHZ):           3.12820     1.33614     0.94162
 Zero-point vibrational energy     281377.8 (Joules/Mol)
                                   67.25090 (Kcal/Mol)
 Warning -- explicit consideration of  11 degrees of freedom as
           vibrations may cause significant error
 Vibrational temperatures:     52.11   195.41   279.86   404.71   471.10
          (Kelvin)            509.81   622.09   664.55   740.39   822.60
                              846.93  1013.77  1045.25  1109.28  1138.00
                             1156.99  1198.92  1334.05  1425.21  1479.96
                             1558.42  1636.47  1705.22  1775.15  1857.07
                             1902.10  1966.29  2006.27  2093.47  2096.43
                             2123.99  2131.67  2296.68  4220.76  4283.19
                             4323.26  4380.10  4389.93  4426.47

 Zero-point correction=                           0.107171 (Hartree/Particle)
 Thermal correction to Energy=                    0.115174
 Thermal correction to Enthalpy=                  0.116119
 Thermal correction to Gibbs Free Energy=         0.073914
 Sum of electronic and zero-point Energies=           -420.746287
 Sum of electronic and thermal Energies=              -420.738283
 Sum of electronic and thermal Enthalpies=            -420.737339
 Sum of electronic and thermal Free Energies=         -420.779543

                     E (Thermal)             CV                S
                      KCal/Mol        Cal/Mol-Kelvin    Cal/Mol-Kelvin
 Total                   72.273             29.959             88.826
 Electronic               0.000              0.000              0.000
 Translational            0.889              2.981             40.312
 Rotational               0.889              2.981             28.792
 Vibrational             70.496             23.998             19.722
 Vibration     1          0.594              1.982              5.456
 Vibration     2          0.614              1.918              2.862
 Vibration     3          0.635              1.848              2.184
 Vibration     4          0.681              1.708              1.526
 Vibration     5          0.711              1.621              1.273
 Vibration     6          0.730              1.566              1.147
 Vibration     7          0.793              1.400              0.851
 Vibration     8          0.820              1.335              0.761
 Vibration     9          0.870              1.218              0.623
 Vibration    10          0.928              1.092              0.501
 Vibration    11          0.946              1.056              0.470

                           ! Non-Optimized Parameters !
 Normal termination of Gaussian 16 at Sat Jan  6 06:11:23 2024.
