 Q-Chem 5.4, Q-Chem, Inc., Pleasanton, CA (2021)
 Q-Chem 5.4.0 for Intel X86 EM64T Linux

User input:
--------------------------------------------------------------
$molecule
-2 1
C                  5.5291330000     -4.8444320000      0.8384700000
C                  6.6711390000     -4.5315510000      0.1147390000
C                  6.6491100000     -3.4906630000     -0.8124110000
C                  4.3626750000     -4.1068500000      0.6317780000
C                  4.3172820000     -3.0852580000     -0.3400830000
C                  5.4853230000     -2.7627620000     -1.0627830000
C                  3.1640700000     -4.4615480000      1.4701050000
C                  2.1565100000     -3.3736540000      1.6754360000
C                  2.0461080000     -2.4430380000      0.6209220000
C                  2.9705410000     -2.4722270000     -0.5664830000
C                  1.2945030000     -3.2677080000      2.7873470000
C                  0.3329300000     -2.2566690000      2.7942900000
C                  0.1987630000     -1.3726080000      1.7247110000
C                  1.0526780000     -1.4630720000      0.6345370000
O                  3.0362660000     -5.5843490000      1.9127830000
O                  2.6024150000     -2.0436700000     -1.6406410000
S                  1.3561470000     -4.3017190000      4.3357830000
O                  0.6092260000     -3.4567160000      5.3124850000
O                  2.7957630000     -4.4327780000      4.6535550000
O                  0.6492200000     -5.5594200000      4.0020080000
S                  5.6786310000     -1.3723880000     -2.2877160000
O                  7.1588360000     -1.1908020000     -2.3320070000
O                  5.1217630000     -1.8843930000     -3.5607930000
O                  4.9643680000     -0.2255060000     -1.6834740000
H                  5.5148150000     -5.6352450000      1.5784910000
H                  7.5919300000     -5.0821150000      0.2842570000
H                  7.5430410000     -3.1993070000     -1.3494820000
H                 -0.2905750000     -2.1694420000      3.6752610000
H                 -0.5624750000     -0.5985880000      1.7582460000
H                  0.9881670000     -0.7825920000     -0.2057060000
$end
$rem
MAX_SCF_CYCLES=200
BASIS  =  6-311++G(d,p)
GUI  =  2
JOB_TYPE  =  SP
METHOD  =  B3LYP
SOLVENT_METHOD = PCM
$end
$pcm
theory = CPCM
$end
$solvent
dielectric 37.219
opticaldielectric 1.43
$end
--------------------------------------------------------------

             Standard Nuclear Orientation (Angstroms)
    I     Atom           X                Y                Z
 ----------------------------------------------------------------
    1      C       5.5291330000    -4.8444320000     0.8384700000
    2      C       6.6711390000    -4.5315510000     0.1147390000
    3      C       6.6491100000    -3.4906630000    -0.8124110000
    4      C       4.3626750000    -4.1068500000     0.6317780000
    5      C       4.3172820000    -3.0852580000    -0.3400830000
    6      C       5.4853230000    -2.7627620000    -1.0627830000
    7      C       3.1640700000    -4.4615480000     1.4701050000
    8      C       2.1565100000    -3.3736540000     1.6754360000
    9      C       2.0461080000    -2.4430380000     0.6209220000
   10      C       2.9705410000    -2.4722270000    -0.5664830000
   11      C       1.2945030000    -3.2677080000     2.7873470000
   12      C       0.3329300000    -2.2566690000     2.7942900000
   13      C       0.1987630000    -1.3726080000     1.7247110000
   14      C       1.0526780000    -1.4630720000     0.6345370000
   15      O       3.0362660000    -5.5843490000     1.9127830000
   16      O       2.6024150000    -2.0436700000    -1.6406410000
   17      S       1.3561470000    -4.3017190000     4.3357830000
   18      O       0.6092260000    -3.4567160000     5.3124850000
   19      O       2.7957630000    -4.4327780000     4.6535550000
   20      O       0.6492200000    -5.5594200000     4.0020080000
   21      S       5.6786310000    -1.3723880000    -2.2877160000
   22      O       7.1588360000    -1.1908020000    -2.3320070000
   23      O       5.1217630000    -1.8843930000    -3.5607930000
   24      O       4.9643680000    -0.2255060000    -1.6834740000
   25      H       5.5148150000    -5.6352450000     1.5784910000
   26      H       7.5919300000    -5.0821150000     0.2842570000
   27      H       7.5430410000    -3.1993070000    -1.3494820000
   28      H      -0.2905750000    -2.1694420000     3.6752610000
   29      H      -0.5624750000    -0.5985880000     1.7582460000
   30      H       0.9881670000    -0.7825920000    -0.2057060000
 ----------------------------------------------------------------

    9   -1935.8748077646      4.63e-06  Convergence criterion met
 Total energy in the final basis set =    -1935.8748077646

                    Orbital Energies (a.u.)
 --------------------------------------------------------------

 Alpha MOs
 -- Occupied --
-89.0514 -89.0514 -19.1309 -19.1308 -19.0952 -19.0951 -19.0950 -19.0950
-19.0926 -19.0926 -10.2836 -10.2835 -10.2175 -10.2175 -10.2154 -10.2154
-10.2080 -10.2080 -10.1945 -10.1945 -10.1940 -10.1939 -10.1934 -10.1934
 -8.1098  -8.1098  -6.0724  -6.0724  -6.0724  -6.0723  -6.0719  -6.0718
 -1.1144  -1.1143  -1.0685  -1.0665  -0.9810  -0.9809  -0.9752  -0.9752
 -0.8946  -0.8812  -0.8118  -0.7834  -0.7798  -0.7676  -0.6911  -0.6727
 -0.6421  -0.6419  -0.6203  -0.5770  -0.5616  -0.5576  -0.5432  -0.5099
 -0.4962  -0.4937  -0.4852  -0.4775  -0.4752  -0.4606  -0.4583  -0.4569
 -0.4548  -0.4547  -0.4522  -0.4432  -0.4319  -0.4159  -0.3941  -0.3905
 -0.3894  -0.3873  -0.3789  -0.3708  -0.3400  -0.3396  -0.3377  -0.3376
 -0.3163  -0.3143  -0.3056  -0.3011  -0.2991  -0.2942  -0.2874  -0.2779
 -0.2717  -0.2705  -0.2663  -0.2646  -0.2595  -0.2591

          Ground-State Mulliken Net Atomic Charges

     Atom                 Charge (a.u.)
  ----------------------------------------
      1 C                    -0.328446
      2 C                    -0.428714
      3 C                     0.121160
      4 C                     0.634712
      5 C                     0.875090
      6 C                    -0.742117
      7 C                    -0.948552
      8 C                     0.877334
      9 C                     0.641001
     10 C                    -0.949363
     11 C                    -0.741403
     12 C                     0.112019
     13 C                    -0.425602
     14 C                    -0.330410
     15 O                    -0.243409
     16 O                    -0.242142
     17 S                     0.529000
     18 O                    -0.401455
     19 O                    -0.402882
     20 O                    -0.370581
     21 S                     0.528892
     22 O                    -0.401083
     23 O                    -0.369949
     24 O                    -0.403503
     25 H                     0.215025
     26 H                     0.237289
     27 H                     0.253227
     28 H                     0.253089
     29 H                     0.237253
     30 H                     0.214519
  ----------------------------------------
  Sum of atomic charges =    -2.000000

                    Cartesian Multipole Moments
 -----------------------------------------------------------------
    Charge (ESU x 10^10)
                -9.6064
    Dipole Moment (Debye)
         X     -32.6891      Y      28.7963      Z      -8.4433
       Tot      44.3744
    Quadrupole Moments (Debye-Ang)
        XX    -307.3249     XY      45.0656     YY    -287.1126
        XZ      43.0088     YZ      90.9726     ZZ    -315.0007

 Total job time:  89.21s(wall), 617.62s(cpu)
        *  Thank you very much for using Q-Chem.  Have a nice day.  *
