 Gaussian 16, Revision A.03,
 Gaussian 16:  ES64L-G16RevA.03 25-Dec-2016

 ----------------------------------------------------------------
 #P UB3LYP/6-311++G(d,p) SCRF=(PCM,Solvent=n,n-DiMethylFormamide)
 ----------------------------------------------------------------

 ------------------
 Quinone PCM in DMF
 ------------------
 Symbolic Z-matrix:
 Charge = -2 Multiplicity = 1

                         Standard orientation:
 ---------------------------------------------------------------------
 Center     Atomic      Atomic             Coordinates (Angstroms)
 Number     Number       Type             X           Y           Z
 ---------------------------------------------------------------------
      1          6           0       -0.790975   -2.692977    0.161919
      2          6           0       -2.100505   -3.033543   -0.146309
      3          6           0       -3.072293   -2.041159   -0.266061
      4          6           0       -0.456863   -1.350811    0.347207
      5          6           0       -1.443659   -0.345023    0.277579
      6          6           0       -2.770378   -0.696179   -0.049721
      7          6           0        0.984513   -1.032529    0.641131
      8          6           0        1.443922    0.345123    0.277993
      9          6           0        0.457139    1.350943    0.347412
     10          6           0       -0.984502    1.032785    0.640340
     11          6           0        2.770622    0.696214   -0.049463
     12          6           0        3.072621    2.041144   -0.265869
     13          6           0        2.100938    3.033619   -0.145922
     14          6           0        0.791392    2.693112    0.162263
     15          8           0        1.698426   -1.857732    1.172494
     16          8           0       -1.698978    1.858327    1.170432
     17         16           0        4.189648   -0.479670   -0.322037
     18          8           0        5.146904    0.353435   -1.106553
     19          8           0        3.615575   -1.601760   -1.097926
     20          8           0        4.691622   -0.816633    1.029792
     21         16           0       -4.189832    0.479445   -0.321802
     22          8           0       -5.147263   -0.353767   -1.106037
     23          8           0       -4.691291    0.816271    1.030257
     24          8           0       -3.616261    1.601749   -1.097732
     25          1           0       -0.007214   -3.435830    0.246239
     26          1           0       -2.367926   -4.072310   -0.317082
     27          1           0       -4.087442   -2.282614   -0.555229
     28          1           0        4.087737    2.282542   -0.555253
     29          1           0        2.368430    4.072376   -0.316646
     30          1           0        0.007653    3.435991    0.246560
 ---------------------------------------------------------------------

 SCF Done:  E(UB3LYP) =  -1935.86505388     A.U. after   16 cycles

 The electronic state is 1-A.
 Alpha  occ. eigenvalues --  -89.04729 -89.04729 -19.12964 -19.12961 -19.09063
 Alpha  occ. eigenvalues --  -19.09062 -19.09056 -19.09054 -19.08858 -19.08857
 Alpha  occ. eigenvalues --  -10.28241 -10.28238 -10.21689 -10.21688 -10.21521
 Alpha  occ. eigenvalues --  -10.21520 -10.20838 -10.20838 -10.19600 -10.19599
 Alpha  occ. eigenvalues --  -10.19543 -10.19542 -10.19416 -10.19416  -8.10567
 Alpha  occ. eigenvalues --   -8.10567  -6.06827  -6.06827  -6.06819  -6.06818
 Alpha  occ. eigenvalues --   -6.06781  -6.06781  -1.10992  -1.10990  -1.06702
 Alpha  occ. eigenvalues --   -1.06496  -0.97620  -0.97619  -0.97076  -0.97075
 Alpha  occ. eigenvalues --   -0.89487  -0.88162  -0.81227  -0.78352  -0.77998
 Alpha  occ. eigenvalues --   -0.76830  -0.69085  -0.67301  -0.64221  -0.64103
 Alpha  occ. eigenvalues --   -0.61889  -0.57617  -0.56189  -0.55587  -0.54206
 Alpha  occ. eigenvalues --   -0.50843  -0.49455  -0.49342  -0.48531  -0.47700
 Alpha  occ. eigenvalues --   -0.47489  -0.45836  -0.45685  -0.45301  -0.45179
 Alpha  occ. eigenvalues --   -0.45092  -0.44814  -0.44178  -0.43150  -0.41454
 Alpha  occ. eigenvalues --   -0.39548  -0.39111  -0.38989  -0.38812  -0.37923
 Alpha  occ. eigenvalues --   -0.37069  -0.33515  -0.33483  -0.33268  -0.33267
 Alpha  occ. eigenvalues --   -0.31301  -0.31097  -0.30286  -0.29724  -0.29491
 Alpha  occ. eigenvalues --   -0.29071  -0.28749  -0.27610  -0.27041  -0.26988
 Alpha  occ. eigenvalues --   -0.26514  -0.26350  -0.25449  -0.25418
 Alpha virt. eigenvalues --   -0.10619  -0.07323  -0.03193  -0.03096  -0.00135
 Alpha virt. eigenvalues --    0.00712   0.01225   0.01548   0.02460   0.02682
 Alpha virt. eigenvalues --    0.02786   0.03591   0.03953   0.04608   0.04879

  Beta  occ. eigenvalues --  -89.04729 -89.04729 -19.12964 -19.12961 -19.09063
  Beta  occ. eigenvalues --  -19.09062 -19.09056 -19.09054 -19.08858 -19.08857
  Beta  occ. eigenvalues --  -10.28241 -10.28238 -10.21689 -10.21688 -10.21521
  Beta  occ. eigenvalues --  -10.21520 -10.20838 -10.20838 -10.19600 -10.19599
  Beta  occ. eigenvalues --  -10.19543 -10.19542 -10.19416 -10.19416  -8.10567
  Beta  occ. eigenvalues --   -8.10567  -6.06827  -6.06827  -6.06819  -6.06818
  Beta  occ. eigenvalues --   -6.06781  -6.06781  -1.10992  -1.10990  -1.06702
  Beta  occ. eigenvalues --   -1.06496  -0.97620  -0.97619  -0.97076  -0.97075
  Beta  occ. eigenvalues --   -0.89487  -0.88162  -0.81227  -0.78352  -0.77998
  Beta  occ. eigenvalues --   -0.76830  -0.69085  -0.67301  -0.64221  -0.64103
  Beta  occ. eigenvalues --   -0.61889  -0.57617  -0.56189  -0.55587  -0.54206
  Beta  occ. eigenvalues --   -0.50843  -0.49455  -0.49342  -0.48531  -0.47700
  Beta  occ. eigenvalues --   -0.47489  -0.45836  -0.45685  -0.45301  -0.45179
  Beta  occ. eigenvalues --   -0.45092  -0.44814  -0.44178  -0.43150  -0.41454
  Beta  occ. eigenvalues --   -0.39548  -0.39111  -0.38989  -0.38812  -0.37923
  Beta  occ. eigenvalues --   -0.37069  -0.33515  -0.33483  -0.33268  -0.33267
  Beta  occ. eigenvalues --   -0.31301  -0.31097  -0.30286  -0.29724  -0.29491
  Beta  occ. eigenvalues --   -0.29071  -0.28749  -0.27610  -0.27041  -0.26988
  Beta  occ. eigenvalues --   -0.26514  -0.26350  -0.25449  -0.25418
  Beta virt. eigenvalues --   -0.10619  -0.07323  -0.03193  -0.03096  -0.00135
  Beta virt. eigenvalues --    0.00712   0.01225   0.01548   0.02460   0.02682
  Beta virt. eigenvalues --    0.02786   0.03591   0.03953   0.04608   0.04879

 Mulliken charges and spin densities:
               1          2
     1  C   -0.328725  -0.000000
     2  C   -0.415808  -0.000000
     3  C    0.123797   0.000000
     4  C    0.626956   0.000000
     5  C    0.877385   0.000000
     6  C   -0.743391  -0.000000
     7  C   -0.951253   0.000000
     8  C    0.876690   0.000000
     9  C    0.627236   0.000000
    10  C   -0.950939  -0.000000
    11  C   -0.743945  -0.000000
    12  C    0.123441   0.000000
    13  C   -0.415856   0.000000
    14  C   -0.328491  -0.000000
    15  O   -0.224323  -0.000000
    16  O   -0.224037   0.000000
    17  S    0.510948  -0.000000
    18  O   -0.388294  -0.000000
    19  O   -0.391417   0.000000
    20  O   -0.356613  -0.000000
    21  S    0.510987  -0.000000
    22  O   -0.388139   0.000000
    23  O   -0.356790   0.000000
    24  O   -0.391512  -0.000000
    25  H    0.198425  -0.000000
    26  H    0.219054  -0.000000
    27  H    0.243587   0.000000
    28  H    0.243611   0.000000
    29  H    0.219048   0.000000
    30  H    0.198366  -0.000000
 Sum of Mulliken charges =  -2.00000  -0.00000

 Dipole moment (field-independent basis, Debye):
    X=              0.0021    Y=              0.0006    Z=              0.8337  Tot=              0.8337
 Quadrupole moment (field-independent basis, Debye-Ang):
   XX=           -367.7991   YY=           -158.0366   ZZ=           -178.8399
   XY=             49.1019   XZ=              0.0021   YZ=              0.0061

 Normal termination of Gaussian 16 at Tue Jan 16 20:40:31 2024.
