 Gaussian 16, Revision A.03,
 Gaussian 16:  ES64L-G16RevA.03 25-Dec-2016

 --------------------------------------
 #P UB3LYP/6-311++G(d,p) nosym opt freq
 --------------------------------------

 -------
 Reduced
 -------
 Symbolic Z-matrix:
 Charge = -2 Multiplicity = 1

 SCF Done:  E(UB3LYP) =  -1431.98407466     A.U. after   24 cycles
 SCF Done:  E(UB3LYP) =  -1431.98407462     A.U. after   11 cycles
 SCF Done:  E(UB3LYP) =  -1431.98407429     A.U. after   12 cycles
 SCF Done:  E(UB3LYP) =  -1431.98407467     A.U. after   12 cycles
 Optimization completed.
    -- Stationary point found.
 Normal termination of Gaussian 16 at Wed Jan 10 05:54:36 2024.

 ----------------------------------------------------------------------
 #P Geom=AllCheck Guess=TCheck SCRF=Check GenChk UB3LYP/6-311++G(d,p) F
 req
 ----------------------------------------------------------------------

 Structure from the checkpoint file:  "068-an.chk"
 -------
 Reduced
 -------
 Charge = -2 Multiplicity = 1

                          Input orientation:
 ---------------------------------------------------------------------
 Center     Atomic      Atomic             Coordinates (Angstroms)
 Number     Number       Type             X           Y           Z
 ---------------------------------------------------------------------
      1          6           0       -0.292166    1.792922   -1.244395
      2          6           0       -1.255433    1.673911   -0.149682
      3          6           0       -1.029185    0.949306    0.971036
      4          6           0        0.168692    0.148833    1.195621
      5          6           0        1.150958    0.167148    0.129015
      6          6           0        0.936818    1.114953   -0.988201
      7          8           0       -0.594965    2.474611   -2.267977
      8          8           0        0.207405   -0.541170    2.271006
      9         16           0        2.253171    1.721319   -2.042642
     10          6           0        3.826439    1.478468   -1.123794
     11          6           0        4.004725    2.087208    0.115628
     12          6           0        4.885983    0.840822   -1.759465
     13          6           0        6.143455    0.824868   -1.156971
     14          6           0        5.260017    2.052447    0.725394
     15          6           0        6.333543    1.428337    0.088727
     16          8           0        2.206692    3.207398   -2.099474
     17          8           0        2.434287    1.049257   -3.351153
     18          1           0       -2.179975    2.233485   -0.285541
     19          1           0       -1.766479    0.897070    1.770211
     20          1           0        3.166836    2.581266    0.591655
     21          1           0        4.695502    0.358315   -2.709976
     22          1           0        6.972536    0.325584   -1.651028
     23          1           0        5.397442    2.512272    1.699773
     24          1           0        7.310026    1.403136    0.564684
     25          6           0        2.161835   -0.871342   -0.046752
     26          8           0        2.691993   -1.021651   -1.163801
     27          6           0        2.674535   -1.864125    1.064948
     28          6           0        3.071432   -1.131922    2.362726
     29          6           0        1.607404   -2.947518    1.336269
     30          6           0        3.935925   -2.575489    0.528121
     31          1           0        2.207605   -0.623333    2.790407
     32          1           0        3.869677   -0.409775    2.161235
     33          1           0        3.453159   -1.859044    3.095394
     34          1           0        0.701327   -2.496651    1.742161
     35          1           0        1.994371   -3.679330    2.060986
     36          1           0        1.374479   -3.483638    0.408785
     37          1           0        4.731207   -1.861468    0.300267
     38          1           0        3.723826   -3.129143   -0.388345
     39          1           0        4.302111   -3.275327    1.291937
 ---------------------------------------------------------------------

 SCF Done:  E(UB3LYP) =  -1431.98407467     A.U. after    2 cycles

 Alpha  occ. eigenvalues --  -88.79026 -18.85091 -18.84464 -18.83999 -18.81312
 Alpha  occ. eigenvalues --  -18.79365  -9.99706  -9.99157  -9.98779  -9.98775
 Alpha  occ. eigenvalues --   -9.98707  -9.97941  -9.97739  -9.97736  -9.96478
 Alpha  occ. eigenvalues --   -9.96328  -9.94326  -9.93732  -9.93216  -9.92825
 Alpha  occ. eigenvalues --   -9.92545  -9.92457  -9.92317  -7.85278  -5.81538
 Alpha  occ. eigenvalues --   -5.81517  -5.81355  -0.83698  -0.77289  -0.73527
 Alpha  occ. eigenvalues --   -0.72937  -0.71820  -0.66546  -0.58727  -0.57189
 Alpha  occ. eigenvalues --   -0.56094  -0.55607  -0.51170  -0.46947  -0.46594
 Alpha  occ. eigenvalues --   -0.45877  -0.42786  -0.41538  -0.39673  -0.37804
 Alpha  occ. eigenvalues --   -0.35153  -0.33260  -0.30783  -0.26809  -0.26689
 Alpha  occ. eigenvalues --   -0.26288  -0.24748  -0.24150  -0.23329  -0.23063
 Alpha  occ. eigenvalues --   -0.22244  -0.22006  -0.20672  -0.20157  -0.19349
 Alpha  occ. eigenvalues --   -0.18500  -0.18098  -0.17620  -0.16986  -0.16626
 Alpha  occ. eigenvalues --   -0.15499  -0.15328  -0.15099  -0.14020  -0.13270
 Alpha  occ. eigenvalues --   -0.12770  -0.12453  -0.11501  -0.10477  -0.09748
 Alpha  occ. eigenvalues --   -0.09598  -0.07405  -0.06819  -0.06181  -0.05300
 Alpha  occ. eigenvalues --   -0.04117  -0.03496  -0.01316  -0.00179   0.00862
 Alpha  occ. eigenvalues --    0.01891   0.03544   0.09011
 Alpha virt. eigenvalues --    0.13691   0.15549   0.15681   0.17160   0.17279
 Alpha virt. eigenvalues --    0.17485   0.17696   0.17933   0.18248   0.19220
 Alpha virt. eigenvalues --    0.19704   0.20110   0.20687   0.21377   0.21759

  Beta  occ. eigenvalues --  -88.79026 -18.85091 -18.84464 -18.83999 -18.81312
  Beta  occ. eigenvalues --  -18.79365  -9.99706  -9.99157  -9.98779  -9.98775
  Beta  occ. eigenvalues --   -9.98707  -9.97941  -9.97739  -9.97736  -9.96478
  Beta  occ. eigenvalues --   -9.96328  -9.94326  -9.93732  -9.93216  -9.92825
  Beta  occ. eigenvalues --   -9.92545  -9.92457  -9.92317  -7.85278  -5.81538
  Beta  occ. eigenvalues --   -5.81517  -5.81355  -0.83698  -0.77289  -0.73527
  Beta  occ. eigenvalues --   -0.72937  -0.71820  -0.66546  -0.58727  -0.57189
  Beta  occ. eigenvalues --   -0.56094  -0.55607  -0.51170  -0.46947  -0.46594
  Beta  occ. eigenvalues --   -0.45877  -0.42786  -0.41538  -0.39673  -0.37804
  Beta  occ. eigenvalues --   -0.35153  -0.33260  -0.30783  -0.26809  -0.26689
  Beta  occ. eigenvalues --   -0.26288  -0.24748  -0.24150  -0.23329  -0.23063
  Beta  occ. eigenvalues --   -0.22244  -0.22006  -0.20672  -0.20157  -0.19349
  Beta  occ. eigenvalues --   -0.18500  -0.18098  -0.17620  -0.16986  -0.16626
  Beta  occ. eigenvalues --   -0.15499  -0.15328  -0.15099  -0.14020  -0.13270
  Beta  occ. eigenvalues --   -0.12770  -0.12453  -0.11501  -0.10477  -0.09748
  Beta  occ. eigenvalues --   -0.09598  -0.07405  -0.06819  -0.06181  -0.05300
  Beta  occ. eigenvalues --   -0.04117  -0.03496  -0.01316  -0.00179   0.00862
  Beta  occ. eigenvalues --    0.01891   0.03544   0.09011
  Beta virt. eigenvalues --    0.13691   0.15549   0.15681   0.17160   0.17279
  Beta virt. eigenvalues --    0.17485   0.17696   0.17933   0.18248   0.19220
  Beta virt. eigenvalues --    0.19704   0.20110   0.20687   0.21377   0.21759

 Mulliken charges and spin densities:
               1          2
     1  C   -0.828247   0.000000
     2  C    0.048608   0.000000
     3  C   -0.176553  -0.000000
     4  C   -0.956657   0.000000
     5  C    1.032082  -0.000000
     6  C   -0.143093   0.000000
     7  O   -0.396738  -0.000000
     8  O   -0.393107  -0.000000
     9  S    0.975906  -0.000000
    10  C   -0.269524   0.000000
    11  C   -0.145644   0.000000
    12  C    0.021972  -0.000000
    13  C   -0.464255  -0.000000
    14  C   -0.396659   0.000000
    15  C   -0.352880   0.000000
    16  O   -0.117073  -0.000000
    17  O   -0.201552  -0.000000
    18  H    0.120150  -0.000000
    19  H    0.114582  -0.000000
    20  H    0.207440   0.000000
    21  H    0.234885  -0.000000
    22  H    0.134040  -0.000000
    23  H    0.145020  -0.000000
    24  H    0.103417   0.000000
    25  C   -0.211180   0.000000
    26  O   -0.208543  -0.000000
    27  C    0.867788  -0.000000
    28  C   -0.568630   0.000000
    29  C   -0.741766   0.000000
    30  C   -0.699514   0.000000
    31  H    0.225615   0.000000
    32  H    0.151107   0.000000
    33  H    0.085095  -0.000000
    34  H    0.205731  -0.000000
    35  H    0.089011   0.000000
    36  H    0.122921   0.000000
    37  H    0.137749   0.000000
    38  H    0.150877   0.000000
    39  H    0.097617  -0.000000
 Sum of Mulliken charges =  -2.00000  -0.00000

 Dipole moment (field-independent basis, Debye):
    X=            -12.7824    Y=             -8.1077    Z=              8.3709  Tot=             17.2973
 Quadrupole moment (field-independent basis, Debye-Ang):
   XX=           -205.1765   YY=           -200.5041   ZZ=           -209.7568
   XY=             -3.8364   XZ=             14.8651   YZ=             36.4217

  Exact polarizability: 349.765 -34.179 236.518 -11.880 -26.956 255.148
 Approx polarizability: 539.975 -78.223 369.894 -45.183  -8.755 460.682

                      1                      2                      3
                      A                      A                      A
 Frequencies --     24.4527                42.0814                43.4681
 Red. masses --      4.4974                 4.7301                 6.3787
 Frc consts  --      0.0016                 0.0049                 0.0071
 IR Inten    --      1.4947                 0.7181                 1.2082

                      4                      5                      6
                      A                      A                      A
 Frequencies --     57.6867                85.1351                96.4423
 Red. masses --      4.1411                 4.8373                 6.8370
 Frc consts  --      0.0081                 0.0207                 0.0375
 IR Inten    --      0.5670                 0.5767                 6.0708

                      7                      8                      9
                      A                      A                      A
 Frequencies --    121.9005               140.0712               163.5293
 Red. masses --      5.2704                 5.4367                 8.2507
 Frc consts  --      0.0461                 0.0628                 0.1300
 IR Inten    --      1.4646                 0.7525                 9.0631

                     10                     11                     12
                      A                      A                      A
 Frequencies --    180.3631               198.3964               212.7433
 Red. masses --      5.6072                 4.9903                 5.7244
 Frc consts  --      0.1075                 0.1157                 0.1526
 IR Inten    --      1.0684                 2.2778                 5.4179

                     13                     14                     15
                      A                      A                      A
 Frequencies --    222.2752               225.8132               254.6817
 Red. masses --      1.8956                 1.6985                 5.8464
 Frc consts  --      0.0552                 0.0510                 0.2234
 IR Inten    --      0.9740                 1.9790                 0.4834

                     16                     17                     18
                      A                      A                      A
 Frequencies --    259.5385               271.7803               293.5079
 Red. masses --      2.4761                 1.1903                 1.2765
 Frc consts  --      0.0983                 0.0518                 0.0648
 IR Inten    --      9.9754                 1.9016                 1.0840

                     19                     20                     21
                      A                      A                      A
 Frequencies --    301.7358               305.3337               309.4896
 Red. masses --      5.6265                 5.1677                 5.7142
 Frc consts  --      0.3018                 0.2839                 0.3225
 IR Inten    --      0.8046                 4.1737                 2.7381

                     22                     23                     24
                      A                      A                      A
 Frequencies --    327.8557               356.4386               380.4481
 Red. masses --      5.9755                 3.1901                 4.5424
 Frc consts  --      0.3784                 0.2388                 0.3874
 IR Inten    --      1.8954                 0.6511                 7.0180

                     25                     26                     27
                      A                      A                      A
 Frequencies --    396.0971               409.4925               410.6718
 Red. masses --      3.4641                 3.3006                 2.8813
 Frc consts  --      0.3202                 0.3261                 0.2863
 IR Inten    --      1.3581                 0.7952                 0.0410

                     28                     29                     30
                      A                      A                      A
 Frequencies --    437.0541               469.6875               473.4861
 Red. masses --      7.8490                 4.7392                 5.8084
 Frc consts  --      0.8834                 0.6160                 0.7672
 IR Inten    --     45.5223                 3.6876                 1.6940

                     31                     32                     33
                      A                      A                      A
 Frequencies --    489.4147               497.8726               542.2375
 Red. masses --      5.9190                 6.4850                 6.5954
 Frc consts  --      0.8353                 0.9471                 1.1425
 IR Inten    --     13.0308                17.5519                34.8954

                     34                     35                     36
                      A                      A                      A
 Frequencies --    559.8380               602.4277               606.8962
 Red. masses --      4.3369                 5.2316                 2.7023
 Frc consts  --      0.8009                 1.1186                 0.5864
 IR Inten    --     49.1294                72.1616                10.1060

                     37                     38                     39
                      A                      A                      A
 Frequencies --    628.6890               642.1485               692.7972
 Red. masses --      6.4015                 4.9726                 4.3696
 Frc consts  --      1.4907                 1.2081                 1.2357
 IR Inten    --      0.5623                19.2629                19.1524

                     40                     41                     42
                      A                      A                      A
 Frequencies --    696.7808               715.8817               737.2862
 Red. masses --      2.0051                 7.4367                 6.4018
 Frc consts  --      0.5736                 2.2455                 2.0503
 IR Inten    --     40.1756                51.8851                 6.5713

                     43                     44                     45
                      A                      A                      A
 Frequencies --    749.5010               782.7189               798.5968
 Red. masses --      2.0562                 7.1135                 4.6208
 Frc consts  --      0.6805                 2.5677                 1.7363
 IR Inten    --     16.6032                15.0058                25.1322

                     46                     47                     48
                      A                      A                      A
 Frequencies --    837.5748               838.6550               853.3634
 Red. masses --      1.2751                 2.4113                 3.3117
 Frc consts  --      0.5270                 0.9992                 1.4209
 IR Inten    --      2.7440                42.3912                61.0646

                     49                     50                     51
                      A                      A                      A
 Frequencies --    874.6039               911.0717               929.8362
 Red. masses --      7.0422                 1.4188                 1.7358
 Frc consts  --      3.1738                 0.6939                 0.8842
 IR Inten    --     50.2208                 3.5373                 5.9311

                     52                     53                     54
                      A                      A                      A
 Frequencies --    939.4765               961.5003               969.8900
 Red. masses --      1.7122                 1.2119                 1.3022
 Frc consts  --      0.8904                 0.6601                 0.7217
 IR Inten    --      0.2423                 0.9914                 0.5244

                     55                     56                     57
                      A                      A                      A
 Frequencies --    970.4445               978.9697              1009.6003
 Red. masses --      1.3029                 1.3334                 6.7226
 Frc consts  --      0.7229                 0.7529                 4.0373
 IR Inten    --      0.8291                 0.6020                61.8366

                     58                     59                     60
                      A                      A                      A
 Frequencies --   1021.5326              1033.7388              1041.9121
 Red. masses --      6.8940                 1.8123                 2.7674
 Frc consts  --      4.2387                 1.1410                 1.7701
 IR Inten    --    114.5567                31.7029                22.6474

                     61                     62                     63
                      A                      A                      A
 Frequencies --   1047.7647              1058.0243              1082.8858
 Red. masses --      1.5536                 2.6206                 1.6993
 Frc consts  --      1.0049                 1.7284                 1.1741
 IR Inten    --     12.2725                44.3290                16.8466

                     64                     65                     66
                      A                      A                      A
 Frequencies --   1086.0654              1095.6827              1161.2926
 Red. masses --      1.9825                 2.7079                 1.7167
 Frc consts  --      1.3778                 1.9154                 1.3641
 IR Inten    --     11.9129                19.4979               165.4156

                     67                     68                     69
                      A                      A                      A
 Frequencies --   1165.8023              1173.7180              1186.4770
 Red. masses --      1.1353                 6.3743                 1.2631
 Frc consts  --      0.9091                 5.1738                 1.0477
 IR Inten    --      7.2998               160.5054                25.1533

                     70                     71                     72
                      A                      A                      A
 Frequencies --   1215.2192              1220.8292              1237.8264
 Red. masses --      4.3703                 3.3221                 2.5468
 Frc consts  --      3.8025                 2.9172                 2.2991
 IR Inten    --     29.7813                21.8345                16.3251

                     73                     74                     75
                      A                      A                      A
 Frequencies --   1241.7817              1282.6102              1325.7855
 Red. masses --      3.2965                 3.7587                 1.7421
 Frc consts  --      2.9950                 3.6432                 1.8041
 IR Inten    --     47.4523                30.8336                 0.2885

                     76                     77                     78
                      A                      A                      A
 Frequencies --   1338.1996              1340.4365              1362.1491
 Red. masses --      2.5542                 3.2063                 1.2211
 Frc consts  --      2.6950                 3.3943                 1.3349
 IR Inten    --    107.6510                 6.7701                16.6811

                     79                     80                     81
                      A                      A                      A
 Frequencies --   1370.9365              1399.9021              1415.7908
 Red. masses --      1.2982                 1.3235                 3.7393
 Frc consts  --      1.4376                 1.5282                 4.4161
 IR Inten    --     41.9731                63.2588                99.4741

                     82                     83                     84
                      A                      A                      A
 Frequencies --   1462.2307              1463.8647              1473.9029
 Red. masses --      1.1047                 1.9517                 1.7344
 Frc consts  --      1.3917                 2.4641                 2.2199
 IR Inten    --      2.9251                17.8418               138.3544

                     85                     86                     87
                      A                      A                      A
 Frequencies --   1477.8697              1486.0964              1500.1022
 Red. masses --      1.0571                 1.1972                 1.8043
 Frc consts  --      1.3603                 1.5578                 2.3922
 IR Inten    --      3.5817                24.0689                21.4752

                     88                     89                     90
                      A                      A                      A
 Frequencies --   1501.5350              1518.1238              1520.6001
 Red. masses --      2.0520                 1.0807                 4.7486
 Frc consts  --      2.7259                 1.4674                 6.4691
 IR Inten    --      7.5592                24.4829               656.1452

                     91                     92                     93
                      A                      A                      A
 Frequencies --   1533.1578              1567.6548              1611.3402
 Red. masses --      1.0694                10.9473                 5.3905
 Frc consts  --      1.4811                15.8511                 8.2462
 IR Inten    --     39.4617               353.4465                 5.7667

                     94                     95                     96
                      A                      A                      A
 Frequencies --   1617.3299              1637.9424              2960.1938
 Red. masses --      5.9854                 7.0326                 1.0496
 Frc consts  --      9.2244                11.1163                 5.4190
 IR Inten    --     14.7861               110.8845                52.1590

                     97                     98                     99
                      A                      A                      A
 Frequencies --   2965.7209              2989.3509              3029.2792
 Red. masses --      1.0488                 1.0491                 1.0893
 Frc consts  --      5.4351                 5.5236                 5.8894
 IR Inten    --    161.2589               225.9804                52.3913

                    100                    101                    102
                      A                      A                      A
 Frequencies --   3041.2470              3067.9244              3098.2463
 Red. masses --      1.0840                 1.0838                 1.1009
 Frc consts  --      5.9074                 6.0101                 6.2263
 IR Inten    --     30.3627                37.4182                34.1310

                    103                    104                    105
                      A                      A                      A
 Frequencies --   3099.1799              3102.9711              3108.7281
 Red. masses --      1.0836                 1.0983                 1.0994
 Frc consts  --      6.1322                 6.2306                 6.2601
 IR Inten    --     33.8173                10.1243                 9.2241

                    106                    107                    108
                      A                      A                      A
 Frequencies --   3123.7166              3127.6777              3140.0977
 Red. masses --      1.0834                 1.0954                 1.0892
 Frc consts  --      6.2283                 6.3135                 6.3277
 IR Inten    --      3.5808               125.6224                53.3610

                    109                    110                    111
                      A                      A                      A
 Frequencies --   3154.8143              3195.3510              3198.7399
 Red. masses --      1.0951                 1.0923                 1.0917
 Frc consts  --      6.4215                 6.5707                 6.5816
 IR Inten    --     79.7558                 3.7427                 6.6507

 - Thermochemistry -
 -------------------
 Temperature   298.150 Kelvin.  Pressure   1.00000 Atm.
 Atom     1 has atomic number  6 and mass  12.00000

 Molecular mass:   332.07185 amu.
 Principal axes and moments of inertia in atomic units:
                           1         2         3
     Eigenvalues --  6019.435426468.914529980.86079
           X            0.99626   0.01467   0.08518
           Y           -0.06844   0.73582   0.67371
           Z           -0.05279  -0.67702   0.73407
 This molecule is an asymmetric top.
 Rotational symmetry number  1.
 Warning -- assumption of classical behavior for rotation
           may cause significant error
 Rotational temperatures (Kelvin)      0.01439     0.01339     0.00868
 Rotational constants (GHZ):           0.29982     0.27899     0.18082
 Zero-point vibrational energy     765437.1 (Joules/Mol)
                                  182.94385 (Kcal/Mol)
 Warning -- explicit consideration of  36 degrees of freedom as
           vibrations may cause significant error
 Vibrational temperatures:     35.18    60.55    62.54    83.00   122.49
          (Kelvin)            138.76   175.39   201.53   235.28   259.50
                              285.45   306.09   319.80   324.89   366.43
                              373.42   391.03   422.29   434.13   439.31
                              445.29   471.71   512.84   547.38   569.90
                              589.17   590.87   628.82   675.78   681.24
                              704.16   716.33   780.16   805.48   866.76
                              873.19   904.54   923.91   996.78  1002.51
                             1029.99  1060.79  1078.36  1126.16  1149.00
                             1205.08  1206.64  1227.80  1258.36  1310.83
                             1337.83  1351.70  1383.38  1395.46  1396.25
                             1408.52  1452.59  1469.76  1487.32  1499.08
                             1507.50  1522.26  1558.03  1562.61  1576.44
                             1670.84  1677.33  1688.72  1707.08  1748.43
                             1756.50  1780.96  1786.65  1845.39  1907.51
                             1925.37  1928.59  1959.83  1972.47  2014.15
                             2037.01  2103.82  2106.17  2120.62  2126.32
                             2138.16  2158.31  2160.37  2184.24  2187.80
                             2205.87  2255.51  2318.36  2326.98  2356.63
                             4259.06  4267.01  4301.01  4358.46  4375.68
                             4414.06  4457.69  4459.03  4464.48  4472.77
                             4494.33  4500.03  4517.90  4539.07  4597.40
                             4602.27

 Zero-point correction=                           0.291540 (Hartree/Particle)
 Thermal correction to Energy=                    0.313071
 Thermal correction to Enthalpy=                  0.314015
 Thermal correction to Gibbs Free Energy=         0.241519
 Sum of electronic and zero-point Energies=          -1431.692535
 Sum of electronic and thermal Energies=             -1431.671004
 Sum of electronic and thermal Enthalpies=           -1431.670060
 Sum of electronic and thermal Free Energies=        -1431.742556

                     E (Thermal)             CV                S
                      KCal/Mol        Cal/Mol-Kelvin    Cal/Mol-Kelvin
 Total                  196.455             83.567            152.580
 Electronic               0.000              0.000              0.000
 Translational            0.889              2.981             43.296
 Rotational               0.889              2.981             34.318
 Vibrational            194.677             77.606             74.967
 Vibration     1          0.593              1.985              6.235
 Vibration     2          0.595              1.980              5.159
 Vibration     3          0.595              1.980              5.094
 Vibration     4          0.596              1.974              4.535
 Vibration     5          0.601              1.959              3.769
 Vibration     6          0.603              1.952              3.525
 Vibration     7          0.609              1.931              3.070
 Vibration     8          0.615              1.913              2.803
 Vibration     9          0.623              1.887              2.509
 Vibration    10          0.629              1.866              2.325
 Vibration    11          0.637              1.842              2.148
 Vibration    12          0.644              1.821              2.020
 Vibration    13          0.648              1.807              1.940
 Vibration    14          0.650              1.802              1.912
 Vibration    15          0.665              1.755              1.698
 Vibration    16          0.668              1.747              1.665
 Vibration    17          0.675              1.725              1.585
 Vibration    18          0.688              1.686              1.454
 Vibration    19          0.694              1.670              1.407
 Vibration    20          0.696              1.664              1.387
 Vibration    21          0.699              1.656              1.365
 Vibration    22          0.711              1.620              1.271
 Vibration    23          0.732              1.562              1.138
 Vibration    24          0.750              1.512              1.037
 Vibration    25          0.763              1.479              0.977
 Vibration    26          0.774              1.450              0.928
 Vibration    27          0.775              1.447              0.924
 Vibration    28          0.797              1.389              0.836
 Vibration    29          0.827              1.317              0.738
 Vibration    30          0.830              1.309              0.728
 Vibration    31          0.845              1.274              0.685
 Vibration    32          0.853              1.255              0.663
 Vibration    33          0.897              1.157              0.560
 Vibration    34          0.915              1.118              0.524
 Vibration    35          0.961              1.027              0.445
 Vibration    36          0.966              1.017              0.438

 Optimization completed.
    -- Stationary point found.
 Normal termination of Gaussian 16 at Wed Jan 10 09:14:17 2024.
