 Q-Chem 5.4, Q-Chem, Inc., Pleasanton, CA (2021)
 Q-Chem 5.4.0 for Intel X86 EM64T Linux

User input:
--------------------------------------------------------------
$molecule
-2 1
C                 -0.2921660000      1.7929220000     -1.2443950000
C                 -1.2554330000      1.6739110000     -0.1496820000
C                 -1.0291850000      0.9493060000      0.9710360000
C                  0.1686920000      0.1488330000      1.1956210000
C                  1.1509580000      0.1671480000      0.1290150000
C                  0.9368180000      1.1149530000     -0.9882010000
O                 -0.5949650000      2.4746110000     -2.2679770000
O                  0.2074050000     -0.5411700000      2.2710060000
S                  2.2531710000      1.7213190000     -2.0426420000
C                  3.8264390000      1.4784680000     -1.1237940000
C                  4.0047250000      2.0872080000      0.1156280000
C                  4.8859830000      0.8408220000     -1.7594650000
C                  6.1434550000      0.8248680000     -1.1569710000
C                  5.2600170000      2.0524470000      0.7253940000
C                  6.3335430000      1.4283370000      0.0887270000
O                  2.2066920000      3.2073980000     -2.0994740000
O                  2.4342870000      1.0492570000     -3.3511530000
H                 -2.1799750000      2.2334850000     -0.2855410000
H                 -1.7664790000      0.8970700000      1.7702110000
H                  3.1668360000      2.5812660000      0.5916550000
H                  4.6955020000      0.3583150000     -2.7099760000
H                  6.9725360000      0.3255840000     -1.6510280000
H                  5.3974420000      2.5122720000      1.6997730000
H                  7.3100260000      1.4031360000      0.5646840000
C                  2.1618350000     -0.8713420000     -0.0467520000
O                  2.6919930000     -1.0216510000     -1.1638010000
C                  2.6745350000     -1.8641250000      1.0649480000
C                  3.0714320000     -1.1319220000      2.3627260000
C                  1.6074040000     -2.9475180000      1.3362690000
C                  3.9359250000     -2.5754890000      0.5281210000
H                  2.2076050000     -0.6233330000      2.7904070000
H                  3.8696770000     -0.4097750000      2.1612350000
H                  3.4531590000     -1.8590440000      3.0953940000
H                  0.7013270000     -2.4966510000      1.7421610000
H                  1.9943710000     -3.6793300000      2.0609860000
H                  1.3744790000     -3.4836380000      0.4087850000
H                  4.7312070000     -1.8614680000      0.3002670000
H                  3.7238260000     -3.1291430000     -0.3883450000
H                  4.3021110000     -3.2753270000      1.2919370000
$end
$rem
MAX_SCF_CYCLES=200
BASIS  =  6-311++G(d,p)
GUI  =  2
JOB_TYPE  =  SP
METHOD  =  B3LYP
SOLVENT_METHOD = COSMO
$end
$solvent
dielectric 37.219
opticaldielectric 1.43
$end

--------------------------------------------------------------

             Standard Nuclear Orientation (Angstroms)
    I     Atom           X                Y                Z
 ----------------------------------------------------------------
    1      C       2.7340721862    -1.3323464097    -0.0462770743
    2      C       3.6864003472    -0.4326405212     0.6049094364
    3      C       3.3858240909     0.8337593168     0.9765742902
    4      C       2.1032383633     1.4765691367     0.7160476316
    5      C       1.1203100932     0.6684796439     0.0205811115
    6      C       1.4354914280    -0.7614356537    -0.1993389110
    7      O       3.1064376106    -2.4957498442    -0.3808569261
    8      O       1.9925557561     2.7025326009     1.0607484867
    9      S       0.1910483538    -2.0232619842    -0.4666711310
   10      C      -1.3913647904    -1.3587500384     0.1912216944
   11      C      -1.4843572684    -0.9938184125     1.5316300229
   12      C      -2.5251802920    -1.4003756743    -0.6125402383
   13      C      -3.7699579447    -1.0890957766    -0.0665340099
   14      C      -2.7291439738    -0.6636021632     2.0703731844
   15      C      -3.8752377112    -0.7170442609     1.2760625897
   16      O       0.4137310497    -3.1551100566     0.4730912463
   17      O      -0.0809703584    -2.4172606569    -1.8693265558
   18      H       4.6697295604    -0.8606749781     0.7951955405
   19      H       4.1190161382     1.4677907240     1.4719986733
   20      H      -0.5891958586    -0.9712106475     2.1406685502
   21      H      -2.4023624862    -1.6642414860    -1.6555444557
   22      H      -4.6571642292    -1.1191809580    -0.6932014074
   23      H      -2.8017673532    -0.3626420807     3.1114725891
   24      H      -4.8433145092    -0.4604431859     1.6975746383
   25      C      -0.0086851035     1.2346417914    -0.7115787726
   26      O      -0.5633041943     0.5546043618    -1.5955502243
   27      C      -0.6256968916     2.6694882153    -0.4997570114
   28      C      -0.9204824812     2.9642582902     0.9848601979
   29      C       0.3072163561     3.7391664618    -1.1093350374
   30      C      -1.9677791943     2.7318140388    -1.2615032191
   31      H       0.0017143610     2.9459237693     1.5653666356
   32      H      -1.6288314270     2.2302808080     1.3833684401
   33      H      -1.3793193715     3.9600764287     1.0799351516
   34      H       1.2642810215     3.7523698064    -0.5869771186
   35      H      -0.1574554660     4.7326972703    -1.0228271014
   36      H       0.4659994792     3.5338042303    -2.1744733167
   37      H      -2.6743988756     1.9864442415    -0.8882347038
   38      H      -1.8316598562     2.5450585989    -2.3282846391
   39      H      -2.4076469818     3.7296000574    -1.1265229045
 ----------------------------------------------------------------

   12   -1431.9840248029      4.61e-06  Convergence criterion met
 Total energy in the final basis set =    -1431.9840248029
    6   -1432.2543474446      5.92e-06  Convergence criterion met
 Total energy in the final basis set =    -1432.2543474446

                    Orbital Energies (a.u.)
 --------------------------------------------------------------

 Alpha MOs
 -- Occupied --
-89.0304 -19.0981 -19.0912 -19.0694 -19.0462 -19.0448 -10.2240 -10.2090
-10.2079 -10.1951 -10.1782 -10.1757 -10.1753 -10.1748 -10.1743 -10.1674
-10.1667 -10.1559 -10.1549 -10.1528 -10.1360 -10.1354 -10.1315  -8.0936
 -6.0564  -6.0556  -6.0544  -1.0838  -1.0019  -0.9785  -0.9715  -0.9676
 -0.8609  -0.8057  -0.7895  -0.7648  -0.7490  -0.7397  -0.6969  -0.6651
 -0.6609  -0.6499  -0.6171  -0.6092  -0.5904  -0.5650  -0.5479  -0.5203
 -0.4884  -0.4811  -0.4691  -0.4626  -0.4557  -0.4459  -0.4421  -0.4369
 -0.4304  -0.4244  -0.4222  -0.4197  -0.4024  -0.3978  -0.3906  -0.3752
 -0.3729  -0.3673  -0.3657  -0.3645  -0.3551  -0.3521  -0.3460  -0.3439
 -0.3367  -0.3310  -0.3209  -0.3088  -0.3064  -0.3013  -0.2931  -0.2833
 -0.2577  -0.2540  -0.2502  -0.2354  -0.2231  -0.2184  -0.2110  -0.1515

          Ground-State Mulliken Net Atomic Charges

     Atom                 Charge (a.u.)
  ----------------------------------------
      1 C                    -0.419519
      2 C                    -0.158014
      3 C                    -0.387386
      4 C                    -0.790137
      5 C                     0.869802
      6 C                    -0.421537
      7 O                    -0.571822
      8 O                    -0.507562
      9 S                     1.172408
     10 C                    -0.268798
     11 C                    -0.149621
     12 C                     0.085251
     13 C                    -0.491835
     14 C                    -0.500534
     15 C                    -0.376547
     16 O                    -0.245760
     17 O                    -0.314478
     18 H                     0.202867
     19 H                     0.198515
     20 H                     0.232969
     21 H                     0.244707
     22 H                     0.224756
     23 H                     0.227650
     24 H                     0.203563
     25 C                     0.041160
     26 O                    -0.298939
     27 C                     0.674588
     28 C                    -0.558342
     29 C                    -0.699046
     30 C                    -0.637417
     31 H                     0.191756
     32 H                     0.148380
     33 H                     0.153347
     34 H                     0.176511
     35 H                     0.154282
     36 H                     0.148257
     37 H                     0.134206
     38 H                     0.162086
     39 H                     0.150235
  ----------------------------------------
  Sum of atomic charges =    -2.000000

                    Cartesian Multipole Moments
 -----------------------------------------------------------------
    Charge (ESU x 10^10)
                -9.6064
    Dipole Moment (Debye)
         X     -14.8088      Y       8.9765      Z       4.4908
       Tot      17.8898
    Quadrupole Moments (Debye-Ang)
        XX    -180.3928     XY      12.7956     YY    -227.7959
        XZ      -3.7764     YZ     -13.4590     ZZ    -165.4457

 Total job time:  185.05s(wall), 1435.61s(cpu)
        *  Thank you very much for using Q-Chem.  Have a nice day.  *
