 Q-Chem 5.4, Q-Chem, Inc., Pleasanton, CA (2021)
 Q-Chem 5.4.0 for Intel X86 EM64T Linux

User input:
--------------------------------------------------------------
$molecule
0 1
Cl                 5.1912270000     -1.4819030000     -0.0055320000
C                  3.6604360000     -0.6412590000     -0.1514640000
C                  3.6574480000      0.7164180000     -0.4795430000
C                  2.4451320000      1.3816700000     -0.5949870000
C                  1.2389270000      0.7052110000     -0.3863190000
C                 -0.0451430000      1.4510250000     -0.5185150000
O                 -0.0606470000      2.6371060000     -0.8046400000
C                 -1.3078600000      0.6904430000     -0.2874110000
C                 -2.5313630000      1.3572180000     -0.4028380000
C                 -3.7226070000      0.6727020000     -0.1929590000
C                 -3.7029140000     -0.6859510000      0.1346570000
C                 -2.4918480000     -1.3574390000      0.2517490000
C                 -1.2881070000     -0.6771160000      0.0423700000
C                 -0.0042730000     -1.4236020000      0.1748240000
O                  0.0188150000     -2.6086060000      0.4604730000
C                  1.2606390000     -0.6604290000     -0.0570350000
C                  2.4779570000     -1.3353400000      0.0605420000
H                  4.5934410000      1.2359670000     -0.6401710000
H                  2.4124990000      2.4340840000     -0.8482220000
H                 -2.5236770000      2.4097510000     -0.6574960000
H                 -4.6685140000      1.1943980000     -0.2837230000
H                 -4.6333820000     -1.2176180000      0.2978870000
H                 -2.4533930000     -2.4097060000      0.5046940000
H                  2.4772080000     -2.3870250000      0.3147950000
$end
$rem
MAX_SCF_CYCLES=200
BASIS  =  6-311++G(d,p)
GUI  =  2
JOB_TYPE  =  SP
METHOD  =  B3LYP
SOLVENT_METHOD = COSMO
$end
$solvent
dielectric 37.219
opticaldielectric 1.43
$end

--------------------------------------------------------------

             Standard Nuclear Orientation (Angstroms)
    I     Atom           X                Y                Z
 ----------------------------------------------------------------
    1      Cl      4.6772842877    -0.6539775428    -0.0000309109
    2      C       3.0420235180    -0.0237222104    -0.0000249518
    3      C       2.8449498662     1.3590625054    -0.0000398136
    4      C       1.5499699975     1.8576853731    -0.0000285626
    5      C       0.4528719146     0.9902492600     0.0000063847
    6      C      -0.9246435505     1.5603380347     0.0000538444
    7      O      -1.1095704128     2.7664466881     0.0000466755
    8      C      -2.0656455251     0.5988481736     0.0000771650
    9      C      -3.3719151676     1.0973775155     0.0000560451
   10      C      -4.4530535407     0.2239856128    -0.0000808342
   11      C      -4.2393067499    -1.1573073823    -0.0001378999
   12      C      -2.9446726568    -1.6624906023    -0.0000579528
   13      C      -1.8505660324    -0.7915129728     0.0000341847
   14      C      -0.4731882643    -1.3623418724     0.0000709787
   15      O      -0.2809094420    -2.5662487359     0.0001442186
   16      C       0.6696158205    -0.3978768338     0.0000023913
   17      C       1.9709273606    -0.9055978171    -0.0000230925
   18      H       3.6970458045     2.0267060666    -0.0000704999
   19      H       1.3672014953     2.9250952173    -0.0000944978
   20      H      -3.5147960682     2.1708394542     0.0001007893
   21      H      -5.4638354053     0.6157315676    -0.0001228076
   22      H      -5.0842015626    -1.8364519021    -0.0002242382
   23      H      -2.7561628852    -2.7288816489    -0.0000276559
   24      H       2.1205526283    -1.9771848492    -0.0000100760
 ----------------------------------------------------------------

    9   -1148.5754866685      3.47e-06  Convergence criterion met
 Total energy in the final basis set =    -1148.5754866685
    5   -1148.5889741656      2.66e-06  Convergence criterion met
 Total energy in the final basis set =    -1148.5889741656

                    Orbital Energies (a.u.)
 --------------------------------------------------------------

 Alpha MOs
 -- Occupied --
******** -19.1371 -19.1353 -10.2891 -10.2874 -10.2627 -10.2181 -10.2138
-10.2107 -10.2101 -10.2088 -10.2088 -10.2057 -10.1982 -10.1980 -10.1975
-10.1973  -9.4856  -7.2501  -7.2406  -7.2400  -1.0727  -1.0700  -0.9179
 -0.8909  -0.8674  -0.8088  -0.7864  -0.7794  -0.7640  -0.6936  -0.6707
 -0.6439  -0.6235  -0.5912  -0.5658  -0.5569  -0.5135  -0.4972  -0.4919
 -0.4868  -0.4654  -0.4609  -0.4608  -0.4506  -0.4493  -0.4473  -0.4248
 -0.4139  -0.4099  -0.3873  -0.3818  -0.3813  -0.3687  -0.3505  -0.3341
 -0.2939  -0.2921  -0.2846  -0.2808  -0.2796  -0.2717

          Ground-State Mulliken Net Atomic Charges

     Atom                 Charge (a.u.)
  ----------------------------------------
      1 Cl                    0.501821
      2 C                     0.575770
      3 C                    -0.471773
      4 C                     0.101505
      5 C                     0.076857
      6 C                    -0.656177
      7 O                    -0.291908
      8 C                     0.092561
      9 C                     0.220929
     10 C                    -0.433648
     11 C                    -0.433204
     12 C                     0.203521
     13 C                     0.213738
     14 C                    -0.711411
     15 O                    -0.286696
     16 C                    -0.051489
     17 C                    -0.202194
     18 H                     0.251401
     19 H                     0.211782
     20 H                     0.203205
     21 H                     0.228398
     22 H                     0.228611
     23 H                     0.202080
     24 H                     0.226321
  ----------------------------------------
  Sum of atomic charges =     0.000000

                    Cartesian Multipole Moments
 -----------------------------------------------------------------
    Charge (ESU x 10^10)
                -0.0000
    Dipole Moment (Debye)
         X      -2.3582      Y       0.6837      Z      -0.0006
       Tot       2.4553
    Quadrupole Moments (Debye-Ang)
        XX     -82.0146     XY      10.2424     YY    -114.6284
        XZ       0.0012     YZ       0.0002     ZZ    -106.0817

 Total job time:  52.06s(wall), 398.34s(cpu)
        *  Thank you very much for using Q-Chem.  Have a nice day.  *
