 Gaussian 16, Revision A.03,
 Gaussian 16:  ES64L-G16RevA.03 25-Dec-2016

 ----------------------------------------------------------------
 #P UB3LYP/6-311++G(d,p) SCRF=(PCM,Solvent=n,n-DiMethylFormamide)
 ----------------------------------------------------------------

 ------------------
 Quinone PCM in DMF
 ------------------
 Symbolic Z-matrix:
 Charge =  0 Multiplicity = 1

                         Standard orientation:
 ---------------------------------------------------------------------
 Center     Atomic      Atomic             Coordinates (Angstroms)
 Number     Number       Type             X           Y           Z
 ---------------------------------------------------------------------
      1          6           0       -5.196807   -0.524661   -1.117906
      2          6           0       -5.730991   -1.793876   -0.920783
      3          6           0       -5.069978   -2.714703   -0.103816
      4          6           0       -3.996464   -0.169536   -0.497532
      5          6           0       -3.334244   -1.092848    0.322726
      6          6           0       -3.874889   -2.366250    0.516985
      7          6           0       -3.424475    1.189408   -0.714021
      8          6           0       -2.132214    1.538075   -0.043906
      9          6           0       -1.506644    0.651764    0.769326
     10          6           0       -2.056056   -0.719493    0.990630
     11          8           0       -3.997856    2.003475   -1.421973
     12          8           0       -1.464710   -1.516390    1.704652
     13          1           0       -6.662379   -2.068578   -1.402803
     14          1           0       -5.489050   -3.703055    0.047321
     15          6           0       -1.594556    2.916418   -0.316217
     16          1           0       -5.692251    0.204089   -1.747353
     17          1           0       -3.346058   -3.063838    1.154574
     18          1           0       -1.707354    3.558166    0.564740
     19          1           0       -2.141752    3.379510   -1.135314
     20          1           0       -0.531962    2.879161   -0.563713
     21          6           0       -0.205397    0.961818    1.479143
     22          6           0        0.996801    0.598069    0.635086
     23          6           0        2.075814    1.344713    0.362196
     24          6           0        3.193457    0.771166   -0.485333
     25          6           0        2.293546    2.752998    0.858960
     26          6           0        4.512184    0.521756    0.288736
     27          6           0        5.602455   -0.006334   -0.602092
     28          6           0        6.215573   -1.196711   -0.557194
     29          6           0        5.922906   -2.280907    0.449370
     30          6           0        7.293669   -1.548747   -1.553568
     31          1           0       -0.177783    0.366958    2.396989
     32          1           0       -0.184839    2.012810    1.767341
     33          1           0        0.965526   -0.410738    0.229339
     34          1           0        3.403142    1.456221   -1.318037
     35          1           0        2.868211   -0.172670   -0.931499
     36          1           0        1.413175    3.179900    1.339335
     37          1           0        2.580114    3.411608    0.031324
     38          1           0        3.111393    2.792035    1.586477
     39          1           0        4.308514   -0.156111    1.120730
     40          1           0        4.850444    1.465474    0.733831
     41          1           0        5.912375    0.680901   -1.389532
     42          1           0        5.128914   -2.020268    1.148385
     43          1           0        6.821491   -2.516399    1.031943
     44          1           0        5.632173   -3.206974   -0.060195
     45          1           0        7.472321   -0.737897   -2.262617
     46          1           0        7.024639   -2.447098   -2.121911
     47          1           0        8.239387   -1.772596   -1.045516
 ---------------------------------------------------------------------

 SCF Done:  E(UB3LYP) =  -965.385763318     A.U. after   16 cycles

 The electronic state is 1-A.
 Alpha  occ. eigenvalues --  -19.13479 -19.13438 -10.28279 -10.28236 -10.21499
 Alpha  occ. eigenvalues --  -10.21238 -10.20756 -10.20702 -10.19876 -10.19840
 Alpha  occ. eigenvalues --  -10.19800 -10.19784 -10.18320 -10.18159 -10.17745
 Alpha  occ. eigenvalues --  -10.17301 -10.17042 -10.17002 -10.16926 -10.16521
 Alpha  occ. eigenvalues --  -10.16194 -10.16120 -10.16088  -1.06871  -1.06679
 Alpha  occ. eigenvalues --   -0.89103  -0.85604  -0.82839  -0.81162  -0.78962
 Alpha  occ. eigenvalues --   -0.77858  -0.76682  -0.74351  -0.71177  -0.69257
 Alpha  occ. eigenvalues --   -0.68855  -0.68109  -0.66204  -0.63313  -0.61784
 Alpha  occ. eigenvalues --   -0.60096  -0.58496  -0.55268  -0.52637  -0.52133
 Alpha  occ. eigenvalues --   -0.51706  -0.50119  -0.48372  -0.47510  -0.46403
 Alpha  occ. eigenvalues --   -0.46217  -0.46070  -0.45662  -0.45230  -0.44351
 Alpha  occ. eigenvalues --   -0.43532  -0.43268  -0.42662  -0.42238  -0.41789
 Alpha  occ. eigenvalues --   -0.41196  -0.41013  -0.40452  -0.39541  -0.38814
 Alpha  occ. eigenvalues --   -0.38508  -0.37911  -0.37701  -0.37378  -0.37158
 Alpha  occ. eigenvalues --   -0.36906  -0.36732  -0.35810  -0.35051  -0.33424
 Alpha  occ. eigenvalues --   -0.32353  -0.29213  -0.29079  -0.27931  -0.27737
 Alpha  occ. eigenvalues --   -0.27281  -0.25011  -0.23454
 Alpha virt. eigenvalues --   -0.12444  -0.05670  -0.03194  -0.01077  -0.00424
 Alpha virt. eigenvalues --    0.00006   0.00352   0.00740   0.00902   0.01194
 Alpha virt. eigenvalues --    0.01719   0.01881   0.02352   0.02645   0.03073

  Beta  occ. eigenvalues --  -19.13479 -19.13438 -10.28279 -10.28236 -10.21499
  Beta  occ. eigenvalues --  -10.21238 -10.20756 -10.20702 -10.19876 -10.19840
  Beta  occ. eigenvalues --  -10.19800 -10.19784 -10.18320 -10.18159 -10.17745
  Beta  occ. eigenvalues --  -10.17301 -10.17042 -10.17002 -10.16926 -10.16521
  Beta  occ. eigenvalues --  -10.16194 -10.16120 -10.16088  -1.06871  -1.06679
  Beta  occ. eigenvalues --   -0.89103  -0.85604  -0.82839  -0.81162  -0.78962
  Beta  occ. eigenvalues --   -0.77858  -0.76682  -0.74351  -0.71177  -0.69257
  Beta  occ. eigenvalues --   -0.68855  -0.68109  -0.66204  -0.63313  -0.61784
  Beta  occ. eigenvalues --   -0.60096  -0.58496  -0.55268  -0.52637  -0.52133
  Beta  occ. eigenvalues --   -0.51706  -0.50119  -0.48372  -0.47510  -0.46403
  Beta  occ. eigenvalues --   -0.46217  -0.46070  -0.45662  -0.45230  -0.44351
  Beta  occ. eigenvalues --   -0.43532  -0.43268  -0.42662  -0.42238  -0.41789
  Beta  occ. eigenvalues --   -0.41196  -0.41013  -0.40452  -0.39541  -0.38814
  Beta  occ. eigenvalues --   -0.38508  -0.37911  -0.37701  -0.37378  -0.37158
  Beta  occ. eigenvalues --   -0.36906  -0.36732  -0.35810  -0.35051  -0.33424
  Beta  occ. eigenvalues --   -0.32353  -0.29213  -0.29079  -0.27931  -0.27737
  Beta  occ. eigenvalues --   -0.27281  -0.25011  -0.23454
  Beta virt. eigenvalues --   -0.12444  -0.05670  -0.03194  -0.01077  -0.00424
  Beta virt. eigenvalues --    0.00006   0.00352   0.00740   0.00902   0.01194
  Beta virt. eigenvalues --    0.01719   0.01881   0.02352   0.02645   0.03073

 Mulliken charges and spin densities:
               1          2
     1  C    0.177673   0.000000
     2  C   -0.470369   0.000000
     3  C   -0.412516  -0.000000
     4  C   -0.042029   0.000000
     5  C    0.271125   0.000000
     6  C    0.059395  -0.000000
     7  C   -0.966779  -0.000000
     8  C    0.858479   0.000000
     9  C    1.134616   0.000000
    10  C   -0.978636  -0.000000
    11  O   -0.273571   0.000000
    12  O   -0.256123  -0.000000
    13  H    0.203455   0.000000
    14  H    0.207176   0.000000
    15  C   -0.493612  -0.000000
    16  H    0.191442  -0.000000
    17  H    0.188954   0.000000
    18  H    0.215259   0.000000
    19  H    0.188224  -0.000000
    20  H    0.182217   0.000000
    21  C   -0.151839  -0.000000
    22  C   -1.036122   0.000000
    23  C    1.267596  -0.000000
    24  C   -0.820493  -0.000000
    25  C   -0.728635  -0.000000
    26  C   -0.295009  -0.000000
    27  C   -0.044904   0.000000
    28  C    0.352016  -0.000000
    29  C   -0.665080   0.000000
    30  C   -0.642417   0.000000
    31  H    0.235232  -0.000000
    32  H    0.190622   0.000000
    33  H    0.225887   0.000000
    34  H    0.162686   0.000000
    35  H    0.158117  -0.000000
    36  H    0.110664   0.000000
    37  H    0.179240   0.000000
    38  H    0.178602   0.000000
    39  H    0.132823  -0.000000
    40  H    0.138539  -0.000000
    41  H    0.183794  -0.000000
    42  H    0.136518   0.000000
    43  H    0.145985  -0.000000
    44  H    0.149806  -0.000000
    45  H    0.154168  -0.000000
    46  H    0.150985   0.000000
    47  H    0.146842  -0.000000
 Sum of Mulliken charges =  -0.00000   0.00000

 Dipole moment (field-independent basis, Debye):
    X=              0.1136    Y=             -0.3871    Z=              0.0490  Tot=              0.4064
 Quadrupole moment (field-independent basis, Debye-Ang):
   XX=           -125.8769   YY=           -132.5258   ZZ=           -144.9880
   XY=             15.8101   XZ=             -1.7309   YZ=              8.8834

 Normal termination of Gaussian 16 at Sun Jan 21 08:04:20 2024.
