 Gaussian 16, Revision A.03,
 Gaussian 16:  ES64L-G16RevA.03 25-Dec-2016

 --------------------------------------
 #P UB3LYP/6-311++G(d,p) nosym opt freq
 --------------------------------------

 --------
 Oxidized
 --------
 Symbolic Z-matrix:
 Charge =  0 Multiplicity = 1

 SCF Done:  E(UB3LYP) =  -965.376304000     A.U. after   15 cycles
 Optimization completed.
    -- Stationary point found.
 Normal termination of Gaussian 16 at Sun Jan  7 20:36:20 2024.

 ----------------------------------------------------------------------
 #P Geom=AllCheck Guess=TCheck SCRF=Check GenChk UB3LYP/6-311++G(d,p) F
 req
 ----------------------------------------------------------------------

 Structure from the checkpoint file:  "251.chk"
 --------
 Oxidized
 --------
 Charge =  0 Multiplicity = 1

                          Input orientation:
 ---------------------------------------------------------------------
 Center     Atomic      Atomic             Coordinates (Angstroms)
 Number     Number       Type             X           Y           Z
 ---------------------------------------------------------------------
      1          6           0        2.159969   -2.520873   -4.027412
      2          6           0        1.275617   -3.066917   -4.952007
      3          6           0       -0.043645   -2.611081   -5.015691
      4          6           0        1.728231   -1.514139   -3.160296
      5          6           0        0.405338   -1.056300   -3.225107
      6          6           0       -0.478744   -1.608384   -4.155261
      7          6           0        2.676738   -0.934109   -2.167991
      8          6           0        2.183018    0.136439   -1.245642
      9          6           0        0.909833    0.595281   -1.327474
     10          6           0       -0.060648    0.019776   -2.306318
     11          8           0        3.833741   -1.322000   -2.108401
     12          8           0       -1.213185    0.425344   -2.347964
     13          1           0        1.611530   -3.848247   -5.624297
     14          1           0       -0.730184   -3.039127   -5.737317
     15          6           0        3.180261    0.668557   -0.252961
     16          1           0        3.186360   -2.859715   -3.960688
     17          1           0       -1.496509   -1.239705   -4.187527
     18          1           0        3.501645    1.679038   -0.529168
     19          1           0        4.064732    0.034527   -0.230304
     20          1           0        2.745357    0.722137    0.746907
     21          6           0        0.367579    1.684624   -0.426081
     22          6           0       -0.222748    1.119433    0.847536
     23          6           0        0.000537    1.509382    2.110191
     24          6           0       -0.726689    0.824193    3.249509
     25          6           0        0.933123    2.625767    2.511960
     26          6           0       -1.765882    1.720516    3.968615
     27          6           0       -2.429449    1.011686    5.116824
     28          6           0       -3.718441    0.675222    5.259016
     29          6           0       -4.802643    0.966453    4.252042
     30          6           0       -4.196662   -0.047356    6.495207
     31          1           0       -0.423330    2.205808   -0.973705
     32          1           0        1.152643    2.409856   -0.212122
     33          1           0       -0.931816    0.310213    0.687269
     34          1           0        0.007054    0.479091    3.990583
     35          1           0       -1.236435   -0.067991    2.875556
     36          1           0        1.542041    2.994700    1.686631
     37          1           0        1.608477    2.293408    3.308391
     38          1           0        0.375921    3.479943    2.911444
     39          1           0       -2.496087    2.069849    3.235154
     40          1           0       -1.261774    2.615180    4.354083
     41          1           0       -1.752826    0.732681    5.924749
     42          1           0       -4.438708    1.469583    3.356838
     43          1           0       -5.582527    1.594616    4.698690
     44          1           0       -5.293745    0.037390    3.939884
     45          1           0       -3.380983   -0.238533    7.195396
     46          1           0       -4.656403   -1.008264    6.234977
     47          1           0       -4.965346    0.535026    7.017281
 ---------------------------------------------------------------------

 SCF Done:  E(UB3LYP) =  -965.376304000     A.U. after    1 cycles

 Alpha  occ. eigenvalues --  -19.12826 -19.12805 -10.27694 -10.27672 -10.21340
 Alpha  occ. eigenvalues --  -10.21084 -10.20635 -10.20582 -10.20091 -10.20038
 Alpha  occ. eigenvalues --  -10.19796 -10.19790 -10.18403 -10.18223 -10.17722
 Alpha  occ. eigenvalues --  -10.17468 -10.17180 -10.17129 -10.17111 -10.17100
 Alpha  occ. eigenvalues --  -10.16401 -10.16301 -10.16114  -1.06182  -1.05983
 Alpha  occ. eigenvalues --   -0.89029  -0.85549  -0.82942  -0.81214  -0.79011
 Alpha  occ. eigenvalues --   -0.77798  -0.76735  -0.74478  -0.71284  -0.69404
 Alpha  occ. eigenvalues --   -0.69098  -0.68005  -0.66252  -0.63364  -0.61790
 Alpha  occ. eigenvalues --   -0.60151  -0.58330  -0.55103  -0.52782  -0.52145
 Alpha  occ. eigenvalues --   -0.51814  -0.49775  -0.48579  -0.47650  -0.46462
 Alpha  occ. eigenvalues --   -0.46077  -0.45463  -0.45301  -0.45060  -0.44469
 Alpha  occ. eigenvalues --   -0.43581  -0.43383  -0.42553  -0.42329  -0.41813
 Alpha  occ. eigenvalues --   -0.41282  -0.40934  -0.40506  -0.39724  -0.38852
 Alpha  occ. eigenvalues --   -0.38684  -0.38112  -0.37727  -0.37528  -0.37248
 Alpha  occ. eigenvalues --   -0.36883  -0.36842  -0.35909  -0.35198  -0.33634
 Alpha  occ. eigenvalues --   -0.32472  -0.28941  -0.28368  -0.27828  -0.27494
 Alpha  occ. eigenvalues --   -0.26977  -0.24969  -0.23405
 Alpha virt. eigenvalues --   -0.12021  -0.05552  -0.03238  -0.01337  -0.00746
 Alpha virt. eigenvalues --   -0.00510   0.00207   0.00634   0.00699   0.01054
 Alpha virt. eigenvalues --    0.01456   0.01778   0.02099   0.02820   0.03067

  Beta  occ. eigenvalues --  -19.12826 -19.12805 -10.27694 -10.27672 -10.21340
  Beta  occ. eigenvalues --  -10.21084 -10.20635 -10.20582 -10.20091 -10.20038
  Beta  occ. eigenvalues --  -10.19796 -10.19790 -10.18403 -10.18223 -10.17722
  Beta  occ. eigenvalues --  -10.17468 -10.17180 -10.17129 -10.17111 -10.17100
  Beta  occ. eigenvalues --  -10.16401 -10.16301 -10.16114  -1.06182  -1.05983
  Beta  occ. eigenvalues --   -0.89029  -0.85549  -0.82942  -0.81214  -0.79011
  Beta  occ. eigenvalues --   -0.77798  -0.76735  -0.74478  -0.71284  -0.69404
  Beta  occ. eigenvalues --   -0.69098  -0.68005  -0.66252  -0.63364  -0.61790
  Beta  occ. eigenvalues --   -0.60151  -0.58330  -0.55103  -0.52782  -0.52145
  Beta  occ. eigenvalues --   -0.51814  -0.49775  -0.48579  -0.47650  -0.46462
  Beta  occ. eigenvalues --   -0.46077  -0.45463  -0.45301  -0.45060  -0.44469
  Beta  occ. eigenvalues --   -0.43581  -0.43383  -0.42553  -0.42329  -0.41813
  Beta  occ. eigenvalues --   -0.41282  -0.40934  -0.40506  -0.39724  -0.38852
  Beta  occ. eigenvalues --   -0.38684  -0.38112  -0.37727  -0.37528  -0.37248
  Beta  occ. eigenvalues --   -0.36883  -0.36842  -0.35909  -0.35198  -0.33634
  Beta  occ. eigenvalues --   -0.32472  -0.28941  -0.28368  -0.27828  -0.27494
  Beta  occ. eigenvalues --   -0.26977  -0.24969  -0.23405
  Beta virt. eigenvalues --   -0.12021  -0.05552  -0.03238  -0.01337  -0.00746
  Beta virt. eigenvalues --   -0.00510   0.00207   0.00634   0.00699   0.01054
  Beta virt. eigenvalues --    0.01456   0.01778   0.02099   0.02820   0.03067

 Mulliken charges and spin densities:
               1          2
     1  C    0.145619   0.000000
     2  C   -0.407393   0.000000
     3  C   -0.350997  -0.000000
     4  C    0.012280   0.000000
     5  C    0.298189  -0.000000
     6  C    0.028277   0.000000
     7  C   -1.052700  -0.000000
     8  C    0.861942   0.000000
     9  C    1.132694   0.000000
    10  C   -1.075870  -0.000000
    11  O   -0.215423   0.000000
    12  O   -0.194847   0.000000
    13  H    0.172606   0.000000
    14  H    0.176137  -0.000000
    15  C   -0.498047  -0.000000
    16  H    0.189358  -0.000000
    17  H    0.187124  -0.000000
    18  H    0.193986  -0.000000
    19  H    0.201436   0.000000
    20  H    0.175076   0.000000
    21  C   -0.150504   0.000000
    22  C   -1.035649  -0.000000
    23  C    1.284804   0.000000
    24  C   -0.795872  -0.000000
    25  C   -0.701917   0.000000
    26  C   -0.324591   0.000000
    27  C    0.049942  -0.000000
    28  C    0.334489  -0.000000
    29  C   -0.644751  -0.000000
    30  C   -0.629179   0.000000
    31  H    0.245420  -0.000000
    32  H    0.163787   0.000000
    33  H    0.216689  -0.000000
    34  H    0.151558   0.000000
    35  H    0.153837   0.000000
    36  H    0.100526  -0.000000
    37  H    0.169288   0.000000
    38  H    0.171821  -0.000000
    39  H    0.128526  -0.000000
    40  H    0.127478   0.000000
    41  H    0.166047   0.000000
    42  H    0.130005   0.000000
    43  H    0.137634   0.000000
    44  H    0.141528   0.000000
    45  H    0.148073  -0.000000
    46  H    0.143386   0.000000
    47  H    0.138175   0.000000
 Sum of Mulliken charges =  -0.00000  -0.00000

 Dipole moment (field-independent basis, Debye):
    X=             -0.4778    Y=             -0.0894    Z=              0.0823  Tot=              0.4930
 Quadrupole moment (field-independent basis, Debye-Ang):
   XX=           -147.6416   YY=           -133.6873   ZZ=           -127.1607
   XY=              6.7628   XZ=              0.7798   YZ=             10.0047

  Exact polarizability: 286.687  -8.538 218.397 -17.750  60.269 291.635
 Approx polarizability: 492.068 -36.553 337.286  21.150  67.044 372.303

                      1                      2                      3
                      A                      A                      A
 Frequencies --     13.3675                14.9148                23.9815
 Red. masses --      3.5960                 4.1044                 4.7799
 Frc consts  --      0.0004                 0.0005                 0.0016
 IR Inten    --      0.0236                 0.0793                 0.3708

                      4                      5                      6
                      A                      A                      A
 Frequencies --     35.7080                38.2317                55.4229
 Red. masses --      3.5376                 3.2726                 5.5391
 Frc consts  --      0.0027                 0.0028                 0.0100
 IR Inten    --      0.7052                 0.0811                 5.1809

                      7                      8                      9
                      A                      A                      A
 Frequencies --     63.5914                74.9314                94.5940
 Red. masses --      2.5015                 2.2020                 1.2691
 Frc consts  --      0.0060                 0.0073                 0.0067
 IR Inten    --      0.2306                 0.9182                 0.5991

                     10                     11                     12
                      A                      A                      A
 Frequencies --    106.6670               116.8983               128.7662
 Red. masses --      2.7546                 5.0424                 1.3684
 Frc consts  --      0.0185                 0.0406                 0.0134
 IR Inten    --      0.2352                 0.0098                 0.1772

                     13                     14                     15
                      A                      A                      A
 Frequencies --    141.2555               167.9030               173.8457
 Red. masses --      1.0971                 3.4567                 2.7339
 Frc consts  --      0.0129                 0.0574                 0.0487
 IR Inten    --      0.0641                 0.2188                 0.3994

                     16                     17                     18
                      A                      A                      A
 Frequencies --    199.9479               212.3723               259.5710
 Red. masses --      1.2804                 3.0280                 4.1682
 Frc consts  --      0.0302                 0.0805                 0.1655
 IR Inten    --      0.3715                 0.2247                 0.8292

                     19                     20                     21
                      A                      A                      A
 Frequencies --    264.8796               287.6681               310.5867
 Red. masses --      3.7603                 2.5022                 3.3287
 Frc consts  --      0.1554                 0.1220                 0.1892
 IR Inten    --      0.8406                 0.1519                 0.4109

                     22                     23                     24
                      A                      A                      A
 Frequencies --    332.8409               348.1787               360.4485
 Red. masses --      2.8902                 2.7617                 2.8850
 Frc consts  --      0.1886                 0.1973                 0.2208
 IR Inten    --      2.1886                 0.3048                 0.3303

                     25                     26                     27
                      A                      A                      A
 Frequencies --    392.2927               399.6685               405.2740
 Red. masses --      7.3000                 2.4168                 3.2470
 Frc consts  --      0.6619                 0.2275                 0.3142
 IR Inten    --      7.3859                 1.3282                 2.1809

                     28                     29                     30
                      A                      A                      A
 Frequencies --    419.2170               429.5889               434.0998
 Red. masses --      5.6368                 3.4032                 3.9391
 Frc consts  --      0.5837                 0.3700                 0.4373
 IR Inten    --      3.1595                 0.4735                25.8239

                     31                     32                     33
                      A                      A                      A
 Frequencies --    460.9340               474.3263               493.2431
 Red. masses --      2.7709                 4.1806                 2.6892
 Frc consts  --      0.3469                 0.5542                 0.3855
 IR Inten    --      1.3628                 2.9326                 0.9108

                     34                     35                     36
                      A                      A                      A
 Frequencies --    506.7900               534.9587               569.4758
 Red. masses --      5.2460                 3.2603                 4.1978
 Frc consts  --      0.7938                 0.5497                 0.8021
 IR Inten    --      0.4102                 8.1541                 1.0616

                     37                     38                     39
                      A                      A                      A
 Frequencies --    588.0993               649.8108               676.9219
 Red. masses --      2.7270                 5.2634                 5.3375
 Frc consts  --      0.5557                 1.3094                 1.4410
 IR Inten    --      7.7244                16.6865                 2.1874

                     40                     41                     42
                      A                      A                      A
 Frequencies --    685.9552               704.8240               730.1675
 Red. masses --      4.2602                 4.1602                 2.7889
 Frc consts  --      1.1811                 1.2177                 0.8760
 IR Inten    --      0.8712                10.7941                51.2045

                     43                     44                     45
                      A                      A                      A
 Frequencies --    756.6246               779.1720               798.4821
 Red. masses --      1.5507                 2.0865                 2.4068
 Frc consts  --      0.5230                 0.7463                 0.9041
 IR Inten    --      3.9808                 4.2547                11.7273

                     46                     47                     48
                      A                      A                      A
 Frequencies --    809.7464               810.7132               821.6869
 Red. masses --      2.4325                 2.4619                 3.0325
 Frc consts  --      0.9397                 0.9534                 1.2063
 IR Inten    --      2.4466                 2.1776                 1.2925

                     49                     50                     51
                      A                      A                      A
 Frequencies --    857.1318               879.7087               914.7021
 Red. masses --      1.4532                 2.0721                 1.5008
 Frc consts  --      0.6290                 0.9448                 0.7398
 IR Inten    --      6.8410                15.2408                 2.5115

                     52                     53                     54
                      A                      A                      A
 Frequencies --    916.3215               959.2717               961.3140
 Red. masses --      2.1921                 1.4568                 3.1955
 Frc consts  --      1.0845                 0.7898                 1.7399
 IR Inten    --      9.7257                 0.6066                16.8685

                     55                     56                     57
                      A                      A                      A
 Frequencies --    972.4951               979.2282              1000.1589
 Red. masses --      1.8035                 3.0039                 1.3811
 Frc consts  --      1.0050                 1.6971                 0.8140
 IR Inten    --      1.4134                69.8375                 1.8228

                     58                     59                     60
                      A                      A                      A
 Frequencies --   1004.7061              1013.5126              1016.4307
 Red. masses --      2.8855                 1.2964                 1.3207
 Frc consts  --      1.7161                 0.7846                 0.8039
 IR Inten    --     13.5912                 0.3405                 0.0021

                     61                     62                     63
                      A                      A                      A
 Frequencies --   1021.5576              1036.5039              1046.9298
 Red. masses --      1.8357                 1.7897                 1.6557
 Frc consts  --      1.1287                 1.1329                 1.0692
 IR Inten    --     19.9573                 2.4114                 4.2799

                     64                     65                     66
                      A                      A                      A
 Frequencies --   1053.4802              1063.1625              1084.2755
 Red. masses --      2.0636                 1.7855                 1.9432
 Frc consts  --      1.3493                 1.1891                 1.3460
 IR Inten    --      0.8947                 3.1846                 3.4150

                     67                     68                     69
                      A                      A                      A
 Frequencies --   1099.9351              1101.3284              1113.5177
 Red. masses --      2.1412                 1.7129                 2.1995
 Frc consts  --      1.5263                 1.2241                 1.6069
 IR Inten    --     25.0785                 3.7752                 3.0875

                     70                     71                     72
                      A                      A                      A
 Frequencies --   1129.9307              1150.1696              1171.4194
 Red. masses --      2.0516                 2.6876                 1.4900
 Frc consts  --      1.5433                 2.0948                 1.2046
 IR Inten    --      9.2125                 5.1006                17.8310

                     73                     74                     75
                      A                      A                      A
 Frequencies --   1183.2191              1192.2759              1214.6667
 Red. masses --      1.1854                 1.9990                 2.3296
 Frc consts  --      0.9778                 1.6742                 2.0251
 IR Inten    --      4.3831                12.2273                 7.9168

                     76                     77                     78
                      A                      A                      A
 Frequencies --   1244.3735              1257.9181              1281.0558
 Red. masses --      1.8638                 1.5089                 1.6576
 Frc consts  --      1.7004                 1.4067                 1.6027
 IR Inten    --      0.8695                15.4665                16.4948

                     79                     80                     81
                      A                      A                      A
 Frequencies --   1284.4856              1303.2786              1310.5557
 Red. masses --      1.4108                 5.1674                 1.2234
 Frc consts  --      1.3714                 5.1712                 1.2380
 IR Inten    --      8.2673               371.2531                10.0508

                     82                     83                     84
                      A                      A                      A
 Frequencies --   1318.2982              1341.1474              1358.5862
 Red. masses --      1.4169                 2.7004                 1.4464
 Frc consts  --      1.4509                 2.8617                 1.5729
 IR Inten    --      4.0716                23.3452                 3.9857

                     85                     86                     87
                      A                      A                      A
 Frequencies --   1360.5776              1383.8594              1391.2604
 Red. masses --      7.1356                 1.3252                 1.2617
 Frc consts  --      7.7827                 1.4953                 1.4388
 IR Inten    --     12.0553                 5.0570                 1.7622

                     88                     89                     90
                      A                      A                      A
 Frequencies --   1404.5342              1409.9847              1418.1879
 Red. masses --      1.2571                 1.3630                 1.3346
 Frc consts  --      1.4611                 1.5965                 1.5815
 IR Inten    --     16.5623                 8.9701                 9.8533

                     91                     92                     93
                      A                      A                      A
 Frequencies --   1420.2942              1471.0961              1472.3176
 Red. masses --      1.2608                 1.1463                 1.0493
 Frc consts  --      1.4985                 1.4616                 1.3402
 IR Inten    --      3.0014                22.5199                 0.1072

                     94                     95                     96
                      A                      A                      A
 Frequencies --   1475.3066              1481.0466              1483.2454
 Red. masses --      1.0737                 1.2685                 1.3019
 Frc consts  --      1.3769                 1.6394                 1.6875
 IR Inten    --      2.7362                 4.4637                 3.8752

                     97                     98                     99
                      A                      A                      A
 Frequencies --   1486.5079              1491.8706              1492.3131
 Red. masses --      1.2837                 1.0448                 1.0654
 Frc consts  --      1.6713                 1.3701                 1.3980
 IR Inten    --      8.5321                18.9131                 3.5101

                    100                    101                    102
                      A                      A                      A
 Frequencies --   1495.1675              1495.7646              1498.0284
 Red. masses --      1.0560                 1.0814                 1.0659
 Frc consts  --      1.3909                 1.4255                 1.4093
 IR Inten    --     11.8394                 6.8855                 3.5613

                    103                    104                    105
                      A                      A                      A
 Frequencies --   1502.9693              1508.4466              1615.4878
 Red. masses --      1.0899                 2.6131                 6.9621
 Frc consts  --      1.4506                 3.5032                10.7052
 IR Inten    --      7.7570                 3.4359                 3.0838

                    106                    107                    108
                      A                      A                      A
 Frequencies --   1628.8564              1658.6726              1706.0198
 Red. masses --      5.8932                 8.7187                12.0019
 Frc consts  --      9.2122                14.1327                20.5811
 IR Inten    --     68.6423                51.7151                21.9665

                    109                    110                    111
                      A                      A                      A
 Frequencies --   1711.1212              1712.4127              1726.8893
 Red. masses --      8.2495                 9.0305                 6.3517
 Frc consts  --     14.2311                15.6020                11.1601
 IR Inten    --    159.3682               214.6714                 2.6283

                    112                    113                    114
                      A                      A                      A
 Frequencies --   2995.3719              3002.8313              3009.4211
 Red. masses --      1.0669                 1.0385                 1.0604
 Frc consts  --      5.6398                 5.5172                 5.6581
 IR Inten    --     22.7612                33.6347                36.0033

                    115                    116                    117
                      A                      A                      A
 Frequencies --   3011.1821              3018.0629              3026.1517
 Red. masses --      1.0474                 1.0435                 1.0465
 Frc consts  --      5.5953                 5.6002                 5.6465
 IR Inten    --     38.8891                38.4456                11.1712

                    118                    119                    120
                      A                      A                      A
 Frequencies --   3043.4074              3045.3658              3047.2831
 Red. masses --      1.0993                 1.0644                 1.0987
 Frc consts  --      5.9992                 5.8159                 6.0110
 IR Inten    --      9.7410                 9.3735                35.9932

                    121                    122                    123
                      A                      A                      A
 Frequencies --   3057.1321              3059.7228              3077.2995
 Red. masses --      1.0974                 1.0898                 1.0958
 Frc consts  --      6.0426                 6.0111                 6.1140
 IR Inten    --     21.9876                11.6731                16.4646

                    124                    125                    126
                      A                      A                      A
 Frequencies --   3087.7786              3095.0304              3100.9399
 Red. masses --      1.0905                 1.0980                 1.0963
 Frc consts  --      6.1260                 6.1967                 6.2111
 IR Inten    --      6.1283                 6.9759                 4.7761

                    127                    128                    129
                      A                      A                      A
 Frequencies --   3104.5426              3115.0981              3120.4900
 Red. masses --      1.0889                 1.0938                 1.0943
 Frc consts  --      6.1837                 6.2536                 6.2779
 IR Inten    --     51.1811                30.7268                31.9761

                    130                    131                    132
                      A                      A                      A
 Frequencies --   3131.2637              3141.1703              3169.6782
 Red. masses --      1.0884                 1.0993                 1.0869
 Frc consts  --      6.2876                 6.3906                 6.4341
 IR Inten    --     18.2367                 2.4414                 3.4006

                    133                    134                    135
                      A                      A                      A
 Frequencies --   3184.1315              3199.9688              3202.5242
 Red. masses --      1.0918                 1.0925                 1.0949
 Frc consts  --      6.5221                 6.5913                 6.6161
 IR Inten    --     10.9473                 0.5425                10.9728

 - Thermochemistry -
 -------------------
 Temperature   298.150 Kelvin.  Pressure   1.00000 Atm.
 Atom     1 has atomic number  6 and mass  12.00000

 Molecular mass:   308.17763 amu.
 Principal axes and moments of inertia in atomic units:
                           1         2         3
     Eigenvalues --  3972.29376********************
           X           -0.44786   0.84651  -0.28782
           Y            0.26872   0.43447   0.85967
           Z            0.85276   0.30767  -0.42206
 This molecule is an asymmetric top.
 Rotational symmetry number  1.
 Warning -- assumption of classical behavior for rotation
           may cause significant error
 Rotational temperatures (Kelvin)      0.02180     0.00458     0.00412
 Rotational constants (GHZ):           0.45433     0.09534     0.08587
 Zero-point vibrational energy    1034433.5 (Joules/Mol)
                                  247.23555 (Kcal/Mol)
 Warning -- explicit consideration of  37 degrees of freedom as
           vibrations may cause significant error
 Vibrational temperatures:     19.23    21.46    34.50    51.38    55.01
          (Kelvin)             79.74    91.49   107.81   136.10   153.47
                              168.19   185.27   203.24   241.57   250.13
                              287.68   305.56   373.46   381.10   413.89
                              446.87   478.88   500.95   518.61   564.42
                              575.03   583.10   603.16   618.08   624.57
                              663.18   682.45   709.67   729.16   769.69
                              819.35   846.14   934.93   973.94   986.94
                             1014.08  1050.55  1088.61  1121.05  1148.84
                             1165.04  1166.44  1182.22  1233.22  1265.70
                             1316.05  1318.38  1380.18  1383.12  1399.20
                             1408.89  1439.01  1445.55  1458.22  1462.42
                             1469.79  1491.30  1506.30  1515.72  1529.65
                             1560.03  1582.56  1584.57  1602.10  1625.72
                             1654.84  1685.41  1702.39  1715.42  1747.63
                             1790.38  1809.86  1843.15  1848.09  1875.13
                             1885.60  1896.74  1929.61  1954.70  1957.57
                             1991.06  2001.71  2020.81  2028.65  2040.46
                             2043.49  2116.58  2118.34  2122.64  2130.90
                             2134.06  2138.75  2146.47  2147.11  2151.21
                             2152.07  2155.33  2162.44  2170.32  2324.33
                             2343.56  2386.46  2454.58  2461.92  2463.78
                             2484.61  4309.67  4320.40  4329.89  4332.42
                             4342.32  4353.96  4378.78  4381.60  4384.36
                             4398.53  4402.26  4427.55  4442.62  4453.06
                             4461.56  4466.74  4481.93  4489.69  4505.19
                             4519.44  4560.46  4581.26  4604.04  4607.72

 Zero-point correction=                           0.393995 (Hartree/Particle)
 Thermal correction to Energy=                    0.417861
 Thermal correction to Enthalpy=                  0.418805
 Thermal correction to Gibbs Free Energy=         0.336327
 Sum of electronic and zero-point Energies=           -964.982309
 Sum of electronic and thermal Energies=              -964.958443
 Sum of electronic and thermal Enthalpies=            -964.957499
 Sum of electronic and thermal Free Energies=         -965.039977

                     E (Thermal)             CV                S
                      KCal/Mol        Cal/Mol-Kelvin    Cal/Mol-Kelvin
 Total                  262.212             88.452            173.590
 Electronic               0.000              0.000              0.000
 Translational            0.889              2.981             43.073
 Rotational               0.889              2.981             35.712
 Vibrational            260.434             82.490             94.805
 Vibration     1          0.593              1.987              7.434
 Vibration     2          0.593              1.986              7.217
 Vibration     3          0.593              1.985              6.274
 Vibration     4          0.594              1.982              5.484
 Vibration     5          0.594              1.982              5.349
 Vibration     6          0.596              1.975              4.614
 Vibration     7          0.597              1.972              4.343
 Vibration     8          0.599              1.966              4.019
 Vibration     9          0.603              1.953              3.563
 Vibration    10          0.606              1.944              3.329
 Vibration    11          0.608              1.935              3.151
 Vibration    12          0.611              1.924              2.964
 Vibration    13          0.615              1.912              2.787
 Vibration    14          0.625              1.882              2.459
 Vibration    15          0.627              1.875              2.393
 Vibration    16          0.638              1.840              2.134
 Vibration    17          0.643              1.822              2.023
 Vibration    18          0.668              1.747              1.665
 Vibration    19          0.671              1.737              1.629
 Vibration    20          0.685              1.697              1.488
 Vibration    21          0.699              1.654              1.359
 Vibration    22          0.715              1.610              1.246
 Vibration    23          0.726              1.579              1.174
 Vibration    24          0.735              1.554              1.120
 Vibration    25          0.760              1.487              0.991
 Vibration    26          0.766              1.471              0.964
 Vibration    27          0.770              1.459              0.943
 Vibration    28          0.782              1.428              0.895
 Vibration    29          0.791              1.406              0.860
 Vibration    30          0.795              1.396              0.845
 Vibration    31          0.819              1.337              0.763
 Vibration    32          0.831              1.307              0.726
 Vibration    33          0.849              1.265              0.675
 Vibration    34          0.862              1.235              0.641
 Vibration    35          0.890              1.173              0.576
 Vibration    36          0.926              1.097              0.505
 Vibration    37          0.945              1.057              0.471

                           ! Non-Optimized Parameters !
 Normal termination of Gaussian 16 at Mon Jan  8 03:22:42 2024.
