 Gaussian 16, Revision A.03,
 Gaussian 16:  ES64L-G16RevA.03 25-Dec-2016

 ----------------------------------------------------------------------
 #P UB3LYP/6-311++G(d,p) nosym opt freq SCRF=(PCM,Solvent=n,n-DiMethylF
 ormamide)
 ----------------------------------------------------------------------

 -------
 Radical
 -------
 Symbolic Z-matrix:
 Charge = -3 Multiplicity = 2

 SCF Done:  E(UB3LYP) =  -1935.98692386     A.U. after   18 cycles
 SCF Done:  E(UB3LYP) =  -1935.98837799     A.U. after   15 cycles
 SCF Done:  E(UB3LYP) =  -1935.98865314     A.U. after   14 cycles
 SCF Done:  E(UB3LYP) =  -1935.98753544     A.U. after   15 cycles
 SCF Done:  E(UB3LYP) =  -1935.98883911     A.U. after   14 cycles
 SCF Done:  E(UB3LYP) =  -1935.98888857     A.U. after   15 cycles
 SCF Done:  E(UB3LYP) =  -1935.98892503     A.U. after   14 cycles
 SCF Done:  E(UB3LYP) =  -1935.98900266     A.U. after   14 cycles
 SCF Done:  E(UB3LYP) =  -1935.98903623     A.U. after   13 cycles
 SCF Done:  E(UB3LYP) =  -1935.98904656     A.U. after   14 cycles
 SCF Done:  E(UB3LYP) =  -1935.98906719     A.U. after   12 cycles
 SCF Done:  E(UB3LYP) =  -1935.98906746     A.U. after   10 cycles
 SCF Done:  E(UB3LYP) =  -1935.98906751     A.U. after    9 cycles
 SCF Done:  E(UB3LYP) =  -1935.98906762     A.U. after   10 cycles
 SCF Done:  E(UB3LYP) =  -1935.98906764     A.U. after    9 cycles
 SCF Done:  E(UB3LYP) =  -1935.98906766     A.U. after   10 cycles
 SCF Done:  E(UB3LYP) =  -1935.98906768     A.U. after   10 cycles
 SCF Done:  E(UB3LYP) =  -1935.98906769     A.U. after    9 cycles
 SCF Done:  E(UB3LYP) =  -1935.98906769     A.U. after    9 cycles
 Optimization completed.
    -- Stationary point found.
 Normal termination of Gaussian 16 at Sun Feb 11 01:52:05 2024.

 ----------------------------------------------------------------------
 #P Geom=AllCheck Guess=TCheck SCRF=Check GenChk UB3LYP/6-311++G(d,p) F
 req
 ----------------------------------------------------------------------

 Structure from the checkpoint file:  "224-rad.chk"
 -------
 Radical
 -------
 Charge = -3 Multiplicity = 2

                          Input orientation:
 ---------------------------------------------------------------------
 Center     Atomic      Atomic             Coordinates (Angstroms)
 Number     Number       Type             X           Y           Z
 ---------------------------------------------------------------------
      1          6           0        5.641268   -4.719324    0.890796
      2          6           0        6.683041   -4.581226    0.005243
      3          6           0        6.607580   -3.607203   -1.005763
      4          6           0        4.510005   -3.878309    0.825014
      5          6           0        4.436100   -2.851292   -0.169203
      6          6           0        5.518665   -2.760338   -1.110215
      7          6           0        3.450934   -4.137827    1.817188
      8          6           0        2.296500   -3.245364    1.833535
      9          6           0        2.222600   -2.218361    0.839313
     10          6           0        3.281801   -1.958676   -0.152677
     11          6           0        1.213824   -3.336458    2.774398
     12          6           0        0.124761   -2.489809    2.669738
     13          6           0        0.049317   -1.515794    1.658720
     14          6           0        1.091233   -1.377498    0.773368
     15          8           0        3.560426   -5.112868    2.599021
     16          8           0        3.172468   -0.983402   -0.934249
     17         16           0        1.107826   -4.470281    4.232383
     18          8           0       -0.142432   -4.039709    4.939709
     19          8           0        2.306465   -4.215734    5.080516
     20          8           0        0.969660   -5.866796    3.731274
     21         16           0        5.624820   -1.626313   -2.568042
     22          8           0        6.874833   -2.057219   -3.275599
     23          8           0        4.426013   -1.880163   -3.416104
     24          8           0        5.763584   -0.229974   -2.066554
     25          1           0        5.658798   -5.475391    1.664891
     26          1           0        7.554263   -5.223945    0.067673
     27          1           0        7.404853   -3.516487   -1.729419
     28          1           0       -0.672632   -2.580678    3.393240
     29          1           0       -0.822004   -0.873225    1.596129
     30          1           0        1.073728   -0.621405   -0.000701
 ---------------------------------------------------------------------

 SCF Done:  E(UB3LYP) =  -1935.98906769     A.U. after    1 cycles

 Alpha  occ. eigenvalues --  -89.03089 -89.03089 -19.07325 -19.07324 -19.07303
 Alpha  occ. eigenvalues --  -19.07303 -19.07093 -19.07093 -19.06568 -19.06567
 Alpha  occ. eigenvalues --  -10.21981 -10.21980 -10.19554 -10.19554 -10.18135
 Alpha  occ. eigenvalues --  -10.18134 -10.17254 -10.17253 -10.16969 -10.16968
 Alpha  occ. eigenvalues --  -10.16880 -10.16880 -10.16655 -10.16655  -8.08935
 Alpha  occ. eigenvalues --   -8.08935  -6.05208  -6.05208  -6.05195  -6.05194
 Alpha  occ. eigenvalues --   -6.05118  -6.05118  -1.08957  -1.08956  -0.99782
 Alpha  occ. eigenvalues --   -0.99514  -0.95494  -0.95493  -0.94880  -0.94877
 Alpha  occ. eigenvalues --   -0.86042  -0.85174  -0.78400  -0.75624  -0.75536
 Alpha  occ. eigenvalues --   -0.73850  -0.66811  -0.64688  -0.62105  -0.61707
 Alpha  occ. eigenvalues --   -0.59756  -0.55149  -0.53356  -0.52828  -0.51484
 Alpha  occ. eigenvalues --   -0.47862  -0.46841  -0.46604  -0.45834  -0.44879
 Alpha  occ. eigenvalues --   -0.44838  -0.43661  -0.43618  -0.43214  -0.43014
 Alpha  occ. eigenvalues --   -0.41875  -0.41010  -0.40202  -0.39952  -0.37605
 Alpha  occ. eigenvalues --   -0.37204  -0.36863  -0.36480  -0.35263  -0.34299
 Alpha  occ. eigenvalues --   -0.33917  -0.31921  -0.31888  -0.31417  -0.31262
 Alpha  occ. eigenvalues --   -0.29369  -0.28776  -0.28367  -0.28063  -0.27272
 Alpha  occ. eigenvalues --   -0.27257  -0.26464  -0.24869  -0.24818  -0.24756
 Alpha  occ. eigenvalues --   -0.23672  -0.23544  -0.23034  -0.22581  -0.13674
 Alpha virt. eigenvalues --   -0.05610  -0.02032  -0.01181   0.00360   0.01002
 Alpha virt. eigenvalues --    0.02028   0.02714   0.02989   0.04175   0.04409
 Alpha virt. eigenvalues --    0.04887   0.05252   0.05380   0.05475   0.05874

  Beta  occ. eigenvalues --  -89.03090 -89.03090 -19.07322 -19.07321 -19.07299
  Beta  occ. eigenvalues --  -19.07299 -19.07086 -19.07086 -19.05966 -19.05965
  Beta  occ. eigenvalues --  -10.21841 -10.21840 -10.19534 -10.19534 -10.18045
  Beta  occ. eigenvalues --  -10.18044 -10.17161 -10.17160 -10.16947 -10.16946
  Beta  occ. eigenvalues --  -10.16821 -10.16821 -10.16674 -10.16674  -8.08935
  Beta  occ. eigenvalues --   -8.08935  -6.05208  -6.05208  -6.05195  -6.05195
  Beta  occ. eigenvalues --   -6.05119  -6.05119  -1.08950  -1.08949  -0.98761
  Beta  occ. eigenvalues --   -0.98464  -0.95486  -0.95485  -0.94866  -0.94862
  Beta  occ. eigenvalues --   -0.85777  -0.85063  -0.77996  -0.75420  -0.75398
  Beta  occ. eigenvalues --   -0.73654  -0.66071  -0.64586  -0.62039  -0.61454
  Beta  occ. eigenvalues --   -0.59597  -0.55055  -0.53156  -0.52681  -0.51366
  Beta  occ. eigenvalues --   -0.47608  -0.46794  -0.46493  -0.45709  -0.44799
  Beta  occ. eigenvalues --   -0.44784  -0.43624  -0.43599  -0.43177  -0.42972
  Beta  occ. eigenvalues --   -0.40819  -0.40661  -0.39701  -0.39655  -0.37072
  Beta  occ. eigenvalues --   -0.36611  -0.36455  -0.35339  -0.35020  -0.34161
  Beta  occ. eigenvalues --   -0.32854  -0.31872  -0.31779  -0.31395  -0.31240
  Beta  occ. eigenvalues --   -0.29198  -0.28501  -0.28327  -0.28020  -0.27221
  Beta  occ. eigenvalues --   -0.27205  -0.24702  -0.24389  -0.24245  -0.24074
  Beta  occ. eigenvalues --   -0.23615  -0.23166  -0.22530  -0.22057
  Beta virt. eigenvalues --   -0.07662  -0.04762  -0.00978  -0.00961   0.00374
  Beta virt. eigenvalues --    0.01003   0.02035   0.02731   0.02993   0.04198
  Beta virt. eigenvalues --    0.04483   0.04893   0.05255   0.05426   0.05888

 Mulliken charges and spin densities:
               1          2
     1  C   -0.226801   0.007023
     2  C   -0.418023   0.050576
     3  C    0.311355   0.013643
     4  C    0.783319   0.048860
     5  C    0.331843   0.070253
     6  C   -1.029340   0.026114
     7  C   -0.856108   0.055855
     8  C    0.330476   0.070285
     9  C    0.783966   0.048909
    10  C   -0.857474   0.055856
    11  C   -1.029738   0.026144
    12  C    0.314384   0.013670
    13  C   -0.418422   0.050568
    14  C   -0.226892   0.007005
    15  O   -0.368435   0.226525
    16  O   -0.368366   0.226517
    17  S    0.660941   0.005011
    18  O   -0.419222   0.001012
    19  O   -0.444045   0.000104
    20  O   -0.416824   0.000570
    21  S    0.660826   0.005011
    22  O   -0.419242   0.001013
    23  O   -0.443940   0.000104
    24  O   -0.416821   0.000570
    25  H    0.161627  -0.000587
    26  H    0.195120  -0.003600
    27  H    0.234551  -0.001412
    28  H    0.234563  -0.001413
    29  H    0.195109  -0.003600
    30  H    0.161613  -0.000587
 Sum of Mulliken charges =  -3.00000   1.00000

 Dipole moment (field-independent basis, Debye):
    X=            -48.5086    Y=             43.9233    Z=            -11.9932  Tot=             66.5295
 Quadrupole moment (field-independent basis, Debye-Ang):
   XX=           -389.8674   YY=           -355.2540   ZZ=           -354.4581
   XY=             99.1118   XZ=             53.8455   YZ=            118.2997

  Exact polarizability: 464.937 -68.692 359.884-118.733-103.263 403.200
 Approx polarizability: 494.382 -84.479 421.652 -94.131-113.420 427.103

                      1                      2                      3
                      A                      A                      A
 Frequencies --     17.6506                34.5571                39.2265
 Red. masses --     10.0669                10.5836                10.9871
 Frc consts  --      0.0018                 0.0074                 0.0100
 IR Inten    --     13.9511                12.2413                 0.0017

                      4                      5                      6
                      A                      A                      A
 Frequencies --     99.1150               100.2145               113.9975
 Red. masses --     10.9447                 8.6145                11.3546
 Frc consts  --      0.0633                 0.0510                 0.0869
 IR Inten    --      0.0006                 0.3358                 9.7928

                      7                      8                      9
                      A                      A                      A
 Frequencies --    134.0408               141.9745               180.8022
 Red. masses --     15.7148                 6.0548                 7.1165
 Frc consts  --      0.1664                 0.0719                 0.1371
 IR Inten    --      0.0000                 0.3119                 0.0000

                     10                     11                     12
                      A                      A                      A
 Frequencies --    183.3089               220.9852               223.6767
 Red. masses --     10.1541                 5.8017                13.0651
 Frc consts  --      0.2010                 0.1669                 0.3851
 IR Inten    --      2.3461                 0.0000                 7.8989

                     13                     14                     15
                      A                      A                      A
 Frequencies --    244.5374               274.5348               291.6516
 Red. masses --     13.6953                12.6910                 7.0181
 Frc consts  --      0.4825                 0.5636                 0.3517
 IR Inten    --      0.0000                 0.0000                 0.7333

                     16                     17                     18
                      A                      A                      A
 Frequencies --    305.6343               330.0294               348.5093
 Red. masses --     11.9458                 8.1213                 6.3224
 Frc consts  --      0.6575                 0.5212                 0.4524
 IR Inten    --      3.2265                 0.0000                 0.0000

                     19                     20                     21
                      A                      A                      A
 Frequencies --    366.2362               395.1184               400.0634
 Red. masses --      6.9838                11.9565                 8.9901
 Frc consts  --      0.5519                 1.0998                 0.8478
 IR Inten    --     17.8787                46.1954                 0.0001

                     22                     23                     24
                      A                      A                      A
 Frequencies --    413.4410               466.5267               478.7924
 Red. masses --      6.5038                 9.5729                 8.2425
 Frc consts  --      0.6550                 1.2276                 1.1133
 IR Inten    --      0.0000                 0.0000                30.5999

                     25                     26                     27
                      A                      A                      A
 Frequencies --    495.1827               496.7295               499.7310
 Red. masses --     12.1732                 4.3716                12.3836
 Frc consts  --      1.7587                 0.6355                 1.8221
 IR Inten    --      0.0010                17.6178                 0.0000

                     28                     29                     30
                      A                      A                      A
 Frequencies --    504.9603               523.3535               555.6334
 Red. masses --     14.0109                11.6190                 8.6398
 Frc consts  --      2.1049                 1.8750                 1.5716
 IR Inten    --     76.2545                 0.0000                90.6881

                     31                     32                     33
                      A                      A                      A
 Frequencies --    571.6981               581.3993               597.4309
 Red. masses --      5.1488                16.2999                17.4540
 Frc consts  --      0.9915                 3.2463                 3.6705
 IR Inten    --      0.0000               837.1015                 0.0000

                     34                     35                     36
                      A                      A                      A
 Frequencies --    621.8408               651.5367               696.7549
 Red. masses --      6.5003                 5.6535                 7.1303
 Frc consts  --      1.4810                 1.4140                 2.0395
 IR Inten    --     34.4226                 0.0000                 0.0000

                     37                     38                     39
                      A                      A                      A
 Frequencies --    704.0131               707.0326               749.2504
 Red. masses --      3.0444                 7.9114                 9.8057
 Frc consts  --      0.8890                 2.3301                 3.2433
 IR Inten    --     79.2685                68.8439                 1.1063

                     40                     41                     42
                      A                      A                      A
 Frequencies --    774.9188               781.1591               811.3662
 Red. masses --      1.9560                 6.6200                 1.6522
 Frc consts  --      0.6920                 2.3801                 0.6408
 IR Inten    --      0.0000                 0.0000                77.8979

                     43                     44                     45
                      A                      A                      A
 Frequencies --    818.7782               821.2554               927.1175
 Red. masses --      5.5534                 2.7485                 7.3340
 Frc consts  --      2.1935                 1.0922                 3.7142
 IR Inten    --      6.9955                 0.0000                 0.0000

                     46                     47                     48
                      A                      A                      A
 Frequencies --    946.9659               948.6232               950.7878
 Red. masses --      7.4621                 1.3608                 1.4550
 Frc consts  --      3.9426                 0.7215                 0.7749
 IR Inten    --    194.2926                 0.0008                23.8596

                     49                     50                     51
                      A                      A                      A
 Frequencies --    968.2192               972.2711              1004.1051
 Red. masses --     13.0090                11.3375                 1.3175
 Frc consts  --      7.1852                 6.3145                 0.7826
 IR Inten    --      0.0008               829.8890                 0.0003

                     52                     53                     54
                      A                      A                      A
 Frequencies --   1004.8302              1073.4761              1075.3941
 Red. masses --      1.3235                 4.7264                 5.4673
 Frc consts  --      0.7873                 3.2090                 3.7252
 IR Inten    --      2.7000                 0.0029               905.5526

                     55                     56                     57
                      A                      A                      A
 Frequencies --   1096.1691              1102.2172              1120.9724
 Red. masses --      3.8808                 2.5146                20.3822
 Frc consts  --      2.7475                 1.7999                15.0901
 IR Inten    --      0.0009               136.0777                 1.8792

                     58                     59                     60
                      A                      A                      A
 Frequencies --   1121.2105              1126.7655              1129.1984
 Red. masses --     20.0528                 2.9572                 2.9734
 Frc consts  --     14.8525                 2.2121                 2.2338
 IR Inten    --   1200.3097               117.7023                 0.0004

                     61                     62                     63
                      A                      A                      A
 Frequencies --   1164.6756              1176.7183              1191.6246
 Red. masses --      2.2171                 1.5726                 1.8281
 Frc consts  --      1.7719                 1.2829                 1.5294
 IR Inten    --     79.1083                 0.0000                 0.0000

                     64                     65                     66
                      A                      A                      A
 Frequencies --   1208.2071              1229.6359              1318.2829
 Red. masses --      2.6658                 2.3351                 3.1138
 Frc consts  --      2.2928                 2.0802                 3.1883
 IR Inten    --    170.1233               265.6194                 0.0000

                     67                     68                     69
                      A                      A                      A
 Frequencies --   1330.4712              1355.6399              1368.0287
 Red. masses --     10.7293                 5.2719                 3.5048
 Frc consts  --     11.1901                 5.7083                 3.8645
 IR Inten    --     46.0328                 0.0000               919.9194

                     70                     71                     72
                      A                      A                      A
 Frequencies --   1425.1631              1429.0717              1472.1123
 Red. masses --      2.3323                 4.0725                 2.8331
 Frc consts  --      2.7910                 4.9002                 3.6174
 IR Inten    --    441.1502                 0.0002                 0.0000

                     73                     74                     75
                      A                      A                      A
 Frequencies --   1513.2272              1538.7546              1554.7484
 Red. masses --      4.9181                 7.9369                 5.4500
 Frc consts  --      6.6353                11.0723                 7.7619
 IR Inten    --   1274.6881                 0.0001               107.4544

                     76                     77                     78
                      A                      A                      A
 Frequencies --   1600.0082              1611.9832              1618.2185
 Red. masses --      6.9618                 6.3766                 6.2902
 Frc consts  --     10.5006                 9.7625                 9.7049
 IR Inten    --      0.0000                 0.0000                36.2883

                     79                     80                     81
                      A                      A                      A
 Frequencies --   3168.4434              3168.6141              3202.2468
 Red. masses --      1.0887                 1.0888                 1.0915
 Frc consts  --      6.4395                 6.4408                 6.5946
 IR Inten    --     50.5562                 0.0024                42.3757

                     82                     83                     84
                      A                      A                      A
 Frequencies --   3202.4938              3214.0813              3214.1860
 Red. masses --      1.0915                 1.0910                 1.0910
 Frc consts  --      6.5957                 6.6401                 6.6409
 IR Inten    --      0.0000                10.7389                 0.0575

 - Thermochemistry -
 -------------------
 Temperature   298.150 Kelvin.  Pressure   1.00000 Atm.
 Atom     1 has atomic number  6 and mass  12.00000

 Molecular mass:   365.95041 amu.
 Principal axes and moments of inertia in atomic units:
                           1         2         3
     Eigenvalues --  3575.18610********************
           X           -0.58872  -0.65555   0.47293
           Y           -0.26968   0.71083   0.64961
           Z            0.76202  -0.25490   0.59527
 This molecule is an asymmetric top.
 Rotational symmetry number  1.
 Warning -- assumption of classical behavior for rotation
           may cause significant error
 Rotational temperatures (Kelvin)      0.02423     0.00577     0.00485
 Rotational constants (GHZ):           0.50480     0.12021     0.10110
 Zero-point vibrational energy     476195.1 (Joules/Mol)
                                  113.81337 (Kcal/Mol)
 Warning -- explicit consideration of  33 degrees of freedom as
           vibrations may cause significant error
 Vibrational temperatures:     25.40    49.72    56.44   142.60   144.19
          (Kelvin)            164.02   192.85   204.27   260.13   263.74
                              317.95   321.82   351.83   394.99   419.62
                              439.74   474.84   501.43   526.93   568.49
                              575.60   594.85   671.23   688.88   712.46
                              714.68   719.00   726.53   752.99   799.43
                              822.55   836.50   859.57   894.69   937.42
                             1002.47  1012.92  1017.26  1078.00  1114.94
                             1123.91  1167.38  1178.04  1181.60  1333.92
                             1362.47  1364.86  1367.97  1393.05  1398.88
                             1444.68  1445.73  1544.49  1547.25  1577.14
                             1585.84  1612.83  1613.17  1621.16  1624.66
                             1675.71  1693.04  1714.48  1738.34  1769.17
                             1896.71  1914.25  1950.46  1968.29  2050.49
                             2056.12  2118.04  2177.20  2213.92  2236.94
                             2302.05  2319.28  2328.26  4558.68  4558.93
                             4607.32  4607.67  4624.35  4624.50

 Zero-point correction=                           0.181373 (Hartree/Particle)
 Thermal correction to Energy=                    0.200468
 Thermal correction to Enthalpy=                  0.201412
 Thermal correction to Gibbs Free Energy=         0.131963
 Sum of electronic and zero-point Energies=          -1935.807695
 Sum of electronic and thermal Energies=             -1935.788599
 Sum of electronic and thermal Enthalpies=           -1935.787655
 Sum of electronic and thermal Free Energies=        -1935.857105

                     E (Thermal)             CV                S
                      KCal/Mol        Cal/Mol-Kelvin    Cal/Mol-Kelvin
 Total                  125.796             74.147            146.169
 Electronic               0.000              0.000              1.377
 Translational            0.889              2.981             43.585
 Rotational               0.889              2.981             35.215
 Vibrational            124.018             68.185             65.992
 Vibration     1          0.593              1.986              6.882
 Vibration     2          0.594              1.983              5.549
 Vibration     3          0.594              1.981              5.298
 Vibration     4          0.604              1.950              3.472
 Vibration     5          0.604              1.949              3.450
 Vibration     6          0.607              1.938              3.200
 Vibration     7          0.613              1.919              2.887
 Vibration     8          0.615              1.911              2.777
 Vibration     9          0.630              1.866              2.320
 Vibration    10          0.631              1.863              2.294
 Vibration    11          0.648              1.809              1.951
 Vibration    12          0.649              1.805              1.929
 Vibration    13          0.660              1.772              1.770
 Vibration    14          0.677              1.720              1.567
 Vibration    15          0.687              1.689              1.464
 Vibration    16          0.696              1.663              1.386
 Vibration    17          0.713              1.616              1.260
 Vibration    18          0.726              1.578              1.173
 Vibration    19          0.739              1.542              1.096
 Vibration    20          0.762              1.481              0.981
 Vibration    21          0.766              1.470              0.962
 Vibration    22          0.777              1.441              0.915
 Vibration    23          0.824              1.324              0.747
 Vibration    24          0.835              1.297              0.713
 Vibration    25          0.851              1.261              0.670
 Vibration    26          0.852              1.257              0.666
 Vibration    27          0.855              1.251              0.659
 Vibration    28          0.860              1.239              0.646
 Vibration    29          0.878              1.198              0.602
 Vibration    30          0.911              1.127              0.533
 Vibration    31          0.928              1.092              0.501
 Vibration    32          0.938              1.072              0.483
 Vibration    33          0.955              1.037              0.454

 Optimization completed.
    -- Stationary point found.
 Normal termination of Gaussian 16 at Sun Feb 11 03:21:38 2024.
