 Q-Chem 5.4, Q-Chem, Inc., Pleasanton, CA (2021)
 Q-Chem 5.4.0 for Intel X86 EM64T Linux

User input:
--------------------------------------------------------------
$molecule
0 1
Br                -2.3132430000      2.1146500000      0.8005650000
C                 -1.0057420000      0.8238420000      0.3372390000
C                 -1.3499900000     -0.4873660000      0.2662460000
Br                -3.0865620000     -1.1501930000      0.6044860000
C                 -0.3484000000     -1.5174910000     -0.0942990000
O                 -0.5933640000     -2.6930980000     -0.1733670000
C                  1.1050700000     -1.0311370000     -0.3856920000
O                  1.9405970000     -1.8451710000     -0.6815870000
C                  1.3694640000      0.4224940000     -0.2783140000
C                  0.3790580000      1.2870980000      0.0602240000
Br                 0.7526550000      3.1405100000      0.1886050000
Br                 3.1504580000      0.9358630000     -0.6441060000
$end

$rem
BASIS  =  6-311++G(d,p)
GUI  =  2
JOB_TYPE  =  SP
METHOD  =  B3LYP
SCF_CONVERGENCE  = 8
SOLVENT_METHOD = sm12
$end

$smx
solvent dimethylformamide
charges CM5
$end

--------------------------------------------------------------

             Standard Nuclear Orientation (Angstroms)
    I     Atom           X                Y                Z
 ----------------------------------------------------------------
    1      Br     -2.3132430000     2.1146500000     0.8005650000
    2      C      -1.0057420000     0.8238420000     0.3372390000
    3      C      -1.3499900000    -0.4873660000     0.2662460000
    4      Br     -3.0865620000    -1.1501930000     0.6044860000
    5      C      -0.3484000000    -1.5174910000    -0.0942990000
    6      O      -0.5933640000    -2.6930980000    -0.1733670000
    7      C       1.1050700000    -1.0311370000    -0.3856920000
    8      O       1.9405970000    -1.8451710000    -0.6815870000
    9      C       1.3694640000     0.4224940000    -0.2783140000
   10      C       0.3790580000     1.2870980000     0.0602240000
   11      Br      0.7526550000     3.1405100000     0.1886050000
   12      Br      3.1504580000     0.9358630000    -0.6441060000
 ----------------------------------------------------------------

   15  -10675.6844878226      4.26e-09  Convergence criterion met
 Total energy in the final basis set =   -10675.7014408559

                    Orbital Energies (a.u.)
 --------------------------------------------------------------

 Alpha MOs
 -- Occupied --
********-482.8729-482.8636-482.8636 -62.5256 -62.5256 -62.5163 -62.5163
-56.3464 -56.3464 -56.3424 -56.3424 -56.3417 -56.3417 -56.3371 -56.3371
-56.3330 -56.3330 -56.3325 -56.3325 -19.1713 -19.1713 -10.3167 -10.3166
-10.3090 -10.3087 -10.2842 -10.2842  -8.7345  -8.7345  -8.7251  -8.7251
 -6.5668  -6.5667  -6.5574  -6.5574  -6.5532  -6.5532  -6.5515  -6.5514
 -6.5438  -6.5438  -6.5423  -6.5422  -2.6776  -2.6775  -2.6740  -2.6739
 -2.6727  -2.6726  -2.6682  -2.6681  -2.6646  -2.6646  -2.6634  -2.6633
 -2.6619  -2.6619  -2.6618  -2.6618  -2.6526  -2.6525  -2.6525  -2.6525
 -1.1191  -1.0921  -0.9422  -0.8854  -0.8488  -0.8259  -0.8119  -0.7509
 -0.7287  -0.6317  -0.6313  -0.5768  -0.5189  -0.4972  -0.4961  -0.4772
 -0.4635  -0.4464  -0.4358  -0.4317  -0.4297  -0.3764  -0.3561  -0.3479
 -0.3439  -0.3354  -0.3331  -0.3151  -0.3102  -0.2957  -0.2907  -0.2706

          Ground-State Mulliken Net Atomic Charges

     Atom                 Charge (a.u.)
  ----------------------------------------
      1 Br                   -0.060689
      2 C                     0.237391
      3 C                     1.049094
      4 Br                   -0.039510
      5 C                    -0.994217
      6 O                    -0.191316
      7 C                    -0.978208
      8 O                    -0.192373
      9 C                     1.031954
     10 C                     0.237165
     11 Br                   -0.060132
     12 Br                   -0.039159
  ----------------------------------------
  Sum of atomic charges =     0.000000

                    Cartesian Multipole Moments
 -----------------------------------------------------------------
    Charge (ESU x 10^10)
                -0.0000
    Dipole Moment (Debye)
         X      -1.4223      Y       4.7929      Z       0.9023
       Tot       5.0803
    Quadrupole Moments (Debye-Ang)
        XX    -114.8482     XY       2.6036     YY    -122.6589
        XZ       0.0931     YZ      -1.4339     ZZ    -115.9453

 Total job time:  208.12s(wall), 1587.44s(cpu)
        *  Thank you very much for using Q-Chem.  Have a nice day.  *
