 Gaussian 16, Revision A.03,
 Gaussian 16:  ES64L-G16RevA.03 25-Dec-2016

 --------------------------------------
 #P UB3LYP/6-311++G(d,p) nosym opt freq
 --------------------------------------

 --------
 Oxidized
 --------
 Symbolic Z-matrix:
 Charge =  0 Multiplicity = 1

 SCF Done:  E(UB3LYP) =  -10675.6920909     A.U. after   15 cycles
 SCF Done:  E(UB3LYP) =  -10675.6920911     A.U. after    9 cycles
 Optimization completed.
    -- Stationary point found.
 Normal termination of Gaussian 16 at Tue Jan  9 20:29:28 2024.

 ----------------------------------------------------------------------
 #P Geom=AllCheck Guess=TCheck SCRF=Check GenChk UB3LYP/6-311++G(d,p) F
 req
 ----------------------------------------------------------------------

 Structure from the checkpoint file:  "318.chk"
 --------
 Oxidized
 --------
 Charge =  0 Multiplicity = 1

                          Input orientation:
 ---------------------------------------------------------------------
 Center     Atomic      Atomic             Coordinates (Angstroms)
 Number     Number       Type             X           Y           Z
 ---------------------------------------------------------------------
      1         35           0       -2.313243    2.114650    0.800565
      2          6           0       -1.005742    0.823842    0.337239
      3          6           0       -1.349990   -0.487366    0.266246
      4         35           0       -3.086562   -1.150193    0.604486
      5          6           0       -0.348400   -1.517491   -0.094299
      6          8           0       -0.593364   -2.693098   -0.173367
      7          6           0        1.105070   -1.031137   -0.385692
      8          8           0        1.940597   -1.845171   -0.681587
      9          6           0        1.369464    0.422494   -0.278314
     10          6           0        0.379058    1.287098    0.060224
     11         35           0        0.752655    3.140510    0.188605
     12         35           0        3.150458    0.935863   -0.644106
 ---------------------------------------------------------------------

 SCF Done:  E(UB3LYP) =  -10675.6920911     A.U. after    1 cycles

 Alpha  occ. eigenvalues -- -482.87642-482.87641-482.86490-482.86489 -62.52915
 Alpha  occ. eigenvalues --  -62.52914 -62.51753 -62.51752 -56.34975 -56.34974
 Alpha  occ. eigenvalues --  -56.34574 -56.34574 -56.34514 -56.34513 -56.33815
 Alpha  occ. eigenvalues --  -56.33814 -56.33411 -56.33410 -56.33357 -56.33356
 Alpha  occ. eigenvalues --  -19.16867 -19.16865 -10.31392 -10.31375 -10.31028
 Alpha  occ. eigenvalues --  -10.31000 -10.28526 -10.28524  -8.73892  -8.73890
 Alpha  occ. eigenvalues --   -8.72722  -8.72721  -6.57109  -6.57108  -6.55942
 Alpha  occ. eigenvalues --   -6.55941  -6.55766  -6.55765  -6.55600  -6.55599
 Alpha  occ. eigenvalues --   -6.54592  -6.54591  -6.54434  -6.54433  -2.68193
 Alpha  occ. eigenvalues --   -2.68191  -2.67838  -2.67837  -2.67712  -2.67711
 Alpha  occ. eigenvalues --   -2.67025  -2.67024  -2.66665  -2.66664  -2.66642
 Alpha  occ. eigenvalues --   -2.66640  -2.66640  -2.66638  -2.66546  -2.66544
 Alpha  occ. eigenvalues --   -2.65470  -2.65469  -2.65468  -2.65466  -1.11606
 Alpha  occ. eigenvalues --   -1.08885  -0.94313  -0.88693  -0.85082  -0.82860
 Alpha  occ. eigenvalues --   -0.81320  -0.75217  -0.72844  -0.63161  -0.63123
 Alpha  occ. eigenvalues --   -0.57625  -0.51884  -0.49425  -0.49407  -0.47576
 Alpha  occ. eigenvalues --   -0.46473  -0.44807  -0.43308  -0.43221  -0.43083
 Alpha  occ. eigenvalues --   -0.37684  -0.35999  -0.34592  -0.34518  -0.33670
 Alpha  occ. eigenvalues --   -0.33613  -0.31665  -0.31294  -0.29363  -0.29224
 Alpha  occ. eigenvalues --   -0.27198
 Alpha virt. eigenvalues --   -0.16807  -0.09379  -0.05061  -0.04972  -0.04671
 Alpha virt. eigenvalues --   -0.02374  -0.01381  -0.00996   0.01371   0.01988
 Alpha virt. eigenvalues --    0.02648   0.03628   0.04336   0.04494   0.04731

  Beta  occ. eigenvalues -- -482.87642-482.87641-482.86490-482.86489 -62.52915
  Beta  occ. eigenvalues --  -62.52914 -62.51753 -62.51752 -56.34975 -56.34974
  Beta  occ. eigenvalues --  -56.34574 -56.34574 -56.34514 -56.34513 -56.33815
  Beta  occ. eigenvalues --  -56.33814 -56.33411 -56.33410 -56.33357 -56.33356
  Beta  occ. eigenvalues --  -19.16867 -19.16865 -10.31392 -10.31375 -10.31028
  Beta  occ. eigenvalues --  -10.31000 -10.28526 -10.28524  -8.73892  -8.73890
  Beta  occ. eigenvalues --   -8.72722  -8.72721  -6.57109  -6.57108  -6.55942
  Beta  occ. eigenvalues --   -6.55941  -6.55766  -6.55765  -6.55600  -6.55599
  Beta  occ. eigenvalues --   -6.54592  -6.54591  -6.54434  -6.54433  -2.68193
  Beta  occ. eigenvalues --   -2.68191  -2.67838  -2.67837  -2.67712  -2.67711
  Beta  occ. eigenvalues --   -2.67025  -2.67024  -2.66665  -2.66664  -2.66642
  Beta  occ. eigenvalues --   -2.66640  -2.66640  -2.66638  -2.66546  -2.66544
  Beta  occ. eigenvalues --   -2.65470  -2.65469  -2.65468  -2.65466  -1.11606
  Beta  occ. eigenvalues --   -1.08885  -0.94313  -0.88693  -0.85082  -0.82860
  Beta  occ. eigenvalues --   -0.81320  -0.75217  -0.72844  -0.63161  -0.63123
  Beta  occ. eigenvalues --   -0.57625  -0.51884  -0.49425  -0.49407  -0.47576
  Beta  occ. eigenvalues --   -0.46473  -0.44807  -0.43308  -0.43221  -0.43083
  Beta  occ. eigenvalues --   -0.37684  -0.35999  -0.34592  -0.34518  -0.33670
  Beta  occ. eigenvalues --   -0.33613  -0.31665  -0.31294  -0.29363  -0.29224
  Beta  occ. eigenvalues --   -0.27198
  Beta virt. eigenvalues --   -0.16807  -0.09379  -0.05061  -0.04972  -0.04671
  Beta virt. eigenvalues --   -0.02374  -0.01381  -0.00996   0.01371   0.01988
  Beta virt. eigenvalues --    0.02648   0.03628   0.04336   0.04494   0.04731

 Mulliken charges and spin densities:
               1          2
     1  Br  -0.038115  -0.000000
     2  C   -0.397866   0.000000
     3  C    0.755244  -0.000000
     4  Br  -0.007721   0.000000
     5  C   -0.171352   0.000000
     6  O   -0.140730  -0.000000
     7  C   -0.171208   0.000000
     8  O   -0.140685  -0.000000
     9  C    0.755543  -0.000000
    10  C   -0.397301  -0.000000
    11  Br  -0.038174   0.000000
    12  Br  -0.007635   0.000000
 Sum of Mulliken charges =  -0.00000   0.00000

 Dipole moment (field-independent basis, Debye):
    X=             -1.2007    Y=              4.0444    Z=              0.7620  Tot=              4.2871
 Quadrupole moment (field-independent basis, Debye-Ang):
   XX=           -114.9388   YY=           -122.9625   ZZ=           -116.0277
   XY=              2.6746   XZ=              0.1043   YZ=             -1.4780

  Exact polarizability: 203.702   8.635 192.980 -28.242  10.997  89.534
 Approx polarizability: 320.461  -1.053 347.412 -45.091  25.420 146.401

                      1                      2                      3
                      A                      A                      A
 Frequencies --     18.0291                42.6647                47.5877
 Red. masses --     31.5939                26.4646                22.7884
 Frc consts  --      0.0061                 0.0284                 0.0304
 IR Inten    --      0.0000                 0.8666                 0.0001

                      4                      5                      6
                      A                      A                      A
 Frequencies --    136.7927               139.1764               155.7849
 Red. masses --     50.0104                66.2960                74.9919
 Frc consts  --      0.5514                 0.7566                 1.0723
 IR Inten    --      0.4632                 0.0501                 0.0378

                      7                      8                      9
                      A                      A                      A
 Frequencies --    162.8853               202.8344               208.9962
 Red. masses --     13.3655                60.3050                57.3133
 Frc consts  --      0.2089                 1.4618                 1.4750
 IR Inten    --      2.1891                 0.0262                 1.9596

                     10                     11                     12
                      A                      A                      A
 Frequencies --    253.1815               275.9999               328.4695
 Red. masses --     19.2062                12.3722                18.9807
 Frc consts  --      0.7254                 0.5553                 1.2066
 IR Inten    --      1.3006                 0.0000                 3.9227

                     13                     14                     15
                      A                      A                      A
 Frequencies --    382.7262               404.1413               428.0290
 Red. masses --     15.8039                12.3996                15.4169
 Frc consts  --      1.3639                 1.1932                 1.6641
 IR Inten    --      4.8117                 7.1571                 2.7580

                     16                     17                     18
                      A                      A                      A
 Frequencies --    565.6127               568.0279               602.8658
 Red. masses --     12.1730                12.0515                13.2724
 Frc consts  --      2.2945                 2.2910                 2.8421
 IR Inten    --      7.7657                 0.0068                45.2331

                     19                     20                     21
                      A                      A                      A
 Frequencies --    722.6379               724.6743               805.8268
 Red. masses --     12.8525                12.7677                12.1659
 Frc consts  --      3.9544                 3.9505                 4.6545
 IR Inten    --     24.9132                78.4591                 0.0000

                     22                     23                     24
                      A                      A                      A
 Frequencies --    843.8713               937.0141              1084.8696
 Red. masses --     12.6295                12.4417                12.0803
 Frc consts  --      5.2989                 6.4361                 8.3769
 IR Inten    --      0.0261                 2.3660                22.5544

                     25                     26                     27
                      A                      A                      A
 Frequencies --   1139.5534              1215.8392              1515.4158
 Red. masses --     12.1313                12.0126                12.0064
 Frc consts  --      9.2817                10.4626                16.2453
 IR Inten    --     20.1731               336.5996                53.9110

                     28                     29                     30
                      A                      A                      A
 Frequencies --   1561.0409              1758.1932              1776.0362
 Red. masses --     12.0084                13.3409                13.2282
 Frc consts  --     17.2411                24.2979                24.5841
 IR Inten    --     53.6521               333.3684                49.0330

 - Thermochemistry -
 -------------------
 Temperature   298.150 Kelvin.  Pressure   1.00000 Atm.
 Atom     1 has atomic number 35 and mass  78.91834

 Molecular mass:   419.66317 amu.
 Principal axes and moments of inertia in atomic units:
                           1         2         3
     Eigenvalues --  4330.336928333.29295**********
           X            0.93176  -0.27994   0.23122
           Y            0.31155   0.94346  -0.11321
           Z           -0.18645   0.17752   0.96629
 This molecule is an asymmetric top.
 Rotational symmetry number  1.
 Warning -- assumption of classical behavior for rotation
           may cause significant error
 Rotational temperatures (Kelvin)      0.02000     0.01039     0.00684
 Rotational constants (GHZ):           0.41677     0.21657     0.14251
 Zero-point vibrational energy     113697.7 (Joules/Mol)
                                   27.17441 (Kcal/Mol)
 Warning -- explicit consideration of  18 degrees of freedom as
           vibrations may cause significant error
 Vibrational temperatures:     25.94    61.39    68.47   196.81   200.24
          (Kelvin)            224.14   234.36   291.83   300.70   364.27
                              397.10   472.59   550.66   581.47   615.84
                              813.79   817.27   867.39  1039.71  1042.64
                             1159.40  1214.14  1348.15  1560.89  1639.56
                             1749.32  2180.35  2245.99  2529.65  2555.32

 Zero-point correction=                           0.043305 (Hartree/Particle)
 Thermal correction to Energy=                    0.055641
 Thermal correction to Enthalpy=                  0.056585
 Thermal correction to Gibbs Free Energy=        -0.000612
 Sum of electronic and zero-point Energies=         -10675.648786
 Sum of electronic and thermal Energies=            -10675.636450
 Sum of electronic and thermal Enthalpies=          -10675.635506
 Sum of electronic and thermal Free Energies=       -10675.692703

                     E (Thermal)             CV                S
                      KCal/Mol        Cal/Mol-Kelvin    Cal/Mol-Kelvin
 Total                   34.915             40.054            120.381
 Electronic               0.000              0.000              0.000
 Translational            0.889              2.981             43.993
 Rotational               0.889              2.981             34.479
 Vibrational             33.138             34.093             41.909
 Vibration     1          0.593              1.986              6.840
 Vibration     2          0.595              1.980              5.131
 Vibration     3          0.595              1.978              4.915
 Vibration     4          0.614              1.917              2.848
 Vibration     5          0.615              1.914              2.815
 Vibration     6          0.620              1.896              2.600
 Vibration     7          0.623              1.888              2.516
 Vibration     8          0.639              1.836              2.107
 Vibration     9          0.642              1.827              2.052
 Vibration    10          0.664              1.757              1.708
 Vibration    11          0.678              1.718              1.558
 Vibration    12          0.712              1.619              1.268
 Vibration    13          0.752              1.507              1.028
 Vibration    14          0.769              1.461              0.948
 Vibration    15          0.790              1.409              0.865
 Vibration    16          0.921              1.106              0.513
 Vibration    17          0.924              1.100              0.508
 Vibration    18          0.961              1.026              0.445

                           ! Non-Optimized Parameters !
 Normal termination of Gaussian 16 at Tue Jan  9 20:39:28 2024.
