 Gaussian 16, Revision A.03,
 Gaussian 16:  ES64L-G16RevA.03 25-Dec-2016

 ----------------------------------------------------------------
 #P UB3LYP/6-311++G(d,p) SCRF=(PCM,Solvent=n,n-DiMethylFormamide)
 ----------------------------------------------------------------

 ------------------
 Quinone PCM in DMF
 ------------------
 Symbolic Z-matrix:
 Charge =  0 Multiplicity = 1

                         Standard orientation:
 ---------------------------------------------------------------------
 Center     Atomic      Atomic             Coordinates (Angstroms)
 Number     Number       Type             X           Y           Z
 ---------------------------------------------------------------------
      1          6           0        2.274638    1.715617   -0.000285
      2          6           0        3.564464    1.199257   -0.000306
      3          6           0        3.753536   -0.190800   -0.000291
      4          6           0        1.159361    0.875459   -0.000261
      5          6           0        1.358666   -0.521070   -0.000283
      6          6           0        2.644902   -1.043867   -0.000282
      7          6           0       -0.199315    1.469064   -0.000253
      8          6           0       -1.358671    0.521083   -0.000051
      9          6           0       -1.159365   -0.875447   -0.000077
     10          6           0        0.199311   -1.469052   -0.000350
     11          6           0       -2.644907    1.043879    0.000182
     12          6           0       -3.753537    0.190807    0.000424
     13          6           0       -3.564468   -1.199248    0.000438
     14          6           0       -2.274641   -1.715607    0.000187
     15          8           0       -0.373757    2.678382   -0.000031
     16          8           0        0.373753   -2.678370   -0.000094
     17          1           0        2.789049   -2.116703   -0.000286
     18          1           0       -2.112262   -2.786558    0.000198
     19          1           0        2.112258    2.786568   -0.000299
     20          1           0       -2.789055    2.116714    0.000183
     21          8           0       -4.965969    0.798387    0.000727
     22          8           0        4.965963   -0.798395   -0.000379
     23          6           0        6.142445    0.005133    0.001082
     24          6           0       -6.142419   -0.005186   -0.000507
     25          1           0        4.408028    1.876158   -0.000360
     26          1           0       -4.408035   -1.876146    0.000671
     27          1           0        6.975895   -0.694560    0.001812
     28          1           0        6.193705    0.632889    0.896401
     29          1           0        6.195680    0.633312   -0.893832
     30          1           0       -6.975894    0.694477   -0.001110
     31          1           0       -6.195473   -0.633344    0.894433
     32          1           0       -6.193810   -0.632967   -0.895802
 ---------------------------------------------------------------------

 SCF Done:  E(UB3LYP) =  -918.084277782     A.U. after   15 cycles

 The electronic state is 1-A.
 Alpha  occ. eigenvalues --  -19.17603 -19.17603 -19.12765 -19.12764 -10.28076
 Alpha  occ. eigenvalues --  -10.28075 -10.26392 -10.26392 -10.22976 -10.22976
 Alpha  occ. eigenvalues --  -10.21052 -10.21051 -10.20177 -10.20177 -10.20123
 Alpha  occ. eigenvalues --  -10.20123 -10.19810 -10.19809 -10.19548 -10.19548
 Alpha  occ. eigenvalues --   -1.09148  -1.09147  -1.06338  -1.06162  -0.89377
 Alpha  occ. eigenvalues --   -0.88206  -0.81250  -0.78724  -0.78553  -0.77376
 Alpha  occ. eigenvalues --   -0.72565  -0.72377  -0.67256  -0.67215  -0.62651
 Alpha  occ. eigenvalues --   -0.62583  -0.58957  -0.56705  -0.56410  -0.53632
 Alpha  occ. eigenvalues --   -0.51830  -0.51394  -0.49866  -0.48523  -0.48458
 Alpha  occ. eigenvalues --   -0.48157  -0.46283  -0.45859  -0.45439  -0.45288
 Alpha  occ. eigenvalues --   -0.45141  -0.43491  -0.43249  -0.42210  -0.41776
 Alpha  occ. eigenvalues --   -0.40267  -0.39870  -0.39661  -0.38762  -0.38185
 Alpha  occ. eigenvalues --   -0.35154  -0.35012  -0.34506  -0.33734  -0.28716
 Alpha  occ. eigenvalues --   -0.28650  -0.28008  -0.27467  -0.25652  -0.24706
 Alpha virt. eigenvalues --   -0.11342  -0.07429  -0.02759  -0.02578  -0.00803
 Alpha virt. eigenvalues --   -0.00274   0.00880   0.00931   0.01619   0.02584
 Alpha virt. eigenvalues --    0.02935   0.03265   0.03306   0.03433   0.03941

  Beta  occ. eigenvalues --  -19.17603 -19.17603 -19.12765 -19.12764 -10.28076
  Beta  occ. eigenvalues --  -10.28075 -10.26392 -10.26392 -10.22976 -10.22976
  Beta  occ. eigenvalues --  -10.21052 -10.21051 -10.20177 -10.20177 -10.20123
  Beta  occ. eigenvalues --  -10.20123 -10.19810 -10.19809 -10.19548 -10.19548
  Beta  occ. eigenvalues --   -1.09148  -1.09147  -1.06338  -1.06162  -0.89377
  Beta  occ. eigenvalues --   -0.88206  -0.81250  -0.78724  -0.78553  -0.77376
  Beta  occ. eigenvalues --   -0.72565  -0.72377  -0.67256  -0.67215  -0.62651
  Beta  occ. eigenvalues --   -0.62583  -0.58957  -0.56705  -0.56410  -0.53632
  Beta  occ. eigenvalues --   -0.51830  -0.51394  -0.49866  -0.48523  -0.48458
  Beta  occ. eigenvalues --   -0.48157  -0.46283  -0.45859  -0.45439  -0.45288
  Beta  occ. eigenvalues --   -0.45141  -0.43491  -0.43249  -0.42210  -0.41776
  Beta  occ. eigenvalues --   -0.40267  -0.39870  -0.39661  -0.38762  -0.38185
  Beta  occ. eigenvalues --   -0.35154  -0.35012  -0.34506  -0.33734  -0.28716
  Beta  occ. eigenvalues --   -0.28650  -0.28008  -0.27467  -0.25652  -0.24706
  Beta virt. eigenvalues --   -0.11342  -0.07429  -0.02759  -0.02578  -0.00803
  Beta virt. eigenvalues --   -0.00274   0.00880   0.00931   0.01619   0.02584
  Beta virt. eigenvalues --    0.02935   0.03265   0.03306   0.03433   0.03941

 Mulliken charges and spin densities:
               1          2
     1  C    0.079084  -0.000000
     2  C    0.112555  -0.000000
     3  C   -0.815122   0.000000
     4  C    0.528294   0.000000
     5  C    0.772805  -0.000000
     6  C   -0.442293  -0.000000
     7  C   -0.605986  -0.000000
     8  C    0.772800   0.000000
     9  C    0.528291  -0.000000
    10  C   -0.605990   0.000000
    11  C   -0.442286   0.000000
    12  C   -0.815153  -0.000000
    13  C    0.112556   0.000000
    14  C    0.079093  -0.000000
    15  O   -0.284642  -0.000000
    16  O   -0.284642  -0.000000
    17  H    0.195841   0.000000
    18  H    0.189371   0.000000
    19  H    0.189372   0.000000
    20  H    0.195841   0.000000
    21  O   -0.178400   0.000000
    22  O   -0.178410  -0.000000
    23  C   -0.335886  -0.000000
    24  C   -0.335892  -0.000000
    25  H    0.238568   0.000000
    26  H    0.238572   0.000000
    27  H    0.198838   0.000000
    28  H    0.173480  -0.000000
    29  H    0.173510  -0.000000
    30  H    0.198841  -0.000000
    31  H    0.173521   0.000000
    32  H    0.173467   0.000000
 Sum of Mulliken charges =  -0.00000   0.00000

 Dipole moment (field-independent basis, Debye):
    X=              0.0001    Y=             -0.0000    Z=              0.0000  Tot=              0.0001
 Quadrupole moment (field-independent basis, Debye-Ang):
   XX=            -50.9185   YY=           -132.2428   ZZ=           -117.2951
   XY=             20.9325   XZ=              0.0207   YZ=             -0.0040

 Normal termination of Gaussian 16 at Sun Jan 14 01:07:22 2024.
