 Gaussian 16, Revision A.03,
 Gaussian 16:  ES64L-G16RevA.03 25-Dec-2016

 --------------------------------------
 #P UB3LYP/6-311++G(d,p) nosym opt freq
 --------------------------------------

 --------
 Oxidized
 --------
 Symbolic Z-matrix:
 Charge =  0 Multiplicity = 1

 SCF Done:  E(UB3LYP) =  -918.070409420     A.U. after   15 cycles
 SCF Done:  E(UB3LYP) =  -918.070409407     A.U. after    8 cycles
 SCF Done:  E(UB3LYP) =  -918.070409479     A.U. after    8 cycles
 Optimization completed.
    -- Stationary point found.
 Normal termination of Gaussian 16 at Wed Dec 27 19:56:50 2023.

 ----------------------------------------------------------------------
 #P Geom=AllCheck Guess=TCheck SCRF=Check GenChk UB3LYP/6-311++G(d,p) F
 req
 ----------------------------------------------------------------------

 Structure from the checkpoint file:  "141.chk"
 --------
 Oxidized
 --------
 Charge =  0 Multiplicity = 1

                          Input orientation:
 ---------------------------------------------------------------------
 Center     Atomic      Atomic             Coordinates (Angstroms)
 Number     Number       Type             X           Y           Z
 ---------------------------------------------------------------------
      1          6           0       -3.289793    3.609204    0.084337
      2          6           0       -4.521027    2.965534    0.089911
      3          6           0       -4.569312    1.563699    0.066785
      4          6           0       -2.095769    2.885866    0.056092
      5          6           0       -2.153583    1.476561    0.033003
      6          6           0       -3.380598    0.826850    0.038396
      7          6           0       -0.803810    3.613317    0.051139
      8          6           0        0.444908    2.787167    0.020241
      9          6           0        0.387094    1.377861   -0.002843
     10          6           0       -0.904862    0.650406    0.002374
     11          6           0        1.671920    3.436881    0.014614
     12          6           0        2.860627    2.700031   -0.014007
     13          6           0        2.812345    1.298198   -0.037133
     14          6           0        1.581114    0.654525   -0.031329
     15          8           0       -0.751904    4.833888    0.070908
     16          8           0       -0.956774   -0.570157   -0.017873
     17          1           0       -3.416095   -0.254897    0.020542
     18          1           0        1.527289   -0.427184   -0.048952
     19          1           0       -3.235967    4.690913    0.101964
     20          1           0        1.707418    4.518627    0.032471
     21          8           0        4.005688    3.426646   -0.017305
     22          8           0       -5.714369    0.837072    0.069867
     23          6           0       -6.965617    1.517828    0.096671
     24          6           0        5.256906    2.745847   -0.044337
     25          1           0       -5.428319    3.553857    0.112066
     26          1           0        3.719638    0.709881   -0.059466
     27          1           0       -7.724401    0.737800    0.092867
     28          1           0       -7.091720    2.152298   -0.786418
     29          1           0       -7.069798    2.122188    1.003429
     30          1           0        6.015716    3.525850   -0.040660
     31          1           0        5.360904    2.141490   -0.951118
     32          1           0        5.383141    2.111365    0.838726
 ---------------------------------------------------------------------

 SCF Done:  E(UB3LYP) =  -918.070409479     A.U. after    1 cycles

 Alpha  occ. eigenvalues --  -19.17592 -19.17592 -19.11608 -19.11607 -10.26980
 Alpha  occ. eigenvalues --  -10.26979 -10.26062 -10.26062 -10.24170 -10.24170
 Alpha  occ. eigenvalues --  -10.20418 -10.20417 -10.19762 -10.19762 -10.19703
 Alpha  occ. eigenvalues --  -10.19703 -10.19581 -10.19581 -10.18951 -10.18951
 Alpha  occ. eigenvalues --   -1.09211  -1.09211  -1.05101  -1.04910  -0.88842
 Alpha  occ. eigenvalues --   -0.87774  -0.80896  -0.78401  -0.78225  -0.77115
 Alpha  occ. eigenvalues --   -0.72745  -0.72681  -0.66980  -0.66867  -0.62539
 Alpha  occ. eigenvalues --   -0.62200  -0.58464  -0.56771  -0.56094  -0.53692
 Alpha  occ. eigenvalues --   -0.51491  -0.51173  -0.49469  -0.49114  -0.49086
 Alpha  occ. eigenvalues --   -0.48109  -0.45655  -0.44767  -0.44667  -0.44590
 Alpha  occ. eigenvalues --   -0.44524  -0.43921  -0.42942  -0.42161  -0.40601
 Alpha  occ. eigenvalues --   -0.40270  -0.39610  -0.39279  -0.38789  -0.37942
 Alpha  occ. eigenvalues --   -0.35210  -0.34931  -0.34497  -0.33286  -0.28181
 Alpha  occ. eigenvalues --   -0.27498  -0.27383  -0.26284  -0.25242  -0.24367
 Alpha virt. eigenvalues --   -0.10439  -0.06864  -0.02321  -0.02203  -0.01479
 Alpha virt. eigenvalues --   -0.01379   0.00873   0.01005   0.01250   0.02157
 Alpha virt. eigenvalues --    0.02430   0.02487   0.03349   0.03448   0.04247

  Beta  occ. eigenvalues --  -19.17592 -19.17592 -19.11608 -19.11607 -10.26980
  Beta  occ. eigenvalues --  -10.26979 -10.26062 -10.26062 -10.24170 -10.24170
  Beta  occ. eigenvalues --  -10.20418 -10.20417 -10.19762 -10.19762 -10.19703
  Beta  occ. eigenvalues --  -10.19703 -10.19581 -10.19581 -10.18951 -10.18951
  Beta  occ. eigenvalues --   -1.09211  -1.09211  -1.05101  -1.04910  -0.88842
  Beta  occ. eigenvalues --   -0.87774  -0.80896  -0.78401  -0.78225  -0.77115
  Beta  occ. eigenvalues --   -0.72745  -0.72681  -0.66980  -0.66867  -0.62539
  Beta  occ. eigenvalues --   -0.62200  -0.58464  -0.56771  -0.56094  -0.53692
  Beta  occ. eigenvalues --   -0.51491  -0.51173  -0.49469  -0.49114  -0.49086
  Beta  occ. eigenvalues --   -0.48109  -0.45655  -0.44767  -0.44667  -0.44590
  Beta  occ. eigenvalues --   -0.44524  -0.43921  -0.42942  -0.42161  -0.40601
  Beta  occ. eigenvalues --   -0.40270  -0.39610  -0.39279  -0.38789  -0.37942
  Beta  occ. eigenvalues --   -0.35210  -0.34931  -0.34497  -0.33286  -0.28181
  Beta  occ. eigenvalues --   -0.27498  -0.27383  -0.26284  -0.25242  -0.24367
  Beta virt. eigenvalues --   -0.10439  -0.06864  -0.02321  -0.02203  -0.01479
  Beta virt. eigenvalues --   -0.01379   0.00873   0.01005   0.01250   0.02157
  Beta virt. eigenvalues --    0.02430   0.02487   0.03349   0.03448   0.04247

 Mulliken charges and spin densities:
               1          2
     1  C    0.026218  -0.000000
     2  C    0.153867  -0.000000
     3  C   -0.766569  -0.000000
     4  C    0.538009  -0.000000
     5  C    0.798468   0.000000
     6  C   -0.458602  -0.000000
     7  C   -0.686028   0.000000
     8  C    0.798463   0.000000
     9  C    0.538007   0.000000
    10  C   -0.686032   0.000000
    11  C   -0.458592   0.000000
    12  C   -0.766599  -0.000000
    13  C    0.153867  -0.000000
    14  C    0.026226   0.000000
    15  O   -0.219926   0.000000
    16  O   -0.219925   0.000000
    17  H    0.203307  -0.000000
    18  H    0.186130   0.000000
    19  H    0.186130  -0.000000
    20  H    0.203306   0.000000
    21  O   -0.149136   0.000000
    22  O   -0.149145   0.000000
    23  C   -0.325324  -0.000000
    24  C   -0.325330  -0.000000
    25  H    0.195881   0.000000
    26  H    0.195885  -0.000000
    27  H    0.189228  -0.000000
    28  H    0.157242  -0.000000
    29  H    0.157251  -0.000000
    30  H    0.189231  -0.000000
    31  H    0.157261   0.000000
    32  H    0.157230   0.000000
 Sum of Mulliken charges =  -0.00000   0.00000

 Dipole moment (field-independent basis, Debye):
    X=             -0.0000    Y=             -0.0000    Z=             -0.0001  Tot=              0.0001
 Quadrupole moment (field-independent basis, Debye-Ang):
   XX=            -61.0419   YY=           -132.0439   ZZ=           -117.4560
   XY=             -9.0422   XZ=             -0.8903   YZ=             -0.1208

  Exact polarizability: 346.427  17.728 206.506  -2.950   1.508 103.683
 Approx polarizability: 453.855  37.470 407.600  -3.244   3.597 165.604

                      1                      2                      3
                      A                      A                      A
 Frequencies --     26.9387                71.1857                77.3496
 Red. masses --      5.7288                 3.4670                 4.3546
 Frc consts  --      0.0024                 0.0104                 0.0154
 IR Inten    --      4.7386                 0.0000                 0.0144

                      4                      5                      6
                      A                      A                      A
 Frequencies --     89.9083               104.6972               124.7540
 Red. masses --      3.8564                 5.3952                 4.6392
 Frc consts  --      0.0184                 0.0348                 0.0425
 IR Inten    --      6.7256                 0.0000                 2.6292

                      7                      8                      9
                      A                      A                      A
 Frequencies --    154.6284               188.3880               192.5532
 Red. masses --      6.6523                 5.0567                 4.8485
 Frc consts  --      0.0937                 0.1057                 0.1059
 IR Inten    --      6.5060                 0.0000                 0.0000

                     10                     11                     12
                      A                      A                      A
 Frequencies --    220.5318               224.9702               255.6332
 Red. masses --      1.2009                 1.1777                 5.1603
 Frc consts  --      0.0344                 0.0351                 0.1987
 IR Inten    --      0.0128                 0.0000                 0.0000

                     13                     14                     15
                      A                      A                      A
 Frequencies --    286.2004               289.9026               313.7029
 Red. masses --      3.6665                 3.7622                 4.4757
 Frc consts  --      0.1769                 0.1863                 0.2595
 IR Inten    --      8.4406                 2.2116                 0.0000

                     16                     17                     18
                      A                      A                      A
 Frequencies --    329.0334               356.8585               414.7067
 Red. masses --      6.3999                 9.8935                 7.3668
 Frc consts  --      0.4082                 0.7423                 0.7465
 IR Inten    --      0.0000                12.3176                 0.0000

                     19                     20                     21
                      A                      A                      A
 Frequencies --    435.1038               448.1436               454.4858
 Red. masses --      3.4009                 3.4167                 6.3031
 Frc consts  --      0.3793                 0.4043                 0.7671
 IR Inten    --      0.6014                 0.0000                 9.3748

                     22                     23                     24
                      A                      A                      A
 Frequencies --    473.7702               519.8521               536.1116
 Red. masses --     11.9594                 6.4170                 4.3174
 Frc consts  --      1.5816                 1.0217                 0.7311
 IR Inten    --      0.0000                 0.0000                 0.0000

                     25                     26                     27
                      A                      A                      A
 Frequencies --    579.0730               593.1082               635.2392
 Red. masses --      3.7694                 5.1858                 6.8098
 Frc consts  --      0.7447                 1.0748                 1.6191
 IR Inten    --     12.8690                55.6849                 0.0000

                     28                     29                     30
                      A                      A                      A
 Frequencies --    676.2509               683.1277               701.2372
 Red. masses --      6.2910                 3.3731                 7.0116
 Frc consts  --      1.6951                 0.9274                 2.0314
 IR Inten    --      0.3160                 0.0000                 0.0000

                     31                     32                     33
                      A                      A                      A
 Frequencies --    715.8064               717.2420               762.5227
 Red. masses --      7.0056                 3.9730                 6.5818
 Frc consts  --      2.1149                 1.2042                 2.2548
 IR Inten    --     26.7574                 5.0670                43.2358

                     34                     35                     36
                      A                      A                      A
 Frequencies --    786.3239               797.8476               842.5826
 Red. masses --      4.3348                 6.0389                 1.4923
 Frc consts  --      1.5792                 2.2649                 0.6242
 IR Inten    --      0.0000                 0.0000                36.0633

                     37                     38                     39
                      A                      A                      A
 Frequencies --    843.4576               884.2256               923.2340
 Red. masses --      1.6643                 6.6471                 1.4328
 Frc consts  --      0.6976                 3.0620                 0.7196
 IR Inten    --      0.0004                55.2650                 0.0002

                     40                     41                     42
                      A                      A                      A
 Frequencies --    923.8042               981.2931               985.4692
 Red. masses --      1.4512                 5.4127                 1.3215
 Frc consts  --      0.7297                 3.0709                 0.7561
 IR Inten    --     26.6381                 0.0000                 0.0000

                     43                     44                     45
                      A                      A                      A
 Frequencies --    987.0209               989.0162              1053.6435
 Red. masses --      4.4361                 1.3557                 3.5794
 Frc consts  --      2.5463                 0.7813                 2.3412
 IR Inten    --    164.2087                 5.1554                 0.0000

                     46                     47                     48
                      A                      A                      A
 Frequencies --   1055.8401              1111.9037              1132.6589
 Red. masses --      2.3595                 3.9459                 2.0126
 Frc consts  --      1.5498                 2.8743                 1.5213
 IR Inten    --     55.7999               164.7309                 0.0000

                     49                     50                     51
                      A                      A                      A
 Frequencies --   1162.6588              1166.5380              1166.5556
 Red. masses --      1.8413                 1.2729                 1.2729
 Frc consts  --      1.4665                 1.0206                 1.0206
 IR Inten    --      0.0000                 1.3716                 0.0249

                     52                     53                     54
                      A                      A                      A
 Frequencies --   1176.8473              1203.0593              1206.8180
 Red. masses --      1.5837                 1.4652                 1.4186
 Frc consts  --      1.2923                 1.2495                 1.2173
 IR Inten    --      9.9069                 0.0000                17.3812

                     55                     56                     57
                      A                      A                      A
 Frequencies --   1234.0915              1250.3015              1275.3214
 Red. masses --      1.6178                 1.9175                 5.7348
 Frc consts  --      1.4517                 1.7661                 5.4955
 IR Inten    --      0.0000               107.1668                 0.0000

                     58                     59                     60
                      A                      A                      A
 Frequencies --   1298.8322              1307.1264              1318.4130
 Red. masses --      2.0057                 7.4943                 2.1924
 Frc consts  --      1.9935                 7.5442                 2.2453
 IR Inten    --    146.7061              1447.5630                 0.0000

                     61                     62                     63
                      A                      A                      A
 Frequencies --   1352.9859              1368.2534              1454.8333
 Red. masses --      9.1130                10.0444                 3.6986
 Frc consts  --      9.8287                11.0791                 4.6122
 IR Inten    --    244.8015                 0.0000               129.2854

                     64                     65                     66
                      A                      A                      A
 Frequencies --   1465.6794              1475.0495              1475.3778
 Red. masses --      3.9037                 1.2679                 1.2657
 Frc consts  --      4.9409                 1.6254                 1.6232
 IR Inten    --      0.0000                 8.4252                 0.0001

                     67                     68                     69
                      A                      A                      A
 Frequencies --   1494.1982              1494.2557              1502.9728
 Red. masses --      1.0454                 1.0454                 1.0614
 Frc consts  --      1.3751                 1.3752                 1.4127
 IR Inten    --      0.0081                20.3991                70.5700

                     70                     71                     72
                      A                      A                      A
 Frequencies --   1503.1321              1514.1982              1524.5227
 Red. masses --      1.0595                 2.8538                 2.8783
 Frc consts  --      1.4104                 3.8552                 3.9415
 IR Inten    --      0.0044                39.7037                 0.0000

                     73                     74                     75
                      A                      A                      A
 Frequencies --   1596.1245              1606.8114              1625.7214
 Red. masses --      6.7718                 7.8140                 6.5191
 Frc consts  --     10.1646                11.8865                10.1514
 IR Inten    --     61.0180                 0.0000               625.3234

                     76                     77                     78
                      A                      A                      A
 Frequencies --   1635.8914              1711.2678              1725.1204
 Red. masses --      6.1448                12.7543                11.7886
 Frc consts  --      9.6888                22.0061                20.6705
 IR Inten    --      0.0000                 0.0000               300.5964

                     79                     80                     81
                      A                      A                      A
 Frequencies --   3011.5450              3011.6878              3074.0495
 Red. masses --      1.0342                 1.0343                 1.1066
 Frc consts  --      5.5263                 5.5271                 6.1612
 IR Inten    --    121.8508                 0.0244                 1.0585

                     82                     83                     84
                      A                      A                      A
 Frequencies --   3074.0656              3141.2855              3141.3129
 Red. masses --      1.1066                 1.0998                 1.0998
 Frc consts  --      6.1612                 6.3940                 6.3940
 IR Inten    --     61.8320                38.6290                 0.0105

                     85                     86                     87
                      A                      A                      A
 Frequencies --   3192.6562              3192.6839              3207.1930
 Red. masses --      1.0884                 1.0883                 1.0911
 Frc consts  --      6.5363                 6.5363                 6.6124
 IR Inten    --      0.4870                 0.0007                13.5128

                     88                     89                     90
                      A                      A                      A
 Frequencies --   3207.3533              3209.1273              3209.1513
 Red. masses --      1.0909                 1.0929                 1.0930
 Frc consts  --      6.6121                 6.6316                 6.6324
 IR Inten    --      0.0045                13.7509                 0.6035

 - Thermochemistry -
 -------------------
 Temperature   298.150 Kelvin.  Pressure   1.00000 Atm.
 Atom     1 has atomic number  6 and mass  12.00000

 Molecular mass:   268.07356 amu.
 Principal axes and moments of inertia in atomic units:
                           1         2         3
     Eigenvalues --  1771.83913********************
           X            0.99392  -0.10932   0.01338
           Y            0.10954   0.99384  -0.01694
           Z           -0.01144   0.01830   0.99977
 This molecule is an asymmetric top.
 Rotational symmetry number  1.
 Warning -- assumption of classical behavior for rotation
           may cause significant error
 Rotational temperatures (Kelvin)      0.04888     0.00800     0.00689
 Rotational constants (GHZ):           1.01857     0.16671     0.14352
 Zero-point vibrational energy     639502.1 (Joules/Mol)
                                  152.84468 (Kcal/Mol)
 Warning -- explicit consideration of  26 degrees of freedom as
           vibrations may cause significant error
 Vibrational temperatures:     38.76   102.42   111.29   129.36   150.64
          (Kelvin)            179.49   222.48   271.05   277.04   317.30
                              323.68   367.80   411.78   417.11   451.35
                              473.41   513.44   596.67   626.02   644.78
                              653.90   681.65   747.95   771.35   833.16
                              853.35   913.97   972.97   982.87  1008.92
                             1029.89  1031.95  1097.10  1131.34  1147.92
                             1212.29  1213.55  1272.20  1328.33  1329.15
                             1411.86  1417.87  1420.10  1422.97  1515.96
                             1519.12  1599.78  1629.64  1672.81  1678.39
                             1678.41  1693.22  1730.93  1736.34  1775.58
                             1798.90  1834.90  1868.73  1880.66  1896.90
                             1946.64  1968.61  2093.18  2108.79  2122.27
                             2122.74  2149.82  2149.90  2162.44  2162.67
                             2178.59  2193.45  2296.47  2311.84  2339.05
                             2353.68  2462.13  2482.06  4332.94  4333.15
                             4422.87  4422.89  4519.61  4519.65  4593.52
                             4593.56  4614.44  4614.67  4617.22  4617.25

 Zero-point correction=                           0.243574 (Hartree/Particle)
 Thermal correction to Energy=                    0.260222
 Thermal correction to Enthalpy=                  0.261166
 Thermal correction to Gibbs Free Energy=         0.198982
 Sum of electronic and zero-point Energies=           -917.826836
 Sum of electronic and thermal Energies=              -917.810187
 Sum of electronic and thermal Enthalpies=            -917.809243
 Sum of electronic and thermal Free Energies=         -917.871427

                     E (Thermal)             CV                S
                      KCal/Mol        Cal/Mol-Kelvin    Cal/Mol-Kelvin
 Total                  163.292             64.322            130.877
 Electronic               0.000              0.000              0.000
 Translational            0.889              2.981             42.657
 Rotational               0.889              2.981             33.844
 Vibrational            161.514             58.360             54.376
 Vibration     1          0.593              1.984              6.043
 Vibration     2          0.598              1.968              4.120
 Vibration     3          0.599              1.964              3.957
 Vibration     4          0.602              1.956              3.662
 Vibration     5          0.605              1.945              3.365
 Vibration     6          0.610              1.928              3.025
 Vibration     7          0.620              1.898              2.614
 Vibration     8          0.633              1.856              2.244
 Vibration     9          0.635              1.850              2.203
 Vibration    10          0.647              1.810              1.955
 Vibration    11          0.650              1.803              1.919
 Vibration    12          0.666              1.753              1.691
 Vibration    13          0.684              1.699              1.496
 Vibration    14          0.686              1.693              1.475
 Vibration    15          0.702              1.648              1.343
 Vibration    16          0.712              1.617              1.265
 Vibration    17          0.732              1.561              1.136
 Vibration    18          0.778              1.438              0.910
 Vibration    19          0.796              1.394              0.842
 Vibration    20          0.807              1.365              0.801
 Vibration    21          0.813              1.351              0.782
 Vibration    22          0.831              1.308              0.727
 Vibration    23          0.875              1.206              0.610
 Vibration    24          0.891              1.170              0.574
 Vibration    25          0.936              1.077              0.487
 Vibration    26          0.951              1.046              0.462

                           ! Non-Optimized Parameters !
 Normal termination of Gaussian 16 at Wed Dec 27 20:46:09 2023.
