 Gaussian 16, Revision A.03,
 Gaussian 16:  ES64L-G16RevA.03 25-Dec-2016

 ----------------------------------------------------------------------
 #P UB3LYP/6-311++G(d,p) nosym opt freq SCRF=(PCM,Solvent=n,n-DiMethylF
 ormamide)
 ----------------------------------------------------------------------

 --------
 Oxidized
 --------
 Symbolic Z-matrix:
 Charge =  0 Multiplicity = 1

 SCF Done:  E(UB3LYP) =  -837.449750496     A.U. after   16 cycles
 SCF Done:  E(UB3LYP) =  -837.449979605     A.U. after   13 cycles
 SCF Done:  E(UB3LYP) =  -837.449766278     A.U. after   13 cycles
 SCF Done:  E(UB3LYP) =  -837.450113128     A.U. after   12 cycles
 SCF Done:  E(UB3LYP) =  -837.450120874     A.U. after   12 cycles
 SCF Done:  E(UB3LYP) =  -837.450125353     A.U. after   11 cycles
 SCF Done:  E(UB3LYP) =  -837.450128569     A.U. after   11 cycles
 SCF Done:  E(UB3LYP) =  -837.450129331     A.U. after   11 cycles
 SCF Done:  E(UB3LYP) =  -837.450129713     A.U. after   11 cycles
 SCF Done:  E(UB3LYP) =  -837.450129813     A.U. after    9 cycles
 SCF Done:  E(UB3LYP) =  -837.450129866     A.U. after    9 cycles
 SCF Done:  E(UB3LYP) =  -837.450129881     A.U. after    8 cycles
 Optimization completed.
    -- Stationary point found.
 Normal termination of Gaussian 16 at Sat Feb 10 11:39:32 2024.

 ----------------------------------------------------------------------
 #P Geom=AllCheck Guess=TCheck SCRF=Check GenChk UB3LYP/6-311++G(d,p) F
 req
 ----------------------------------------------------------------------

 Structure from the checkpoint file:  "098.chk"
 --------
 Oxidized
 --------
 Charge =  0 Multiplicity = 1

                          Input orientation:
 ---------------------------------------------------------------------
 Center     Atomic      Atomic             Coordinates (Angstroms)
 Number     Number       Type             X           Y           Z
 ---------------------------------------------------------------------
      1          6           0        1.369353    4.186648    5.217475
      2          6           0        1.850682    4.022265    3.822312
      3          6           0        1.638543    2.905049    3.109499
      4          6           0        0.934736    1.746362    3.736068
      5          6           0        0.374552    1.947488    5.095342
      6          6           0        0.535925    3.086245    5.786211
      7          8           0        1.690734    5.167444    5.865290
      8          8           0        0.842043    0.662326    3.187903
      9          1           0        2.398314    4.864689    3.416620
     10          6           0       -0.080610    3.211670    7.152300
     11          8           0       -0.050176    2.326216    7.977200
     12          8           0       -0.691181    4.382404    7.310299
     13          6           0       -1.348581    4.607729    8.582680
     14          1           0       -1.773855    5.604558    8.510350
     15          1           0       -0.619948    4.556052    9.391026
     16          1           0       -2.130245    3.864210    8.735250
     17          6           0        2.058142    2.802198    1.671992
     18          8           0        3.289534    3.280697    1.484782
     19          8           0        1.342351    2.368751    0.799474
     20          6           0        3.779263    3.295862    0.120108
     21          1           0       -0.175703    1.107838    5.504265
     22          1           0        4.782074    3.708567    0.182377
     23          1           0        3.139781    3.925290   -0.497972
     24          1           0        3.803031    2.281977   -0.277829
 ---------------------------------------------------------------------

 SCF Done:  E(UB3LYP) =  -837.450129881     A.U. after    2 cycles

 Alpha  occ. eigenvalues --  -19.19429 -19.19387 -19.15975 -19.15959 -19.14047
 Alpha  occ. eigenvalues --  -19.14029 -10.33512 -10.33486 -10.30874 -10.30844
 Alpha  occ. eigenvalues --  -10.24300 -10.24294 -10.23490 -10.23460 -10.23425
 Alpha  occ. eigenvalues --  -10.23424  -1.13754  -1.13686  -1.09096  -1.08923
 Alpha  occ. eigenvalues --   -1.04986  -1.04970  -0.89133  -0.83703  -0.76431
 Alpha  occ. eigenvalues --   -0.75421  -0.72648  -0.67987  -0.64492  -0.60386
 Alpha  occ. eigenvalues --   -0.58342  -0.55667  -0.55130  -0.54497  -0.50771
 Alpha  occ. eigenvalues --   -0.50597  -0.50233  -0.50081  -0.49062  -0.48062
 Alpha  occ. eigenvalues --   -0.46867  -0.46708  -0.44544  -0.44086  -0.43880
 Alpha  occ. eigenvalues --   -0.43091  -0.41840  -0.41437  -0.38309  -0.38209
 Alpha  occ. eigenvalues --   -0.33798  -0.33452  -0.33273  -0.33171  -0.31541
 Alpha  occ. eigenvalues --   -0.31030  -0.30800  -0.28875
 Alpha virt. eigenvalues --   -0.15554  -0.07825  -0.02968  -0.02294  -0.00678
 Alpha virt. eigenvalues --   -0.00127   0.01162   0.01323   0.01477   0.02810
 Alpha virt. eigenvalues --    0.03091   0.03157   0.03434   0.04420   0.04816

  Beta  occ. eigenvalues --  -19.19429 -19.19387 -19.15975 -19.15959 -19.14047
  Beta  occ. eigenvalues --  -19.14029 -10.33512 -10.33486 -10.30874 -10.30844
  Beta  occ. eigenvalues --  -10.24300 -10.24294 -10.23490 -10.23460 -10.23425
  Beta  occ. eigenvalues --  -10.23424  -1.13754  -1.13686  -1.09096  -1.08923
  Beta  occ. eigenvalues --   -1.04986  -1.04970  -0.89133  -0.83703  -0.76431
  Beta  occ. eigenvalues --   -0.75421  -0.72648  -0.67987  -0.64492  -0.60386
  Beta  occ. eigenvalues --   -0.58342  -0.55667  -0.55130  -0.54497  -0.50771
  Beta  occ. eigenvalues --   -0.50597  -0.50233  -0.50081  -0.49062  -0.48062
  Beta  occ. eigenvalues --   -0.46867  -0.46708  -0.44544  -0.44086  -0.43880
  Beta  occ. eigenvalues --   -0.43091  -0.41840  -0.41437  -0.38309  -0.38209
  Beta  occ. eigenvalues --   -0.33798  -0.33452  -0.33273  -0.33171  -0.31541
  Beta  occ. eigenvalues --   -0.31030  -0.30800  -0.28875
  Beta virt. eigenvalues --   -0.15554  -0.07825  -0.02968  -0.02294  -0.00678
  Beta virt. eigenvalues --   -0.00127   0.01162   0.01323   0.01477   0.02810
  Beta virt. eigenvalues --    0.03091   0.03157   0.03434   0.04420   0.04816

 Mulliken charges and spin densities:
               1          2
     1  C   -0.972191   0.000000
     2  C    0.016699   0.000000
     3  C    1.113694   0.000000
     4  C   -1.074138  -0.000000
     5  C   -0.021781   0.000000
     6  C    1.163212   0.000000
     7  O   -0.222282  -0.000000
     8  O   -0.233671   0.000000
     9  H    0.255054  -0.000000
    10  C   -0.165631  -0.000000
    11  O   -0.275256   0.000000
    12  O   -0.049533  -0.000000
    13  C   -0.260235  -0.000000
    14  H    0.180227  -0.000000
    15  H    0.199365  -0.000000
    16  H    0.187166   0.000000
    17  C   -0.064578  -0.000000
    18  O   -0.055099   0.000000
    19  O   -0.274795   0.000000
    20  C   -0.263105   0.000000
    21  H    0.250826   0.000000
    22  H    0.181995   0.000000
    23  H    0.195761   0.000000
    24  H    0.188296   0.000000
 Sum of Mulliken charges =  -0.00000  -0.00000

 Dipole moment (field-independent basis, Debye):
    X=              0.7429    Y=              3.6507    Z=             -0.2818  Tot=              3.7361
 Quadrupole moment (field-independent basis, Debye-Ang):
   XX=            -75.5853   YY=            -79.3516   ZZ=            -90.1615
   XY=              1.2776   XZ=            -18.9900   YZ=             10.7946

  Exact polarizability: 134.232  17.534 203.873 -22.086  48.279 208.026
 Approx polarizability: 150.505  28.720 273.279  -0.526  74.296 226.131

                      1                      2                      3
                      A                      A                      A
 Frequencies --     24.7943                32.7109                44.3401
 Red. masses --      6.2619                 6.1434                 6.8006
 Frc consts  --      0.0023                 0.0039                 0.0079
 IR Inten    --      4.3288                 3.5862                 1.7085

                      4                      5                      6
                      A                      A                      A
 Frequencies --     89.1027                97.0143               107.9542
 Red. masses --      4.1337                 4.8802                 4.1176
 Frc consts  --      0.0193                 0.0271                 0.0283
 IR Inten    --      0.9178                 6.9465                 0.2632

                      7                      8                      9
                      A                      A                      A
 Frequencies --    129.6112               137.8716               144.5555
 Red. masses --      1.8827                 1.1393                 1.8296
 Frc consts  --      0.0186                 0.0128                 0.0225
 IR Inten    --      5.8355                 0.3887                 0.5496

                     10                     11                     12
                      A                      A                      A
 Frequencies --    189.1356               206.8595               225.4579
 Red. masses --      4.9127                 5.1689                 7.9007
 Frc consts  --      0.1035                 0.1303                 0.2366
 IR Inten    --      1.2004                21.8705                 5.2021

                     13                     14                     15
                      A                      A                      A
 Frequencies --    253.8737               272.4652               311.6725
 Red. masses --      6.5641                 6.2745                 4.8084
 Frc consts  --      0.2493                 0.2744                 0.2752
 IR Inten    --     10.9270                 7.6939                11.5275

                     16                     17                     18
                      A                      A                      A
 Frequencies --    329.0993               340.2580               443.9750
 Red. masses --      4.8127                 9.5686                 4.4924
 Frc consts  --      0.3071                 0.6527                 0.5217
 IR Inten    --     40.6147                 3.8950                 2.0824

                     19                     20                     21
                      A                      A                      A
 Frequencies --    475.2247               485.5134               525.1569
 Red. masses --     10.4821                10.2149                 7.8487
 Frc consts  --      1.3947                 1.4187                 1.2753
 IR Inten    --      1.4105                 0.9135                56.5511

                     22                     23                     24
                      A                      A                      A
 Frequencies --    566.0056               620.0942               717.1154
 Red. masses --      5.7211                 7.7936                 6.7831
 Frc consts  --      1.0799                 1.7656                 2.0552
 IR Inten    --      5.3012                 2.3237                 1.7930

                     25                     26                     27
                      A                      A                      A
 Frequencies --    723.8260               781.6415               783.9878
 Red. masses --      8.0442                 6.4257                 3.3950
 Frc consts  --      2.4831                 2.3131                 1.2295
 IR Inten    --     16.9137                 4.6896                 1.4323

                     28                     29                     30
                      A                      A                      A
 Frequencies --    813.8234               821.9737               854.8732
 Red. masses --      6.4161                 9.4215                 4.1301
 Frc consts  --      2.5037                 3.7505                 1.7783
 IR Inten    --     49.1887                41.7600                 6.9913

                     31                     32                     33
                      A                      A                      A
 Frequencies --    910.2938               937.6189               950.8525
 Red. masses --      3.2307                 2.3740                 2.5122
 Frc consts  --      1.5773                 1.2296                 1.3382
 IR Inten    --     10.3328                 3.8899                57.8902

                     34                     35                     36
                      A                      A                      A
 Frequencies --    967.7511              1032.6659              1088.5811
 Red. masses --      2.3505                 8.6485                 4.4936
 Frc consts  --      1.2970                 5.4339                 3.1374
 IR Inten    --     44.7835                16.4247               429.3144

                     37                     38                     39
                      A                      A                      A
 Frequencies --   1166.6733              1167.9374              1197.4816
 Red. masses --      1.2771                 1.2792                 1.9462
 Frc consts  --      1.0242                 1.0281                 1.6443
 IR Inten    --      1.2561                 1.6093                48.5267

                     40                     41                     42
                      A                      A                      A
 Frequencies --   1203.3846              1217.8222              1227.1020
 Red. masses --      1.7279                 2.1812                 2.2961
 Frc consts  --      1.4743                 1.9060                 2.0370
 IR Inten    --     51.3508               106.0489                36.3609

                     43                     44                     45
                      A                      A                      A
 Frequencies --   1267.2337              1275.0039              1357.5209
 Red. masses --      2.9649                 3.8110                 2.2242
 Frc consts  --      2.8053                 3.6502                 2.4150
 IR Inten    --    392.3487               693.0975               143.5493

                     46                     47                     48
                      A                      A                      A
 Frequencies --   1375.8878              1468.2310              1468.7296
 Red. masses --      4.3248                 1.2099                 1.2157
 Frc consts  --      4.8238                 1.5367                 1.5451
 IR Inten    --     71.9303                44.5072                 6.5284

                     49                     50                     51
                      A                      A                      A
 Frequencies --   1475.7941              1476.1981              1483.2288
 Red. masses --      1.0451                 1.0440                 1.0462
 Frc consts  --      1.3411                 1.3405                 1.3561
 IR Inten    --     16.4628                17.1412                17.5274

                     52                     53                     54
                      A                      A                      A
 Frequencies --   1483.8718              1652.7211              1683.3216
 Red. masses --      1.0479                 8.8936                10.1629
 Frc consts  --      1.3594                14.3129                16.9669
 IR Inten    --     14.7660                12.8878                 0.2697

                     55                     56                     57
                      A                      A                      A
 Frequencies --   1705.2410              1716.3380              1744.4361
 Red. masses --     11.9330                10.6221                11.6350
 Frc consts  --     20.4442                18.4361                20.8606
 IR Inten    --    527.9202               430.3164               500.4638

                     58                     59                     60
                      A                      A                      A
 Frequencies --   1762.0865              3062.1953              3062.3925
 Red. masses --     11.5388                 1.0293                 1.0292
 Frc consts  --     21.1088                 5.6865                 5.6871
 IR Inten    --    652.0266                34.2070                25.3066

                     61                     62                     63
                      A                      A                      A
 Frequencies --   3142.4888              3142.6854              3176.5189
 Red. masses --      1.1083                 1.1084                 1.1069
 Frc consts  --      6.4487                 6.4496                 6.5804
 IR Inten    --     19.8106                19.9916                11.8074

                     64                     65                     66
                      A                      A                      A
 Frequencies --   3176.7436              3195.7307              3198.9648
 Red. masses --      1.1068                 1.0929                 1.0932
 Frc consts  --      6.5812                 6.5763                 6.5914
 IR Inten    --     12.6792                 0.7547                 0.2474

 - Thermochemistry -
 -------------------
 Temperature   298.150 Kelvin.  Pressure   1.00000 Atm.
 Atom     1 has atomic number  6 and mass  12.00000

 Molecular mass:   224.03209 amu.
 Principal axes and moments of inertia in atomic units:
                           1         2         3
     Eigenvalues --  1361.454276985.445377914.58699
           X           -0.41312   0.39603   0.82006
           Y            0.14410   0.91757  -0.37053
           Z            0.89920   0.03490   0.43614
 This molecule is an asymmetric top.
 Rotational symmetry number  1.
 Warning -- assumption of classical behavior for rotation
           may cause significant error
 Rotational temperatures (Kelvin)      0.06362     0.01240     0.01094
 Rotational constants (GHZ):           1.32560     0.25836     0.22803
 Zero-point vibrational energy     443645.4 (Joules/Mol)
                                  106.03379 (Kcal/Mol)
 Warning -- explicit consideration of  23 degrees of freedom as
           vibrations may cause significant error
 Vibrational temperatures:     35.67    47.06    63.80   128.20   139.58
          (Kelvin)            155.32   186.48   198.37   207.98   272.12
                              297.62   324.38   365.27   392.02   448.43
                              473.50   489.56   638.78   683.74   698.55
                              755.58   814.36   892.18  1031.77  1041.42
                             1124.61  1127.98  1170.91  1182.64  1229.97
                             1309.71  1349.02  1368.06  1392.38  1485.78
                             1566.23  1678.58  1680.40  1722.91  1731.40
                             1752.17  1765.53  1823.27  1834.45  1953.17
                             1979.60  2112.46  2113.17  2123.34  2123.92
                             2134.04  2134.96  2377.90  2421.92  2453.46
                             2469.43  2509.85  2535.25  4405.82  4406.10
                             4521.34  4521.62  4570.30  4570.63  4597.94
                             4602.60

 Zero-point correction=                           0.168976 (Hartree/Particle)
 Thermal correction to Energy=                    0.184680
 Thermal correction to Enthalpy=                  0.185624
 Thermal correction to Gibbs Free Energy=         0.123620
 Sum of electronic and zero-point Energies=           -837.281154
 Sum of electronic and thermal Energies=              -837.265450
 Sum of electronic and thermal Enthalpies=            -837.264506
 Sum of electronic and thermal Free Energies=         -837.326509

                     E (Thermal)             CV                S
                      KCal/Mol        Cal/Mol-Kelvin    Cal/Mol-Kelvin
 Total                  115.888             54.265            130.498
 Electronic               0.000              0.000              0.000
 Translational            0.889              2.981             42.122
 Rotational               0.889              2.981             32.687
 Vibrational            114.111             48.304             55.688
 Vibration     1          0.593              1.985              6.208
 Vibration     2          0.594              1.983              5.658
 Vibration     3          0.595              1.980              5.055
 Vibration     4          0.602              1.957              3.680
 Vibration     5          0.603              1.951              3.513
 Vibration     6          0.606              1.943              3.305
 Vibration     7          0.612              1.924              2.952
 Vibration     8          0.614              1.915              2.833
 Vibration     9          0.616              1.909              2.743
 Vibration    10          0.633              1.855              2.236
 Vibration    11          0.641              1.830              2.071
 Vibration    12          0.650              1.802              1.915
 Vibration    13          0.665              1.756              1.704
 Vibration    14          0.675              1.724              1.581
 Vibration    15          0.700              1.651              1.353
 Vibration    16          0.712              1.617              1.265
 Vibration    17          0.720              1.595              1.211
 Vibration    18          0.803              1.374              0.814
 Vibration    19          0.832              1.305              0.723
 Vibration    20          0.842              1.282              0.695
 Vibration    21          0.880              1.194              0.598
 Vibration    22          0.922              1.105              0.512
 Vibration    23          0.980              0.989              0.416

 Optimization completed.
    -- Stationary point found.
 Normal termination of Gaussian 16 at Sat Feb 10 12:31:41 2024.
