 Gaussian 16, Revision A.03,
 Gaussian 16:  ES64L-G16RevA.03 25-Dec-2016

 ----------------------------------------------------------------------
 #P UB3LYP/6-311++G(d,p) nosym opt freq SCRF=(PCM,Solvent=n,n-DiMethylF
 ormamide)
 ----------------------------------------------------------------------

 --------
 Oxidized
 --------
 Symbolic Z-matrix:
 Charge =  0 Multiplicity = 1

 SCF Done:  E(UB3LYP) =  -6108.89894389     A.U. after   16 cycles
 SCF Done:  E(UB3LYP) =  -6108.89916035     A.U. after   12 cycles
 SCF Done:  E(UB3LYP) =  -6108.89919399     A.U. after   13 cycles
 SCF Done:  E(UB3LYP) =  -6108.89924541     A.U. after   11 cycles
 SCF Done:  E(UB3LYP) =  -6108.89924787     A.U. after   10 cycles
 SCF Done:  E(UB3LYP) =  -6108.89925031     A.U. after   11 cycles
 SCF Done:  E(UB3LYP) =  -6108.89925101     A.U. after    9 cycles
 SCF Done:  E(UB3LYP) =  -6108.89925168     A.U. after   10 cycles
 SCF Done:  E(UB3LYP) =  -6108.89925268     A.U. after   11 cycles
 SCF Done:  E(UB3LYP) =  -6108.89925315     A.U. after   11 cycles
 Optimization completed.
    -- Stationary point found.
 Normal termination of Gaussian 16 at Sat Feb 10 12:02:57 2024.

 ----------------------------------------------------------------------
 #P Geom=AllCheck Guess=TCheck SCRF=Check GenChk UB3LYP/6-311++G(d,p) F
 req
 ----------------------------------------------------------------------

 Structure from the checkpoint file:  "025.chk"
 --------
 Oxidized
 --------
 Charge =  0 Multiplicity = 1

                          Input orientation:
 ---------------------------------------------------------------------
 Center     Atomic      Atomic             Coordinates (Angstroms)
 Number     Number       Type             X           Y           Z
 ---------------------------------------------------------------------
      1          6           0       -1.521310   -0.058327    1.549646
      2          6           0       -2.443078    1.140191    1.189171
      3          6           0       -2.216842    1.824687    0.009557
      4          6           0       -1.167855    1.462303   -0.882396
      5          6           0       -0.246062    0.263809   -0.521902
      6          6           0       -0.472300   -0.420688    0.657712
      7          8           0       -0.924795    2.039289   -1.944103
      8          8           0       -1.764328   -0.635270    2.611387
      9         35           0        0.571829   -1.922736    1.255468
     10         35           0       -3.260940    3.326765   -0.588179
     11          7           0        0.655542    0.093730   -1.480965
     12          7           0       -3.344663    1.310287    2.148251
     13          6           0       -4.485779    2.220846    2.328202
     14          6           0       -5.765661    1.626817    1.711983
     15          6           0       -6.975471    2.535246    1.975322
     16          6           0       -7.158110    2.813628    3.473303
     17          6           0       -5.877319    3.389395    4.092145
     18          6           0       -4.663698    2.485537    3.830864
     19          6           0        1.796683   -0.816804   -1.660890
     20          6           0        3.076539   -0.222742   -1.044648
     21          6           0        1.974638   -1.081499   -3.163546
     22          6           0        3.188286   -1.985330   -3.424799
     23          6           0        4.286374   -1.131144   -1.307958
     24          6           0        4.469051   -1.409529   -2.805934
     25          1           0        0.541675    0.802030   -2.207912
     26          1           0       -3.230802    0.601977    2.875189
     27          1           0       -4.253932    3.161455    1.833621
     28          1           0       -5.940953    0.637463    2.151938
     29          1           0       -5.620409    1.481126    0.638122
     30          1           0       -7.875746    2.072627    1.559874
     31          1           0       -6.837513    3.484678    1.442839
     32          1           0       -7.419765    1.879276    3.985936
     33          1           0       -7.993771    3.502736    3.629802
     34          1           0       -6.002057    3.527490    5.170181
     35          1           0       -5.684346    4.383462    3.670007
     36          1           0       -4.804187    1.527824    4.349371
     37          1           0       -3.753329    2.939703    4.233061
     38          1           0        1.564847   -1.757415   -1.166309
     39          1           0        2.931262   -0.077049    0.029210
     40          1           0        3.251817    0.766614   -1.484605
     41          1           0        2.115114   -0.123785   -3.682056
     42          1           0        1.064287   -1.535688   -3.565760
     43          1           0        3.313048   -2.123427   -4.502832
     44          1           0        2.995327   -2.979399   -3.002660
     45          1           0        4.148428   -2.080577   -0.775474
     46          1           0        5.186630   -0.668502   -0.892494
     47          1           0        5.304731   -2.098618   -2.962413
     48          1           0        4.730694   -0.475174   -3.318566
 ---------------------------------------------------------------------

 SCF Done:  E(UB3LYP) =  -6108.89925315     A.U. after    2 cycles

 Alpha  occ. eigenvalues -- -482.83801-482.83801 -62.49077 -62.49077 -56.31122
 Alpha  occ. eigenvalues --  -56.31122 -56.30726 -56.30726 -56.30706 -56.30706
 Alpha  occ. eigenvalues --  -19.12816 -19.12815 -14.37063 -14.37063 -10.28739
 Alpha  occ. eigenvalues --  -10.28739 -10.27227 -10.27226 -10.23379 -10.23378
 Alpha  occ. eigenvalues --  -10.22259 -10.22259 -10.17509 -10.17509 -10.17249
 Alpha  occ. eigenvalues --  -10.17249 -10.16881 -10.16881 -10.16794 -10.16794
 Alpha  occ. eigenvalues --  -10.16520 -10.16520  -8.70052  -8.70052  -6.53210
 Alpha  occ. eigenvalues --   -6.53210  -6.51900  -6.51900  -6.51856  -6.51856
 Alpha  occ. eigenvalues --   -2.64298  -2.64297  -2.63928  -2.63928  -2.63897
 Alpha  occ. eigenvalues --   -2.63897  -2.62857  -2.62857  -2.62855  -2.62855
 Alpha  occ. eigenvalues --   -1.06945  -1.06641  -0.97856  -0.97810  -0.86715
 Alpha  occ. eigenvalues --   -0.84518  -0.83539  -0.82688  -0.78904  -0.76948
 Alpha  occ. eigenvalues --   -0.75140  -0.75076  -0.74892  -0.72079  -0.69105
 Alpha  occ. eigenvalues --   -0.64896  -0.63254  -0.63039  -0.62036  -0.61499
 Alpha  occ. eigenvalues --   -0.58177  -0.57967  -0.56617  -0.54953  -0.54011
 Alpha  occ. eigenvalues --   -0.53893  -0.50095  -0.48730  -0.47296  -0.47033
 Alpha  occ. eigenvalues --   -0.46586  -0.45681  -0.45280  -0.45052  -0.44694
 Alpha  occ. eigenvalues --   -0.44449  -0.44153  -0.42944  -0.42892  -0.41450
 Alpha  occ. eigenvalues --   -0.40850  -0.40753  -0.40078  -0.38829  -0.38772
 Alpha  occ. eigenvalues --   -0.38707  -0.37251  -0.36600  -0.35971  -0.35302
 Alpha  occ. eigenvalues --   -0.35187  -0.34701  -0.32998  -0.32933  -0.32669
 Alpha  occ. eigenvalues --   -0.32317  -0.32224  -0.32117  -0.30686  -0.30404
 Alpha  occ. eigenvalues --   -0.30202  -0.30049  -0.29167  -0.28302  -0.25028
 Alpha  occ. eigenvalues --   -0.22398
 Alpha virt. eigenvalues --   -0.11451  -0.02799  -0.02426  -0.00729  -0.00444
 Alpha virt. eigenvalues --   -0.00350   0.00410   0.00413   0.00590   0.01010
 Alpha virt. eigenvalues --    0.01036   0.01368   0.02035   0.02664   0.03261

  Beta  occ. eigenvalues -- -482.83801-482.83801 -62.49077 -62.49077 -56.31122
  Beta  occ. eigenvalues --  -56.31122 -56.30726 -56.30726 -56.30706 -56.30706
  Beta  occ. eigenvalues --  -19.12816 -19.12815 -14.37063 -14.37063 -10.28739
  Beta  occ. eigenvalues --  -10.28739 -10.27227 -10.27226 -10.23379 -10.23378
  Beta  occ. eigenvalues --  -10.22259 -10.22259 -10.17509 -10.17509 -10.17249
  Beta  occ. eigenvalues --  -10.17249 -10.16881 -10.16881 -10.16794 -10.16794
  Beta  occ. eigenvalues --  -10.16520 -10.16520  -8.70052  -8.70052  -6.53210
  Beta  occ. eigenvalues --   -6.53210  -6.51900  -6.51900  -6.51856  -6.51856
  Beta  occ. eigenvalues --   -2.64298  -2.64297  -2.63928  -2.63928  -2.63897
  Beta  occ. eigenvalues --   -2.63897  -2.62857  -2.62857  -2.62855  -2.62855
  Beta  occ. eigenvalues --   -1.06945  -1.06641  -0.97856  -0.97810  -0.86715
  Beta  occ. eigenvalues --   -0.84518  -0.83539  -0.82688  -0.78904  -0.76948
  Beta  occ. eigenvalues --   -0.75140  -0.75076  -0.74892  -0.72079  -0.69105
  Beta  occ. eigenvalues --   -0.64896  -0.63254  -0.63039  -0.62036  -0.61499
  Beta  occ. eigenvalues --   -0.58177  -0.57967  -0.56617  -0.54953  -0.54011
  Beta  occ. eigenvalues --   -0.53893  -0.50095  -0.48730  -0.47296  -0.47033
  Beta  occ. eigenvalues --   -0.46586  -0.45681  -0.45280  -0.45052  -0.44694
  Beta  occ. eigenvalues --   -0.44449  -0.44153  -0.42944  -0.42892  -0.41450
  Beta  occ. eigenvalues --   -0.40850  -0.40753  -0.40078  -0.38829  -0.38772
  Beta  occ. eigenvalues --   -0.38707  -0.37251  -0.36600  -0.35971  -0.35302
  Beta  occ. eigenvalues --   -0.35187  -0.34701  -0.32998  -0.32933  -0.32669
  Beta  occ. eigenvalues --   -0.32317  -0.32224  -0.32117  -0.30686  -0.30404
  Beta  occ. eigenvalues --   -0.30202  -0.30049  -0.29167  -0.28302  -0.25028
  Beta  occ. eigenvalues --   -0.22398
  Beta virt. eigenvalues --   -0.11451  -0.02799  -0.02426  -0.00729  -0.00444
  Beta virt. eigenvalues --   -0.00350   0.00410   0.00413   0.00590   0.01010
  Beta virt. eigenvalues --    0.01036   0.01368   0.02035   0.02664   0.03261

 Mulliken charges and spin densities:
               1          2
     1  C   -0.344865  -0.000000
     2  C   -0.355504   0.000000
     3  C    0.414464  -0.000000
     4  C   -0.345085  -0.000000
     5  C   -0.355605   0.000000
     6  C    0.414417  -0.000000
     7  O   -0.287016  -0.000000
     8  O   -0.287023  -0.000000
     9  Br  -0.073758  -0.000000
    10  Br  -0.073751  -0.000000
    11  N    0.317495  -0.000000
    12  N    0.317501  -0.000000
    13  C   -0.365961   0.000000
    14  C   -0.009037  -0.000000
    15  C   -0.351340   0.000000
    16  C   -0.390502  -0.000000
    17  C   -0.439692   0.000000
    18  C   -0.211352  -0.000000
    19  C   -0.365968   0.000000
    20  C   -0.009039  -0.000000
    21  C   -0.211342  -0.000000
    22  C   -0.439696   0.000000
    23  C   -0.351342   0.000000
    24  C   -0.390502  -0.000000
    25  H    0.361572  -0.000000
    26  H    0.361567  -0.000000
    27  H    0.095456   0.000000
    28  H    0.171988   0.000000
    29  H    0.158171  -0.000000
    30  H    0.180190  -0.000000
    31  H    0.147385  -0.000000
    32  H    0.133332  -0.000000
    33  H    0.178422   0.000000
    34  H    0.192001  -0.000000
    35  H    0.148841  -0.000000
    36  H    0.138430   0.000000
    37  H    0.191466  -0.000000
    38  H    0.095455   0.000000
    39  H    0.158170   0.000000
    40  H    0.171989   0.000000
    41  H    0.138430  -0.000000
    42  H    0.191465   0.000000
    43  H    0.192001   0.000000
    44  H    0.148842  -0.000000
    45  H    0.147385  -0.000000
    46  H    0.180190  -0.000000
    47  H    0.178422   0.000000
    48  H    0.133332  -0.000000
 Sum of Mulliken charges =  -0.00000   0.00000

 Dipole moment (field-independent basis, Debye):
    X=             -0.0000    Y=             -0.0000    Z=              0.0000  Tot=              0.0000
 Quadrupole moment (field-independent basis, Debye-Ang):
   XX=           -139.3364   YY=           -175.9947   ZZ=           -169.2807
   XY=            -10.7165   XZ=            -22.4901   YZ=             20.5393

  Exact polarizability: 423.956 -62.272 349.416 -97.899 -31.916 437.432
 Approx polarizability: 429.282 -35.667 386.281-111.249 -65.419 523.687

                      1                      2                      3
                      A                      A                      A
 Frequencies --      9.1226                22.2779                30.0356
 Red. masses --      5.7032                 5.8055                 3.4442
 Frc consts  --      0.0003                 0.0017                 0.0018
 IR Inten    --      1.7063                 0.0000                 0.3609

                      4                      5                      6
                      A                      A                      A
 Frequencies --     40.3903                45.0967                51.7706
 Red. masses --      3.6276                 7.0978                 4.1826
 Frc consts  --      0.0035                 0.0085                 0.0066
 IR Inten    --      0.0000                 0.6582                 0.2320

                      7                      8                      9
                      A                      A                      A
 Frequencies --     65.2087                77.9647                94.8625
 Red. masses --      4.5312                 6.2784                 7.1755
 Frc consts  --      0.0114                 0.0225                 0.0380
 IR Inten    --      0.0000                 6.9052                 0.0000

                     10                     11                     12
                      A                      A                      A
 Frequencies --    139.6583               146.9765               157.5898
 Red. masses --      9.4840                 5.6095                 3.5618
 Frc consts  --      0.1090                 0.0714                 0.0521
 IR Inten    --      1.2711                 0.0000                 2.4299

                     13                     14                     15
                      A                      A                      A
 Frequencies --    162.2901               179.2489               195.6257
 Red. masses --      3.8338                 8.9103                29.2658
 Frc consts  --      0.0595                 0.1687                 0.6599
 IR Inten    --      0.0000                 0.6358                 0.0000

                     16                     17                     18
                      A                      A                      A
 Frequencies --    230.7494               230.8978               235.2704
 Red. masses --      2.0210                 1.8206                 4.4940
 Frc consts  --      0.0634                 0.0572                 0.1466
 IR Inten    --      1.4012                 0.0000                 4.2625

                     19                     20                     21
                      A                      A                      A
 Frequencies --    235.5112               261.0334               313.8306
 Red. masses --      4.9600                10.4208                 3.3026
 Frc consts  --      0.1621                 0.4184                 0.1916
 IR Inten    --      0.0000                 0.0000                 1.8147

                     22                     23                     24
                      A                      A                      A
 Frequencies --    333.6277               341.0993               346.7548
 Red. masses --      2.0261                 2.4385                 4.1618
 Frc consts  --      0.1329                 0.1672                 0.2948
 IR Inten    --      0.0000                 4.7344                 0.0000

                     25                     26                     27
                      A                      A                      A
 Frequencies --    361.0663               420.0728               435.7414
 Red. masses --      6.0955                 3.8094                 2.5438
 Frc consts  --      0.4682                 0.3961                 0.2846
 IR Inten    --      3.5556                 0.0000                 0.3391

                     28                     29                     30
                      A                      A                      A
 Frequencies --    445.9100               453.7794               462.2556
 Red. masses --      3.4271                 3.1108                 3.0404
 Frc consts  --      0.4015                 0.3774                 0.3828
 IR Inten    --      0.0000                 3.6052                 0.0000

                     31                     32                     33
                      A                      A                      A
 Frequencies --    470.8074               471.3722               540.2755
 Red. masses --      3.3464                 2.5611                 3.5901
 Frc consts  --      0.4370                 0.3353                 0.6174
 IR Inten    --      0.0000                69.8167                 0.0000

                     34                     35                     36
                      A                      A                      A
 Frequencies --    552.7406               564.2343               582.1177
 Red. masses --      2.2421                 3.8504                10.1472
 Frc consts  --      0.4036                 0.7222                 2.0259
 IR Inten    --     85.5729                 0.0000                76.9707

                     37                     38                     39
                      A                      A                      A
 Frequencies --    595.9173               598.3884               742.2972
 Red. masses --      6.8596                 5.0695                 2.5826
 Frc consts  --      1.4352                 1.0695                 0.8384
 IR Inten    --     33.6806                 0.0000                 0.0000

                     40                     41                     42
                      A                      A                      A
 Frequencies --    757.6011               760.1029               760.5736
 Red. masses --      1.7935                 4.1696                 5.5160
 Frc consts  --      0.6065                 1.4194                 1.8800
 IR Inten    --    150.6925                57.6990                 0.0000

                     43                     44                     45
                      A                      A                      A
 Frequencies --    771.5255               778.6019               795.0887
 Red. masses --      2.8095                 1.6978                 1.4774
 Frc consts  --      0.9853                 0.6064                 0.5503
 IR Inten    --     55.7333                 0.0000                 0.0001

                     46                     47                     48
                      A                      A                      A
 Frequencies --    795.1408               799.1068               802.5010
 Red. masses --      1.4634                 3.6285                 2.5621
 Frc consts  --      0.5451                 1.3652                 0.9722
 IR Inten    --      1.2537                 0.0000                15.0103

                     49                     50                     51
                      A                      A                      A
 Frequencies --    831.7994               850.1591               851.2854
 Red. masses --      4.2264                 2.0481                 2.1163
 Frc consts  --      1.7229                 0.8722                 0.9036
 IR Inten    --      0.0000                 0.0000                11.3831

                     52                     53                     54
                      A                      A                      A
 Frequencies --    896.7419               898.1709               900.1629
 Red. masses --      1.8214                 1.7869                 1.8938
 Frc consts  --      0.8629                 0.8493                 0.9041
 IR Inten    --     18.4218                 0.0000                23.7474

                     55                     56                     57
                      A                      A                      A
 Frequencies --    911.4464               932.2842               933.0011
 Red. masses --      1.9062                 1.5591                 1.5941
 Frc consts  --      0.9330                 0.7984                 0.8176
 IR Inten    --      0.0000                 0.1254                 0.0000

                     58                     59                     60
                      A                      A                      A
 Frequencies --    973.9786               975.7631               999.5578
 Red. masses --      2.4672                 2.4379                 6.0841
 Frc consts  --      1.3790                 1.3676                 3.5815
 IR Inten    --     83.5184                 0.0000               158.9165

                     61                     62                     63
                      A                      A                      A
 Frequencies --   1033.7835              1033.8170              1059.7973
 Red. masses --      1.8361                 1.8303                 1.6905
 Frc consts  --      1.1561                 1.1525                 1.1187
 IR Inten    --      7.7366                 0.0000                 0.0000

                     64                     65                     66
                      A                      A                      A
 Frequencies --   1061.4657              1076.4103              1076.9634
 Red. masses --      1.6226                 3.5032                 3.0900
 Frc consts  --      1.0771                 2.3915                 2.1116
 IR Inten    --     30.4627                66.7931                 0.0000

                     67                     68                     69
                      A                      A                      A
 Frequencies --   1091.1084              1091.1204              1095.4859
 Red. masses --      1.7753                 1.8464                 1.4423
 Frc consts  --      1.2453                 1.2951                 1.0198
 IR Inten    --      0.0009                 2.2285                 0.0000

                     70                     71                     72
                      A                      A                      A
 Frequencies --   1095.7741              1167.7059              1168.4510
 Red. masses --      1.4061                 2.4506                 2.4379
 Frc consts  --      0.9947                 1.9688                 1.9611
 IR Inten    --      8.2501                 0.0000                21.5929

                     73                     74                     75
                      A                      A                      A
 Frequencies --   1205.8652              1206.4400              1232.4682
 Red. masses --      1.5461                 1.5319                 2.7007
 Frc consts  --      1.3246                 1.3137                 2.4170
 IR Inten    --      0.0000                16.8481                 0.0000

                     76                     77                     78
                      A                      A                      A
 Frequencies --   1235.5700              1274.1556              1274.2221
 Red. masses --      2.8154                 1.3172                 1.3232
 Frc consts  --      2.5324                 1.2599                 1.2658
 IR Inten    --    129.6941                 0.0000                29.6636

                     79                     80                     81
                      A                      A                      A
 Frequencies --   1284.9685              1284.9774              1291.9529
 Red. masses --      1.2653                 1.2655                 1.3796
 Frc consts  --      1.2309                 1.2312                 1.3567
 IR Inten    --      0.0034                 5.7151                11.8698

                     82                     83                     84
                      A                      A                      A
 Frequencies --   1292.5144              1328.4100              1337.4225
 Red. masses --      1.3765                 5.1330                 1.3423
 Frc consts  --      1.3549                 5.3368                 1.4146
 IR Inten    --      0.0000               321.3328                 0.0000

                     85                     86                     87
                      A                      A                      A
 Frequencies --   1337.7248              1340.5761              1351.9905
 Red. masses --      1.2947                 2.5974                 1.2878
 Frc consts  --      1.3651                 2.7502                 1.3869
 IR Inten    --      3.6263                 0.0000                 6.4524

                     88                     89                     90
                      A                      A                      A
 Frequencies --   1354.8352              1364.5787              1364.5895
 Red. masses --      1.5600                 1.3721                 1.3748
 Frc consts  --      1.6872                 1.5053                 1.5083
 IR Inten    --      0.0000                 0.4675                 0.0001

                     91                     92                     93
                      A                      A                      A
 Frequencies --   1367.4986              1367.5979              1374.8450
 Red. masses --      1.3584                 1.3618                 1.4398
 Frc consts  --      1.4967                 1.5007                 1.6035
 IR Inten    --      5.1787                 0.0000                 2.2326

                     94                     95                     96
                      A                      A                      A
 Frequencies --   1374.8579              1378.5023              1379.1086
 Red. masses --      1.4386                 1.4422                 1.4435
 Frc consts  --      1.6021                 1.6147                 1.6176
 IR Inten    --      0.0002                93.8880                 0.0000

                     97                     98                     99
                      A                      A                      A
 Frequencies --   1401.0399              1402.2418              1478.9026
 Red. masses --      1.3982                 1.4136                 1.0881
 Frc consts  --      1.6170                 1.6376                 1.4022
 IR Inten    --     49.8747                 0.0000                 2.6278

                    100                    101                    102
                      A                      A                      A
 Frequencies --   1478.9143              1481.9406              1481.9502
 Red. masses --      1.0880                 1.0919                 1.0920
 Frc consts  --      1.4020                 1.4129                 1.4130
 IR Inten    --      0.0042                 4.8237                 0.0004

                    103                    104                    105
                      A                      A                      A
 Frequencies --   1483.8971              1483.9146              1487.2461
 Red. masses --      1.0948                 1.0945                 1.0870
 Frc consts  --      1.4204                 1.4200                 1.4167
 IR Inten    --      0.0036                22.0225                 0.1320

                    106                    107                    108
                      A                      A                      A
 Frequencies --   1487.2498              1499.4339              1499.5248
 Red. masses --      1.0866                 1.0996                 1.0991
 Frc consts  --      1.4161                 1.4566                 1.4561
 IR Inten    --     34.3669                 9.8399                 0.0000

                    109                    110                    111
                      A                      A                      A
 Frequencies --   1532.0121              1535.0553              1582.3398
 Red. masses --      2.4208                 2.6631                 2.8426
 Frc consts  --      3.3476                 3.6973                 4.1934
 IR Inten    --      0.0000              3764.5943              1777.4648

                    112                    113                    114
                      A                      A                      A
 Frequencies --   1606.8900              1654.8320              1687.2069
 Red. masses --      3.6802                 8.2662                 9.1624
 Frc consts  --      5.5987                13.3371                15.3672
 IR Inten    --      0.0000                 0.0000                64.3284

                    115                    116                    117
                      A                      A                      A
 Frequencies --   3000.5182              3000.5231              3002.2935
 Red. masses --      1.0678                 1.0678                 1.0708
 Frc consts  --      5.6641                 5.6640                 5.6869
 IR Inten    --     70.2794                 0.0007                56.7879

                    118                    119                    120
                      A                      A                      A
 Frequencies --   3002.3092              3007.2565              3007.2702
 Red. masses --      1.0708                 1.0655                 1.0655
 Frc consts  --      5.6871                 5.6775                 5.6776
 IR Inten    --      0.0002                30.2389                 0.0003

                    121                    122                    123
                      A                      A                      A
 Frequencies --   3010.8695              3010.8710              3014.5518
 Red. masses --      1.0623                 1.0623                 1.0631
 Frc consts  --      5.6739                 5.6739                 5.6923
 IR Inten    --    113.6635                 0.0107               144.5221

                    124                    125                    126
                      A                      A                      A
 Frequencies --   3014.5646              3053.1092              3053.1217
 Red. masses --      1.0632                 1.0943                 1.0943
 Frc consts  --      5.6925                 6.0099                 6.0101
 IR Inten    --      0.0794               210.4736                 0.0002

                    127                    128                    129
                      A                      A                      A
 Frequencies --   3055.5387              3055.5423              3059.1400
 Red. masses --      1.0967                 1.0967                 1.0967
 Frc consts  --      6.0326                 6.0327                 6.0468
 IR Inten    --      0.0046               187.2754               147.2386

                    130                    131                    132
                      A                      A                      A
 Frequencies --   3059.1558              3060.4395              3060.4456
 Red. masses --      1.0967                 1.0994                 1.0995
 Frc consts  --      6.0468                 6.0671                 6.0673
 IR Inten    --      0.0006                 0.0358               135.0066

                    133                    134                    135
                      A                      A                      A
 Frequencies --   3068.2105              3068.2122              3122.4507
 Red. masses --      1.0981                 1.0981                 1.0851
 Frc consts  --      6.0905                 6.0905                 6.2331
 IR Inten    --      0.7472                89.8846                41.9883

                    136                    137                    138
                      A                      A                      A
 Frequencies --   3122.5058              3427.5849              3431.4206
 Red. masses --      1.0851                 1.0743                 1.0747
 Frc consts  --      6.2335                 7.4360                 7.4556
 IR Inten    --      0.0037                 0.0000               456.9081

 - Thermochemistry -
 -------------------
 Temperature   298.150 Kelvin.  Pressure   1.00000 Atm.
 Atom     1 has atomic number  6 and mass  12.00000

 Molecular mass:   458.02045 amu.
 Principal axes and moments of inertia in atomic units:
                           1         2         3
     Eigenvalues --  5635.29196********************
           X            0.82235   0.01751   0.56872
           Y           -0.44035  -0.61340   0.65562
           Z           -0.36033   0.78958   0.49672
 This molecule is an asymmetric top.
 Rotational symmetry number  1.
 Warning -- assumption of classical behavior for rotation
           may cause significant error
 Rotational temperatures (Kelvin)      0.01537     0.00375     0.00315
 Rotational constants (GHZ):           0.32026     0.07813     0.06569
 Zero-point vibrational energy    1048577.8 (Joules/Mol)
                                  250.61610 (Kcal/Mol)
 Warning -- explicit consideration of  38 degrees of freedom as
           vibrations may cause significant error
 Vibrational temperatures:     13.13    32.05    43.21    58.11    64.88
          (Kelvin)             74.49    93.82   112.17   136.49   200.94
                              211.47   226.74   233.50   257.90   281.46
                              332.00   332.21   338.50   338.85   375.57
                              451.53   480.02   490.77   498.90   519.49
                              604.39   626.93   641.57   652.89   665.08
                              677.39   678.20   777.34   795.27   811.81
                              837.54   857.39   860.95  1068.00  1090.02
                             1093.62  1094.30  1110.05  1120.23  1143.96
                             1144.03  1149.74  1154.62  1196.77  1223.19
                             1224.81  1290.21  1292.27  1295.13  1311.37
                             1341.35  1342.38  1401.34  1403.91  1438.14
                             1487.38  1487.43  1524.81  1527.21  1548.71
                             1549.51  1569.86  1569.88  1576.16  1576.57
                             1680.07  1681.14  1734.97  1735.80  1773.25
                             1777.71  1833.23  1833.32  1848.78  1848.80
                             1858.83  1859.64  1911.29  1924.25  1924.69
                             1928.79  1945.21  1949.31  1963.32  1963.34
                             1967.53  1967.67  1978.10  1978.11  1983.36
                             1984.23  2015.78  2017.51  2127.81  2127.83
                             2132.18  2132.20  2135.00  2135.02  2139.82
                             2139.82  2157.35  2157.48  2204.22  2208.60
                             2276.63  2311.96  2380.93  2427.51  4317.08
                             4317.08  4319.63  4319.65  4326.77  4326.79
                             4331.97  4331.97  4337.27  4337.29  4392.74
                             4392.76  4396.24  4396.24  4401.42  4401.44
                             4403.29  4403.30  4414.47  4414.47  4492.51
                             4492.59  4931.53  4937.05

 Zero-point correction=                           0.399382 (Hartree/Particle)
 Thermal correction to Energy=                    0.422919
 Thermal correction to Enthalpy=                  0.423863
 Thermal correction to Gibbs Free Energy=         0.341943
 Sum of electronic and zero-point Energies=          -6108.499871
 Sum of electronic and thermal Energies=             -6108.476334
 Sum of electronic and thermal Enthalpies=           -6108.475390
 Sum of electronic and thermal Free Energies=        -6108.557310

                     E (Thermal)             CV                S
                      KCal/Mol        Cal/Mol-Kelvin    Cal/Mol-Kelvin
 Total                  265.386             88.993            172.416
 Electronic               0.000              0.000              0.000
 Translational            0.889              2.981             44.254
 Rotational               0.889              2.981             36.523
 Vibrational            263.608             83.032             91.639
 Vibration     1          0.593              1.987              8.193
 Vibration     2          0.593              1.985              6.420
 Vibration     3          0.594              1.984              5.827
 Vibration     4          0.594              1.981              5.240
 Vibration     5          0.595              1.979              5.022
 Vibration     6          0.596              1.977              4.749
 Vibration     7          0.597              1.971              4.293
 Vibration     8          0.599              1.964              3.941
 Vibration     9          0.603              1.953              3.557
 Vibration    10          0.615              1.914              2.809
 Vibration    11          0.617              1.906              2.711
 Vibration    12          0.621              1.894              2.579
 Vibration    13          0.622              1.889              2.523
 Vibration    14          0.629              1.868              2.336
 Vibration    15          0.636              1.846              2.174
 Vibration    16          0.652              1.794              1.873
 Vibration    17          0.653              1.794              1.872
 Vibration    18          0.655              1.787              1.838
 Vibration    19          0.655              1.786              1.837
 Vibration    20          0.669              1.744              1.655
 Vibration    21          0.702              1.647              1.342
 Vibration    22          0.715              1.608              1.242
 Vibration    23          0.721              1.593              1.207
 Vibration    24          0.725              1.582              1.181
 Vibration    25          0.735              1.552              1.118
 Vibration    26          0.783              1.427              0.892
 Vibration    27          0.796              1.392              0.840
 Vibration    28          0.805              1.370              0.808
 Vibration    29          0.812              1.353              0.784
 Vibration    30          0.820              1.334              0.760
 Vibration    31          0.828              1.315              0.735
 Vibration    32          0.828              1.314              0.734
 Vibration    33          0.895              1.161              0.565
 Vibration    34          0.908              1.134              0.539
 Vibration    35          0.920              1.109              0.515
 Vibration    36          0.939              1.070              0.481
 Vibration    37          0.954              1.040              0.457
 Vibration    38          0.956              1.035              0.452

                           ! Non-Optimized Parameters !
 Normal termination of Gaussian 16 at Sat Feb 10 14:59:47 2024.
