 Q-Chem 5.4, Q-Chem, Inc., Pleasanton, CA (2021)
 Q-Chem 5.4.0 for Intel X86 EM64T Linux

User input:
--------------------------------------------------------------
$molecule
-1 2
Cl                -2.6621130000     -1.7380530000     -0.0115800000
C                 -1.2001950000     -0.7452470000     -0.0061050000
C                 -1.3153630000      0.6114060000     -0.0381800000
C                 -0.1661540000      1.4911170000     -0.0360560000
O                 -0.2821950000      2.7373530000     -0.0656340000
C                  1.1241190000      0.8061200000      0.0033070000
C                  1.2256610000     -0.5635990000      0.0354150000
Cl                 2.7861320000     -1.3620180000      0.0823790000
C                  0.0667780000     -1.4604740000      0.0333900000
O                  0.1648980000     -2.7018310000      0.0626630000
Cl                 2.5443730000      1.8345430000      0.0073280000
H                 -2.2859410000      1.0906810000     -0.0669270000
$end
$rem
MAX_SCF_CYCLES=200
BASIS  =  6-311++G(d,p)
GUI  =  2
JOB_TYPE  =  SP
METHOD  =  B3LYP
SOLVENT_METHOD = PCM
$end
$pcm
theory = CPCM
$end
$solvent
dielectric 37.219
opticaldielectric 1.43
$end

--------------------------------------------------------------

             Standard Nuclear Orientation (Angstroms)
    I     Atom           X                Y                Z
 ----------------------------------------------------------------
    1      Cl     -2.6621130000    -1.7380530000    -0.0115800000
    2      C      -1.2001950000    -0.7452470000    -0.0061050000
    3      C      -1.3153630000     0.6114060000    -0.0381800000
    4      C      -0.1661540000     1.4911170000    -0.0360560000
    5      O      -0.2821950000     2.7373530000    -0.0656340000
    6      C       1.1241190000     0.8061200000     0.0033070000
    7      C       1.2256610000    -0.5635990000     0.0354150000
    8      Cl      2.7861320000    -1.3620180000     0.0823790000
    9      C       0.0667780000    -1.4604740000     0.0333900000
   10      O       0.1648980000    -2.7018310000     0.0626630000
   11      Cl      2.5443730000     1.8345430000     0.0073280000
   12      H      -2.2859410000     1.0906810000    -0.0669270000
 ----------------------------------------------------------------

    9   -1760.5966002629      6.29e-06  Convergence criterion met
 Total energy in the final basis set =    -1760.5966002629

                    Orbital Energies (a.u.)
 --------------------------------------------------------------

 Alpha MOs
 -- Occupied --
********-101.5613-101.5572 -19.1019 -19.0995 -10.2558 -10.2509 -10.2474
-10.2449 -10.2403 -10.1866  -9.4762  -9.4757  -9.4716  -7.2407  -7.2403
 -7.2361  -7.2315  -7.2311  -7.2304  -7.2299  -7.2269  -7.2260  -1.0341
 -1.0269  -0.9054  -0.8792  -0.8555  -0.8093  -0.7317  -0.6996  -0.6083
 -0.5878  -0.5221  -0.4906  -0.4644  -0.4504  -0.4436  -0.4330  -0.4169
 -0.4072  -0.4023  -0.3792  -0.3507  -0.3410  -0.3354  -0.3215  -0.3123
 -0.2895  -0.2718  -0.2651  -0.2562  -0.1834

 Beta MOs
 -- Occupied --
********-101.5613-101.5572 -19.0951 -19.0926 -10.2544 -10.2497 -10.2463
-10.2435 -10.2392 -10.1855  -9.4761  -9.4757  -9.4716  -7.2408  -7.2403
 -7.2361  -7.2312  -7.2308  -7.2303  -7.2299  -7.2267  -7.2260  -1.0226
 -1.0150  -0.9024  -0.8774  -0.8542  -0.8057  -0.7291  -0.6896  -0.6042
 -0.5835  -0.5199  -0.4869  -0.4614  -0.4428  -0.4352  -0.4265  -0.4123
 -0.4004  -0.3847  -0.3718  -0.3395  -0.3347  -0.3328  -0.3212  -0.3119
 -0.2654  -0.2648  -0.2587  -0.2495

          Ground-State Mulliken Net Atomic Charges

     Atom                 Charge (a.u.)    Spin (a.u.)
  --------------------------------------------------------
      1 Cl                    0.208301       0.004054
      2 C                     1.213689       0.093757
      3 C                    -0.522815       0.078548
      4 C                    -1.102599       0.111564
      5 O                    -0.429762       0.246060
      6 C                     0.427746       0.082626
      7 C                     0.609096       0.058713
      8 Cl                    0.302978       0.004567
      9 C                    -1.869559       0.074088
     10 O                    -0.369120       0.244674
     11 Cl                    0.305094       0.008261
     12 H                     0.226952      -0.006913
  --------------------------------------------------------
  Sum of atomic charges =    -1.000000

                    Cartesian Multipole Moments
 -----------------------------------------------------------------
    Charge (ESU x 10^10)
                -4.8032
    Dipole Moment (Debye)
         X      -1.4561      Y       0.8554      Z      -0.0463
       Tot       1.6895
    Quadrupole Moments (Debye-Ang)
        XX     -94.4628     XY      -1.2304     YY    -126.3030
        XZ      -0.1424     YZ       0.8771     ZZ     -85.4729

 Total job time:  26.12s(wall), 92.76s(cpu)
        *  Thank you very much for using Q-Chem.  Have a nice day.  *
