 Q-Chem 5.4, Q-Chem, Inc., Pleasanton, CA (2021)
 Q-Chem 5.4.0 for Intel X86 EM64T Linux

User input:
--------------------------------------------------------------
$molecule
0 1
C                 -1.3010380000      2.0391240000      0.5582730000
C                 -2.6162510000      1.3963040000      0.2175340000
C                 -2.6964830000      0.1630750000     -0.2984740000
C                 -1.4775300000     -0.6383320000     -0.5618950000
C                 -0.1662460000     -0.0349590000     -0.2374800000
C                 -0.0834270000      1.1982830000      0.2785650000
O                 -1.5555160000     -1.7604670000     -1.0318090000
H                 -3.6398960000     -0.3067520000     -0.5465830000
O                 -1.2195490000      3.1490120000      1.0230870000
Cl                 1.4374260000      1.9291220000      0.6676510000
Br                -4.1600940000      2.4379230000      0.5626360000
H                  0.7089130000     -0.6399610000     -0.4388340000
$end
$rem
MAX_SCF_CYCLES=200
BASIS  =  6-311++G(d,p)
GUI  =  2
JOB_TYPE  =  SP
METHOD  =  B3LYP
SOLVENT_METHOD = PCM
$end
$pcm
theory = CPCM
$end
$solvent
dielectric 37.219
opticaldielectric 1.43
$end

--------------------------------------------------------------

             Standard Nuclear Orientation (Angstroms)
    I     Atom           X                Y                Z
 ----------------------------------------------------------------
    1      C      -1.3010380000     2.0391240000     0.5582730000
    2      C      -2.6162510000     1.3963040000     0.2175340000
    3      C      -2.6964830000     0.1630750000    -0.2984740000
    4      C      -1.4775300000    -0.6383320000    -0.5618950000
    5      C      -0.1662460000    -0.0349590000    -0.2374800000
    6      C      -0.0834270000     1.1982830000     0.2785650000
    7      O      -1.5555160000    -1.7604670000    -1.0318090000
    8      H      -3.6398960000    -0.3067520000    -0.5465830000
    9      O      -1.2195490000     3.1490120000     1.0230870000
   10      Cl      1.4374260000     1.9291220000     0.6676510000
   11      Br     -4.1600940000     2.4379230000     0.5626360000
   12      H       0.7089130000    -0.6399610000    -0.4388340000
 ----------------------------------------------------------------

    9   -3414.7296163541      6.69e-06  Convergence criterion met
 Total energy in the final basis set =    -3414.7296163541

                    Orbital Energies (a.u.)
 --------------------------------------------------------------

 Alpha MOs
 -- Occupied --
********-101.5831 -62.5084 -56.3290 -56.3251 -56.3247 -19.1659 -19.1549
-10.3186 -10.3031 -10.2830 -10.2759 -10.2267 -10.2259  -9.4975  -8.7171
 -7.2623  -7.2526  -7.2516  -6.5491  -6.5358  -6.5347  -2.6601  -2.6561
 -2.6554  -2.6449  -2.6449  -1.1038  -1.0856  -0.9191  -0.8822  -0.8231
 -0.7727  -0.7228  -0.6401  -0.6212  -0.5540  -0.5272  -0.4972  -0.4773
 -0.4740  -0.4653  -0.4508  -0.4396  -0.4240  -0.3907  -0.3621  -0.3445
 -0.3168  -0.3151  -0.3059  -0.2970  -0.2858

          Ground-State Mulliken Net Atomic Charges

     Atom                 Charge (a.u.)
  ----------------------------------------
      1 C                    -1.727493
      2 C                     1.011153
      3 C                    -0.095779
      4 C                    -0.432206
      5 C                    -0.318687
      6 C                     1.202919
      7 O                    -0.287691
      8 H                     0.298599
      9 O                    -0.164827
     10 Cl                    0.319640
     11 Br                   -0.079560
     12 H                     0.273931
  ----------------------------------------
  Sum of atomic charges =     0.000000

                    Cartesian Multipole Moments
 -----------------------------------------------------------------
    Charge (ESU x 10^10)
                 0.0000
    Dipole Moment (Debye)
         X      -0.2367      Y      -1.0486      Z      -0.4470
       Tot       1.1642
    Quadrupole Moments (Debye-Ang)
        XX     -69.4134     XY      -1.0775     YY     -93.7132
        XZ      -0.0872     YZ      -7.6379     ZZ     -77.9816

 Total job time:  14.62s(wall), 80.62s(cpu)
        *  Thank you very much for using Q-Chem.  Have a nice day.  *
