 Q-Chem 5.4, Q-Chem, Inc., Pleasanton, CA (2021)
 Q-Chem 5.4.0 for Intel X86 EM64T Linux

User input:
--------------------------------------------------------------
$molecule
-1 2
C                 -1.2284880000      2.1900880000     -2.9343160000
C                 -2.1532950000      2.1172910000     -1.8150350000
C                  0.1577040000      2.0206660000     -2.5302880000
C                  0.5202050000      1.4917900000     -1.3208030000
C                 -0.5151540000      0.9001710000     -0.4554390000
C                 -1.8095100000      1.5889810000     -0.5998270000
C                 -0.2943650000     -0.2167890000      0.4082570000
C                 -1.3298000000     -0.8087130000      1.2733040000
C                  1.0000410000     -0.9054690000      0.5527450000
C                  1.3436850000     -1.4338660000      1.7679550000
C                  0.4186900000     -1.5068680000      2.8870730000
C                 -0.9674510000     -1.3376990000      2.4827850000
O                 -1.5701170000      2.5400900000     -4.0854560000
O                  0.7601500000     -1.8570720000      4.0382010000
C                  1.9289100000      1.7874090000     -0.7813740000
C                  1.8980470000      3.1414090000     -0.0364350000
C                  3.0389530000      1.8155060000     -1.8442290000
C                  1.8321740000     -1.2938800000     -0.6799530000
C                  1.2859570000     -2.6250510000     -1.2446600000
C                  3.3425370000     -1.4286030000     -0.4283360000
C                 -2.7382420000     -1.1047470000      0.7334130000
C                 -3.8486110000     -1.1332260000      1.7959180000
C                 -2.7067090000     -2.4587050000     -0.0115800000
C                 -2.6414160000      1.9777130000      0.6329230000
C                 -2.0946020000      3.3086330000      1.1976390000
C                 -4.1517140000      2.1131530000      0.3812940000
H                 -3.1073930000      2.6101450000     -1.9645120000
H                  0.8954010000      2.4428730000     -3.2033840000
H                  2.2978190000     -1.9266030000      1.9175660000
H                 -1.7051990000     -1.7602140000      3.1556290000
H                  2.1919580000      1.0446480000     -0.0318030000
H                  2.8821890000      3.3615960000      0.3931970000
H                  1.1716610000      3.1246340000      0.7781990000
H                  1.6277080000      3.9549590000     -0.7161490000
H                  3.0616370000      0.9004740000     -2.4406180000
H                  4.0153900000      1.9296980000     -1.3623550000
H                  2.9160290000      2.6573300000     -2.5314170000
H                  1.6804830000     -0.5564930000     -1.4648750000
H                  1.3876030000     -3.4310470000     -0.5118530000
H                  1.8357760000     -2.9084090000     -2.1496620000
H                  0.2300200000     -2.5363370000     -1.5067050000
H                  3.5666110000     -2.2742000000      0.2279810000
H                  3.7657130000     -0.5315740000      0.0296100000
H                  3.8651350000     -1.6044660000     -1.3741870000
H                 -3.0012910000     -0.3620440000     -0.0162130000
H                 -4.8248630000     -1.2476600000      1.3137270000
H                 -3.8717390000     -0.2182400000      2.3923630000
H                 -3.7256700000     -1.9750620000      2.4830890000
H                 -3.6906340000     -2.6791720000     -0.4415630000
H                 -2.4363570000     -3.2722090000      0.6681850000
H                 -1.9800470000     -2.4416620000     -0.8259660000
H                 -2.4900490000      1.2402430000      1.4178310000
H                 -2.6443270000      3.5922530000      2.1026170000
H                 -2.1958330000      4.1146790000      0.4648280000
H                 -1.0387230000      3.2194190000      1.4597400000
H                 -4.6742340000      2.2893130000      1.3271310000
H                 -4.5753230000      1.2163130000     -0.0766170000
H                 -4.3753720000      2.9588280000     -0.2750700000
$end
$rem
MAX_SCF_CYCLES=200
BASIS  =  6-311++G(d,p)
GUI  =  2
JOB_TYPE  =  SP
METHOD  =  B3LYP
SOLVENT_METHOD = COSMO
$end
$solvent
dielectric 37.219
opticaldielectric 1.43
$end

--------------------------------------------------------------

             Standard Nuclear Orientation (Angstroms)
    I     Atom           X                Y                Z
 ----------------------------------------------------------------
    1      C       3.3625838576     0.0018503998    -1.1225427576
    2      C       2.7569741790     1.2119748522    -0.5913242768
    3      C       2.7578759139    -1.2091071836    -0.5920894291
    4      C       1.5402251717    -1.2195698113     0.0333607825
    5      C       0.7142758206     0.0004501958     0.0193963931
    6      C       1.5391940413     1.2210905630     0.0339424707
    7      C      -0.7143006867    -0.0002383211    -0.0191638643
    8      C      -1.5402730922     1.2197485394    -0.0335728432
    9      C      -1.5391899925    -1.2208917265    -0.0335414369
   10      C      -2.7570152086    -1.2116442965     0.5916354664
   11      C      -3.3626496128    -0.0013966436     1.1225570494
   12      C      -2.7579809810     1.2094254427     0.5917656305
   13      O       4.4037090764     0.0024435359    -1.8156466461
   14      O      -4.4038945821    -0.0018400582     1.8154799621
   15      C       1.2028874814    -2.3934836542     0.9666097249
   16      C       1.7779315356    -2.0901399416     2.3689326428
   17      C       1.7093050500    -3.7655913219     0.4938439809
   18      C      -1.2004583411    -2.3944414636    -0.9667588159
   19      C      -1.7777358793    -2.0927886535    -2.3685503354
   20      C      -1.7034695947    -3.7675098303    -0.4931337191
   21      C      -1.2030065615     2.3932584333    -0.9673571354
   22      C      -1.7094452363     3.7655588089    -0.4951720102
   23      C      -1.7780925687     2.0892608429    -2.3695242850
   24      C       1.2006388144     2.3944517654     0.9674608531
   25      C       1.7776228203     2.0922216338     2.3692469146
   26      C       1.7041952381     3.7674832126     0.4943046748
   27      H       3.3805329419     2.0984433282    -0.6213166569
   28      H       3.3821682843    -2.0950205456    -0.6225917424
   29      H      -3.3805739676    -2.0981029361     0.6218090764
   30      H      -3.3823432969     2.0953008442     0.6218747065
   31      H       0.1248252650    -2.4532138936     1.0968364256
   32      H       1.5197603307    -2.8941389843     3.0678851553
   33      H       1.3734101638    -1.1570622516     2.7655118403
   34      H       2.8676750689    -2.0000128286     2.3329599530
   35      H       1.3784274465    -3.9997547311    -0.5206339507
   36      H       1.3387295795    -4.5510638919     1.1604609940
   37      H       2.8016172362    -3.8172708289     0.5075778956
   38      H      -0.1223484903    -2.4516627227    -1.0981253653
   39      H      -2.8677133578    -2.0059068126    -2.3315611109
   40      H      -1.5178474522    -2.8959611962    -3.0678308092
   41      H      -1.3764833987    -1.1584632610    -2.7655052594
   42      H      -2.7956650458    -3.8216520266    -0.5062930342
   43      H      -1.3716490154    -4.0005517495     0.5212823985
   44      H      -1.3315243735    -4.5524454896    -1.1596195342
   45      H      -0.1249541904     2.4529710848    -1.0976611908
   46      H      -1.3388866401     4.5507515828    -1.1621277082
   47      H      -1.3785663389     4.0001607703     0.5192056303
   48      H      -2.8017587185     3.8172165922    -0.5089216857
   49      H      -1.5199512111     2.8929379915    -3.0688565123
   50      H      -2.8678348637     1.9991382021    -2.3334818494
   51      H      -1.3735655254     1.1560035330    -2.7656825210
   52      H       0.1225263671     2.4519748889     1.0986827231
   53      H       1.5179345498     2.8953078360     3.0687021415
   54      H       2.8675742663     2.0049444243     2.3323909079
   55      H       1.3759624694     1.1579481347     2.7659061210
   56      H       1.3324732615     4.5523521555     1.1609909887
   57      H       1.3725669461     4.0009563862    -0.5200729707
   58      H       2.7964127443     3.8212175218     0.5075843674
 ----------------------------------------------------------------

    9   -1084.5681798282      5.05e-06  Convergence criterion met
 Total energy in the final basis set =    -1084.5681798282
    4   -1084.6491797230      7.44e-06  Convergence criterion met
 Total energy in the final basis set =    -1084.6491797230

                    Orbital Energies (a.u.)
 --------------------------------------------------------------

 Alpha MOs
 -- Occupied --
-19.0796 -19.0796 -10.2248 -10.2248 -10.1836 -10.1832 -10.1811 -10.1811
-10.1811 -10.1811 -10.1736 -10.1736 -10.1736 -10.1736 -10.1523 -10.1523
-10.1523 -10.1523 -10.1518 -10.1518 -10.1518 -10.1518 -10.1491 -10.1491
-10.1491 -10.1491  -1.0053  -1.0053  -0.8647  -0.8373  -0.8144  -0.8012
 -0.7769  -0.7691  -0.7426  -0.7192  -0.7171  -0.6823  -0.6805  -0.6796
 -0.6758  -0.6704  -0.6285  -0.6158  -0.6050  -0.5843  -0.5681  -0.5494
 -0.5372  -0.5330  -0.5074  -0.4907  -0.4641  -0.4574  -0.4543  -0.4477
 -0.4442  -0.4388  -0.4384  -0.4310  -0.4302  -0.4207  -0.4176  -0.4123
 -0.4102  -0.3979  -0.3962  -0.3950  -0.3917  -0.3890  -0.3844  -0.3793
 -0.3786  -0.3735  -0.3676  -0.3666  -0.3613  -0.3573  -0.3551  -0.3445
 -0.3396  -0.3384  -0.3337  -0.3303  -0.3278  -0.3276  -0.3249  -0.3245
 -0.3171  -0.3068  -0.2740  -0.2435  -0.2430  -0.2311  -0.2249  -0.2246
 -0.1450

 Beta MOs
 -- Occupied --
-19.0758 -19.0758 -10.2241 -10.2241 -10.1816 -10.1812 -10.1804 -10.1804
-10.1804 -10.1803 -10.1736 -10.1736 -10.1736 -10.1736 -10.1522 -10.1522
-10.1522 -10.1522 -10.1518 -10.1518 -10.1518 -10.1518 -10.1484 -10.1484
-10.1484 -10.1484  -0.9988  -0.9988  -0.8610  -0.8344  -0.8137  -0.8006
 -0.7757  -0.7677  -0.7377  -0.7178  -0.7157  -0.6805  -0.6803  -0.6795
 -0.6757  -0.6659  -0.6268  -0.6143  -0.6035  -0.5827  -0.5658  -0.5475
 -0.5357  -0.5317  -0.5060  -0.4892  -0.4617  -0.4560  -0.4532  -0.4469
 -0.4437  -0.4383  -0.4370  -0.4307  -0.4290  -0.4167  -0.4138  -0.4116
 -0.4082  -0.3974  -0.3955  -0.3935  -0.3886  -0.3861  -0.3788  -0.3782
 -0.3782  -0.3694  -0.3660  -0.3624  -0.3606  -0.3565  -0.3516  -0.3424
 -0.3387  -0.3380  -0.3334  -0.3299  -0.3273  -0.3258  -0.3241  -0.3237
 -0.3067  -0.3052  -0.2612  -0.2401  -0.2396  -0.2272  -0.2206  -0.2061

          Ground-State Mulliken Net Atomic Charges

     Atom                 Charge (a.u.)    Spin (a.u.)
  --------------------------------------------------------
      1 C                    -0.571988       0.079466
      2 C                    -0.381857       0.045766
      3 C                    -0.382264       0.045630
      4 C                     0.699709       0.052533
      5 C                     0.177185       0.130583
      6 C                     0.699915       0.052376
      7 C                     0.177394       0.130505
      8 C                     0.700199       0.052488
      9 C                     0.699775       0.052498
     10 C                    -0.382673       0.045697
     11 C                    -0.571875       0.079500
     12 C                    -0.381759       0.045656
     13 O                    -0.525592       0.126199
     14 O                    -0.525478       0.126227
     15 C                    -0.149332      -0.018614
     16 C                    -0.684757       0.001475
     17 C                    -0.695347       0.000206
     18 C                    -0.152602      -0.018640
     19 C                    -0.683951       0.001509
     20 C                    -0.694882       0.000212
     21 C                    -0.149952      -0.018588
     22 C                    -0.695449       0.000212
     23 C                    -0.685042       0.001487
     24 C                    -0.152119      -0.018625
     25 C                    -0.684931       0.001520
     26 C                    -0.694644       0.000218
     27 H                     0.200614      -0.004339
     28 H                     0.201009      -0.004338
     29 H                     0.200935      -0.004340
     30 H                     0.200638      -0.004335
     31 H                     0.268609       0.003455
     32 H                     0.165784       0.000024
     33 H                     0.129348       0.001581
     34 H                     0.180027       0.000142
     35 H                     0.144623      -0.000382
     36 H                     0.182578       0.000129
     37 H                     0.151403       0.000030
     38 H                     0.269094       0.003434
     39 H                     0.180033       0.000144
     40 H                     0.165803       0.000013
     41 H                     0.128942       0.001589
     42 H                     0.151610       0.000031
     43 H                     0.144479      -0.000388
     44 H                     0.182514       0.000129
     45 H                     0.268518       0.003440
     46 H                     0.182607       0.000129
     47 H                     0.144647      -0.000379
     48 H                     0.151490       0.000028
     49 H                     0.165740       0.000024
     50 H                     0.179728       0.000140
     51 H                     0.129378       0.001594
     52 H                     0.268847       0.003411
     53 H                     0.165731       0.000013
     54 H                     0.179922       0.000142
     55 H                     0.129147       0.001605
     56 H                     0.182664       0.000130
     57 H                     0.144472      -0.000385
     58 H                     0.151383       0.000029
  --------------------------------------------------------
  Sum of atomic charges =    -1.000000

                    Cartesian Multipole Moments
 -----------------------------------------------------------------
    Charge (ESU x 10^10)
                -4.8032
    Dipole Moment (Debye)
         X       0.0028      Y      -0.0023      Z      -0.0010
       Tot       0.0038
    Quadrupole Moments (Debye-Ang)
        XX    -269.9417     XY      -0.0592     YY    -156.5760
        XZ      47.5152     YZ       0.0245     ZZ    -186.7527

 Total job time:  466.20s(wall), 3487.74s(cpu)
        *  Thank you very much for using Q-Chem.  Have a nice day.  *
