 Gaussian 16, Revision A.03,
 Gaussian 16:  ES64L-G16RevA.03 25-Dec-2016

 --------------------------------------
 #P UB3LYP/6-311++G(d,p) nosym opt freq
 --------------------------------------

 -------
 Radical
 -------
 Symbolic Z-matrix:
 Charge = -1 Multiplicity = 2

 SCF Done:  E(UB3LYP) =  -613.970629597     A.U. after   22 cycles
 SCF Done:  E(UB3LYP) =  -613.979657823     A.U. after   18 cycles
 SCF Done:  E(UB3LYP) =  -613.980489697     A.U. after   17 cycles
 SCF Done:  E(UB3LYP) =  -613.980548709     A.U. after   14 cycles
 SCF Done:  E(UB3LYP) =  -613.980552662     A.U. after   12 cycles
 Optimization completed.
    -- Stationary point found.
 Normal termination of Gaussian 16 at Tue Dec 26 20:26:01 2023.

 ----------------------------------------------------------------------
 #P Geom=AllCheck Guess=TCheck SCRF=Check GenChk UB3LYP/6-311++G(d,p) F
 req
 ----------------------------------------------------------------------

 Structure from the checkpoint file:  "244-rad.chk"
 -------
 Radical
 -------
 Charge = -1 Multiplicity = 2

                          Input orientation:
 ---------------------------------------------------------------------
 Center     Atomic      Atomic             Coordinates (Angstroms)
 Number     Number       Type             X           Y           Z
 ---------------------------------------------------------------------
      1          6           0        5.739508   -5.325018    1.234219
      2          6           0        6.678619   -5.168302    0.219787
      3          6           0        6.582557   -4.141742   -0.732894
      4          6           0        4.640873   -4.413405    1.311309
      5          6           0        4.552493   -3.372611    0.337156
      6          6           0        5.527431   -3.255581   -0.669604
      7          6           0        3.607394   -4.523247    2.364191
      8          6           0        2.538314   -3.542559    2.342859
      9          6           0        2.482738   -2.549962    1.387651
     10          6           0        3.449164   -2.389503    0.345779
     11          8           0        3.642909   -5.427513    3.247705
     12          8           0        3.375965   -1.472221   -0.517548
     13          6           0        5.944935   -6.467853    2.205221
     14          1           0        7.510431   -5.866091    0.169058
     15          6           0        1.473025   -3.638357    3.409379
     16          1           0        1.668375   -1.828373    1.397369
     17          1           0        5.409628   -2.447015   -1.381647
     18          1           0        7.335614   -4.051248   -1.510674
     19          1           0        6.853118   -7.018651    1.935979
     20          1           0        5.095651   -7.153550    2.207401
     21          1           0        6.030903   -6.113209    3.233956
     22          1           0        1.683801   -4.481237    4.067972
     23          1           0        0.479078   -3.778057    2.967022
     24          1           0        1.431116   -2.723286    4.012754
 ---------------------------------------------------------------------

 SCF Done:  E(UB3LYP) =  -613.980552662     A.U. after    1 cycles

 Alpha  occ. eigenvalues --  -18.93556 -18.93288 -10.08547 -10.08116 -10.05986
 Alpha  occ. eigenvalues --  -10.04953 -10.04692 -10.04662 -10.04115 -10.03956
 Alpha  occ. eigenvalues --  -10.03913 -10.03890 -10.03598 -10.02303  -0.86097
 Alpha  occ. eigenvalues --   -0.85525  -0.73094  -0.67990  -0.64577  -0.62609
 Alpha  occ. eigenvalues --   -0.57116  -0.56398  -0.52332  -0.48072  -0.46483
 Alpha  occ. eigenvalues --   -0.41018  -0.37911  -0.36568  -0.34125  -0.32244
 Alpha  occ. eigenvalues --   -0.30306  -0.30165  -0.28996  -0.28104  -0.27539
 Alpha  occ. eigenvalues --   -0.26152  -0.26020  -0.25785  -0.25304  -0.23442
 Alpha  occ. eigenvalues --   -0.23173  -0.21786  -0.21552  -0.20803  -0.13559
 Alpha  occ. eigenvalues --   -0.12057  -0.11684  -0.10233  -0.09488  -0.01448
 Alpha virt. eigenvalues --    0.08466   0.09457   0.09819   0.09894   0.10636
 Alpha virt. eigenvalues --    0.11648   0.12030   0.12772   0.13574   0.13805
 Alpha virt. eigenvalues --    0.13871   0.15020   0.16613   0.16963   0.17645

  Beta  occ. eigenvalues --  -18.92866 -18.92639 -10.08409 -10.08010 -10.05985
  Beta  occ. eigenvalues --  -10.04907 -10.04654 -10.04618 -10.04042 -10.03961
  Beta  occ. eigenvalues --  -10.03912 -10.03721 -10.03612 -10.02176  -0.84915
  Beta  occ. eigenvalues --   -0.84390  -0.72921  -0.67483  -0.64474  -0.62410
  Beta  occ. eigenvalues --   -0.56835  -0.56177  -0.51727  -0.47785  -0.46256
  Beta  occ. eigenvalues --   -0.40776  -0.37721  -0.36351  -0.33932  -0.32089
  Beta  occ. eigenvalues --   -0.29935  -0.29780  -0.28877  -0.28002  -0.27223
  Beta  occ. eigenvalues --   -0.25997  -0.25553  -0.25018  -0.25017  -0.23266
  Beta  occ. eigenvalues --   -0.21606  -0.20787  -0.20591  -0.20385  -0.11584
  Beta  occ. eigenvalues --   -0.11332  -0.10145  -0.09611  -0.08883
  Beta virt. eigenvalues --    0.05227   0.08464   0.09456   0.09890   0.10420
  Beta virt. eigenvalues --    0.11527   0.11648   0.12026   0.12983   0.13569
  Beta virt. eigenvalues --    0.13811   0.14018   0.15018   0.16670   0.16968

 Mulliken charges and spin densities:
               1          2
     1  C    0.703326   0.012027
     2  C   -0.552854   0.024194
     3  C   -0.268187   0.035806
     4  C    0.622967   0.023451
     5  C    0.631261   0.067647
     6  C   -0.163618   0.019434
     7  C   -1.580585   0.073635
     8  C    0.654654   0.091316
     9  C    0.094664   0.109291
    10  C   -0.760282   0.053290
    11  O   -0.362492   0.252276
    12  O   -0.401201   0.236444
    13  C   -0.487021   0.007314
    14  H    0.063039  -0.002851
    15  C   -0.472810  -0.000099
    16  H    0.130533  -0.010406
    17  H    0.154163  -0.001888
    18  H    0.131454  -0.002687
    19  H    0.106574  -0.000536
    20  H    0.160037  -0.000309
    21  H    0.160049  -0.000313
    22  H    0.197568  -0.001546
    23  H    0.119305   0.007232
    24  H    0.119456   0.007276
 Sum of Mulliken charges =  -1.00000   1.00000

 Dipole moment (field-independent basis, Debye):
    X=            -18.3520    Y=             16.8822    Z=             -5.5108  Tot=             25.5377
 Quadrupole moment (field-independent basis, Debye-Ang):
   XX=           -162.8696   YY=           -165.6489   ZZ=           -110.6713
   XY=             67.7832   XZ=            -20.4189   YZ=             34.5337

  Exact polarizability: 186.763 -42.286 165.269 -45.693 -38.227 169.903
 Approx polarizability: 275.343 -59.551 278.808 -62.190 -85.620 284.219

 ******    1 imaginary frequencies (negative Signs) ******

                      1                      2                      3
                      A                      A                      A
 Frequencies --   -125.1475                66.7431                73.9779
 Red. masses --      1.0282                 4.9970                 4.2553
 Frc consts  --      0.0095                 0.0131                 0.0137
 IR Inten    --      0.0274                 6.2842                 2.0526

                      4                      5                      6
                      A                      A                      A
 Frequencies --    168.5672               196.9030               218.1539
 Red. masses --      5.5056                 1.6783                 1.6301
 Frc consts  --      0.0922                 0.0383                 0.0457
 IR Inten    --      1.1993                 1.3979                 0.0346

                      7                      8                      9
                      A                      A                      A
 Frequencies --    247.0503               247.6899               321.9618
 Red. masses --      3.4449                 3.5538                 4.5445
 Frc consts  --      0.1239                 0.1285                 0.2776
 IR Inten    --      0.7638                 2.5169                 0.0007

                     10                     11                     12
                      A                      A                      A
 Frequencies --    367.0183               379.4459               387.2494
 Red. masses --      3.6384                 4.6610                 8.8716
 Frc consts  --      0.2888                 0.3954                 0.7839
 IR Inten    --      3.8915                 0.0544                 7.6510

                     13                     14                     15
                      A                      A                      A
 Frequencies --    411.4751               473.7524               485.2651
 Red. masses --      5.9499                 6.1553                 3.8060
 Frc consts  --      0.5935                 0.8140                 0.5281
 IR Inten    --      3.0560                 1.4857                 0.0310

                     16                     17                     18
                      A                      A                      A
 Frequencies --    515.6176               527.3076               565.9034
 Red. masses --      3.8425                 6.7649                 5.0017
 Frc consts  --      0.6019                 1.1082                 0.9437
 IR Inten    --      2.2749                 1.4281                 3.3739

                     19                     20                     21
                      A                      A                      A
 Frequencies --    659.4686               673.2939               697.2531
 Red. masses --      4.2487                 3.8044                 3.1213
 Frc consts  --      1.0887                 1.0161                 0.8941
 IR Inten    --      0.1302                 0.6676                14.2626

                     22                     23                     24
                      A                      A                      A
 Frequencies --    710.2250               776.5101               796.7665
 Red. masses --      6.5441                 1.5727                 4.7303
 Frc consts  --      1.9449                 0.5587                 1.7693
 IR Inten    --     21.1227                33.6856                 6.5733

                     25                     26                     27
                      A                      A                      A
 Frequencies --    807.5389               869.0756               888.0472
 Red. masses --      4.0205                 1.5206                 4.9299
 Frc consts  --      1.5447                 0.6767                 2.2906
 IR Inten    --      8.5827                17.4689                 4.5311

                     28                     29                     30
                      A                      A                      A
 Frequencies --    894.2542               965.0263               978.8791
 Red. masses --      1.3579                 3.3357                 1.2916
 Frc consts  --      0.6398                 1.8303                 0.7292
 IR Inten    --      0.0625                 9.3734                 1.5574

                     31                     32                     33
                      A                      A                      A
 Frequencies --   1013.7602              1030.0790              1045.9388
 Red. masses --      1.5541                 1.7508                 1.4601
 Frc consts  --      0.9410                 1.0946                 0.9411
 IR Inten    --      4.1309                 2.5184                 0.5693

                     34                     35                     36
                      A                      A                      A
 Frequencies --   1054.0743              1095.6170              1157.5961
 Red. masses --      1.5287                 2.1805                 1.5343
 Frc consts  --      1.0007                 1.5421                 1.2113
 IR Inten    --      1.4990                22.1396                 8.8788

                     37                     38                     39
                      A                      A                      A
 Frequencies --   1165.2658              1181.2953              1215.8791
 Red. masses --      2.4323                 2.3577                 3.9965
 Frc consts  --      1.9459                 1.9384                 3.4810
 IR Inten    --      0.2614                32.0516                15.5110

                     40                     41                     42
                      A                      A                      A
 Frequencies --   1251.9538              1287.1043              1334.1759
 Red. masses --      2.2186                 1.9696                 7.6239
 Frc consts  --      2.0488                 1.9225                 7.9956
 IR Inten    --     10.9579                13.2957                 7.9977

                     43                     44                     45
                      A                      A                      A
 Frequencies --   1371.7042              1402.7804              1414.9535
 Red. masses --      1.3955                 2.8654                 1.3255
 Frc consts  --      1.5470                 3.3221                 1.5635
 IR Inten    --     26.2553                20.8994                13.4483

                     46                     47                     48
                      A                      A                      A
 Frequencies --   1416.0181              1455.6128              1463.7263
 Red. masses --      2.3996                 2.6409                 1.0462
 Frc consts  --      2.8348                 3.2968                 1.3206
 IR Inten    --     19.6266               166.5963                 4.7862

                     49                     50                     51
                      A                      A                      A
 Frequencies --   1482.1431              1483.9338              1499.9663
 Red. masses --      1.1420                 1.4813                 1.0475
 Frc consts  --      1.4780                 1.9219                 1.3886
 IR Inten    --     17.9686                 6.2905                 4.5980

                     52                     53                     54
                      A                      A                      A
 Frequencies --   1508.4691              1531.6201              1562.7647
 Red. masses --      4.2258                 5.3597                 5.7234
 Frc consts  --      5.6655                 7.4078                 8.2355
 IR Inten    --      2.1326               371.6347               149.6082

                     55                     56                     57
                      A                      A                      A
 Frequencies --   1612.6381              1628.5962              2994.0730
 Red. masses --      5.8405                 7.0272                 1.0405
 Frc consts  --      8.9489                10.9815                 5.4954
 IR Inten    --      0.0944                 8.8798               134.9404

                     58                     59                     60
                      A                      A                      A
 Frequencies --   3010.7543              3029.1844              3085.4890
 Red. masses --      1.0449                 1.0995                 1.0910
 Frc consts  --      5.5808                 5.9445                 6.1198
 IR Inten    --     90.5997                48.6914                17.4433

                     61                     62                     63
                      A                      A                      A
 Frequencies --   3093.9711              3111.9113              3125.2932
 Red. masses --      1.0990                 1.0944                 1.0851
 Frc consts  --      6.1982                 6.2443                 6.2443
 IR Inten    --     16.1864                 8.2156                38.9500

                     64                     65                     66
                      A                      A                      A
 Frequencies --   3126.3094              3146.9362              3183.5371
 Red. masses --      1.0885                 1.0920                 1.0921
 Frc consts  --      6.2682                 6.3716                 6.5210
 IR Inten    --     28.1006                61.4354                16.9947

 - Thermochemistry -
 -------------------
 Temperature   298.150 Kelvin.  Pressure   1.00000 Atm.
 Atom     1 has atomic number  6 and mass  12.00000

 Molecular mass:   186.06808 amu.
 Principal axes and moments of inertia in atomic units:
                           1         2         3
     Eigenvalues --  1912.625582442.467764333.05545
           X            0.84062  -0.05491   0.53883
           Y           -0.33692   0.72592   0.59961
           Z           -0.42407  -0.68559   0.59172
 This molecule is an asymmetric top.
 Rotational symmetry number  1.
 Warning -- assumption of classical behavior for rotation
           may cause significant error
 Rotational temperatures (Kelvin)      0.04529     0.03546     0.01999
 Rotational constants (GHZ):           0.94359     0.73890     0.41651
    1 imaginary frequencies ignored.
 Zero-point vibrational energy     484161.9 (Joules/Mol)
                                  115.71747 (Kcal/Mol)
 Warning -- explicit consideration of  17 degrees of freedom as
           vibrations may cause significant error
 Vibrational temperatures:     96.03   106.44   242.53   283.30   313.87
          (Kelvin)            355.45   356.37   463.23   528.06   545.94
                              557.17   592.02   681.62   698.19   741.86
                              758.68   814.21   948.83   968.72  1003.19
                             1021.86  1117.22  1146.37  1161.87  1250.41
                             1277.70  1286.63  1388.46  1408.39  1458.57
                             1482.05  1504.87  1516.58  1576.35  1665.52
                             1676.56  1699.62  1749.38  1801.28  1851.86
                             1919.58  1973.58  2018.29  2035.80  2037.33
                             2094.30  2105.98  2132.47  2135.05  2158.12
                             2170.35  2203.66  2248.47  2320.23  2343.19
                             4307.80  4331.80  4358.32  4439.33  4451.53
                             4477.35  4496.60  4498.06  4527.74  4580.40

 Zero-point correction=                           0.184408 (Hartree/Particle)
 Thermal correction to Energy=                    0.195589
 Thermal correction to Enthalpy=                  0.196533
 Thermal correction to Gibbs Free Energy=         0.146809
 Sum of electronic and zero-point Energies=           -613.796145
 Sum of electronic and thermal Energies=              -613.784964
 Sum of electronic and thermal Enthalpies=            -613.784020
 Sum of electronic and thermal Free Energies=         -613.833743

                     E (Thermal)             CV                S
                      KCal/Mol        Cal/Mol-Kelvin    Cal/Mol-Kelvin
 Total                  122.734             44.610            104.652
 Electronic               0.000              0.000              1.377
 Translational            0.889              2.981             41.569
 Rotational               0.889              2.981             31.382
 Vibrational            120.956             38.649             30.324
 Vibration     1          0.598              1.970              4.247
 Vibration     2          0.599              1.966              4.045
 Vibration     3          0.625              1.881              2.451
 Vibration     4          0.636              1.844              2.162
 Vibration     5          0.646              1.813              1.974
 Vibration     6          0.661              1.768              1.752
 Vibration     7          0.661              1.767              1.747
 Vibration     8          0.707              1.631              1.300
 Vibration     9          0.740              1.540              1.092
 Vibration    10          0.749              1.514              1.041
 Vibration    11          0.756              1.497              1.011
 Vibration    12          0.775              1.445              0.921
 Vibration    13          0.831              1.308              0.727
 Vibration    14          0.841              1.283              0.696
 Vibration    15          0.871              1.215              0.620
 Vibration    16          0.882              1.190              0.593
 Vibration    17          0.922              1.105              0.512

                           ! Non-Optimized Parameters !
 Normal termination of Gaussian 16 at Tue Dec 26 21:12:04 2023.
