 Gaussian 16, Revision A.03,
 Gaussian 16:  ES64L-G16RevA.03 25-Dec-2016

 ----------------------------------------------------------------
 #P UB3LYP/6-311++G(d,p) SCRF=(PCM,Solvent=n,n-DiMethylFormamide)
 ----------------------------------------------------------------

 -------
 Reduced
 -------
 Symbolic Z-matrix:
 Charge = -2 Multiplicity = 1

                         Standard orientation:
 ---------------------------------------------------------------------
 Center     Atomic      Atomic             Coordinates (Angstroms)
 Number     Number       Type             X           Y           Z
 ---------------------------------------------------------------------
      1          6           0       -4.626841    0.231447    1.280896
      2          6           0       -3.928137   -0.289740    0.001678
      3          6           0       -4.083603   -1.821275   -0.036072
      4          6           0       -4.660988    0.285916   -1.236320
      5          6           0       -2.453068    0.152386   -0.007031
      6          6           0       -2.137655    1.547567    0.003377
      7          6           0       -0.830114    1.980563    0.004497
      8          6           0        0.264768    1.083150   -0.002804
      9          6           0        1.619433    1.604138   -0.004994
     10          8           0        1.878208    2.856123   -0.004360
     11          6           0        2.659306    0.590834   -0.002459
     12          6           0        4.018216    0.992179    0.000007
     13          6           0        5.053913    0.079931    0.002227
     14          6           0        4.763561   -1.312315    0.001476
     15          6           0        3.449810   -1.735210    0.000542
     16          6           0        2.363736   -0.824802   -0.000626
     17          6           0        1.006108   -1.341119    0.001950
     18          8           0        0.748331   -2.593100    0.004403
     19          6           0       -0.032358   -0.325902   -0.000934
     20          6           0       -1.392608   -0.734554   -0.010606
     21          1           0       -5.687907   -0.043464    1.292962
     22          1           0       -4.151083   -0.189441    2.172582
     23          1           0       -4.561469    1.320549    1.355571
     24          1           0       -3.617412   -2.246560   -0.929290
     25          1           0       -5.146345   -2.089745   -0.047286
     26          1           0       -3.622154   -2.293557    0.835745
     27          1           0       -4.627101    1.378828   -1.251907
     28          1           0       -5.716628   -0.017999   -1.245930
     29          1           0       -4.191760   -0.073882   -2.157416
     30          1           0       -2.936285    2.284844    0.004249
     31          1           0       -0.592855    3.039885    0.011698
     32          1           0        4.206514    2.061324   -0.000010
     33          1           0        6.087111    0.422079    0.003789
     34          1           0        5.573996   -2.038747    0.001715
     35          1           0        3.195632   -2.790578    0.000673
     36          1           0       -1.545442   -1.806896   -0.016335
 ---------------------------------------------------------------------

 SCF Done:  E(UB3LYP) =  -846.482974985     A.U. after   16 cycles

 The electronic state is 1-A.
 Alpha  occ. eigenvalues --  -19.01744 -19.01648 -10.17753 -10.17004 -10.16895
 Alpha  occ. eigenvalues --  -10.15168 -10.14902 -10.14882 -10.14693 -10.14644
 Alpha  occ. eigenvalues --  -10.14597 -10.14346 -10.14340 -10.14324 -10.14238
 Alpha  occ. eigenvalues --  -10.13789 -10.13155 -10.13115 -10.13034 -10.12971
 Alpha  occ. eigenvalues --   -0.93963  -0.93639  -0.83338  -0.82102  -0.79580
 Alpha  occ. eigenvalues --   -0.74335  -0.71987  -0.71730  -0.70018  -0.67628
 Alpha  occ. eigenvalues --   -0.67545  -0.62967  -0.60751  -0.58694  -0.55734
 Alpha  occ. eigenvalues --   -0.53880  -0.52135  -0.49904  -0.48413  -0.45047
 Alpha  occ. eigenvalues --   -0.44000  -0.43158  -0.42978  -0.42287  -0.41240
 Alpha  occ. eigenvalues --   -0.40192  -0.39615  -0.38693  -0.38616  -0.37530
 Alpha  occ. eigenvalues --   -0.37096  -0.36578  -0.36244  -0.35711  -0.35560
 Alpha  occ. eigenvalues --   -0.33595  -0.33471  -0.32387  -0.32378  -0.32173
 Alpha  occ. eigenvalues --   -0.30733  -0.30189  -0.29425  -0.29179  -0.23134
 Alpha  occ. eigenvalues --   -0.22194  -0.22081  -0.20945  -0.19980  -0.19164
 Alpha  occ. eigenvalues --   -0.09984
 Alpha virt. eigenvalues --   -0.02300  -0.00335   0.00431   0.00659   0.01343
 Alpha virt. eigenvalues --    0.01920   0.02250   0.02284   0.02305   0.03437
 Alpha virt. eigenvalues --    0.03613   0.04130   0.04499   0.05266   0.05345

  Beta  occ. eigenvalues --  -19.01744 -19.01648 -10.17753 -10.17004 -10.16895
  Beta  occ. eigenvalues --  -10.15168 -10.14902 -10.14882 -10.14693 -10.14644
  Beta  occ. eigenvalues --  -10.14597 -10.14346 -10.14340 -10.14324 -10.14238
  Beta  occ. eigenvalues --  -10.13789 -10.13155 -10.13115 -10.13034 -10.12971
  Beta  occ. eigenvalues --   -0.93963  -0.93639  -0.83338  -0.82102  -0.79580
  Beta  occ. eigenvalues --   -0.74335  -0.71987  -0.71730  -0.70018  -0.67628
  Beta  occ. eigenvalues --   -0.67545  -0.62967  -0.60751  -0.58694  -0.55734
  Beta  occ. eigenvalues --   -0.53880  -0.52135  -0.49904  -0.48413  -0.45047
  Beta  occ. eigenvalues --   -0.44000  -0.43158  -0.42978  -0.42287  -0.41240
  Beta  occ. eigenvalues --   -0.40192  -0.39615  -0.38693  -0.38616  -0.37530
  Beta  occ. eigenvalues --   -0.37096  -0.36578  -0.36244  -0.35711  -0.35560
  Beta  occ. eigenvalues --   -0.33595  -0.33471  -0.32387  -0.32378  -0.32173
  Beta  occ. eigenvalues --   -0.30733  -0.30189  -0.29425  -0.29179  -0.23134
  Beta  occ. eigenvalues --   -0.22194  -0.22081  -0.20945  -0.19980  -0.19164
  Beta  occ. eigenvalues --   -0.09984
  Beta virt. eigenvalues --   -0.02300  -0.00335   0.00431   0.00659   0.01343
  Beta virt. eigenvalues --    0.01920   0.02250   0.02284   0.02305   0.03437
  Beta virt. eigenvalues --    0.03613   0.04130   0.04499   0.05266   0.05345

 Mulliken charges and spin densities:
               1          2
     1  C   -0.674345   0.000000
     2  C    0.591724  -0.000000
     3  C   -0.521576  -0.000000
     4  C   -0.673228  -0.000000
     5  C    0.154380   0.000000
     6  C   -0.641039   0.000000
     7  C   -0.183912  -0.000000
     8  C    0.247807   0.000000
     9  C   -0.739461  -0.000000
    10  O   -0.648933   0.000000
    11  C    0.214365   0.000000
    12  C    0.013558  -0.000000
    13  C   -0.504259  -0.000000
    14  C   -0.539617  -0.000000
    15  C    0.008395  -0.000000
    16  C    0.392365  -0.000000
    17  C   -0.559395   0.000000
    18  O   -0.652939  -0.000000
    19  C    0.396537  -0.000000
    20  C   -0.018064   0.000000
    21  H    0.155024  -0.000000
    22  H    0.141472  -0.000000
    23  H    0.147882   0.000000
    24  H    0.135921  -0.000000
    25  H    0.163313  -0.000000
    26  H    0.135869  -0.000000
    27  H    0.144376   0.000000
    28  H    0.156292  -0.000000
    29  H    0.142805   0.000000
    30  H    0.140445  -0.000000
    31  H    0.155277   0.000000
    32  H    0.142834  -0.000000
    33  H    0.154813   0.000000
    34  H    0.154888  -0.000000
    35  H    0.141913   0.000000
    36  H    0.124512  -0.000000
 Sum of Mulliken charges =  -2.00000   0.00000

 Dipole moment (field-independent basis, Debye):
    X=            -13.1575    Y=             -1.1688    Z=              0.0129  Tot=             13.2093
 Quadrupole moment (field-independent basis, Debye-Ang):
   XX=           -166.0559   YY=           -181.3505   ZZ=           -133.3137
   XY=             -8.9461   XZ=             -0.0058   YZ=              0.1203

 Normal termination of Gaussian 16 at Sun Jan 14 01:33:30 2024.
