 Q-Chem 5.4, Q-Chem, Inc., Pleasanton, CA (2021)
 Q-Chem 5.4.0 for Intel X86 EM64T Linux

User input:
--------------------------------------------------------------
$molecule
-1 2
C                  4.0673440000      1.6596040000      0.1972350000
C                  3.2449780000      0.4812870000      0.6439810000
O                  3.0118830000      0.1773440000      1.7843120000
O                  2.8335840000     -0.2378820000     -0.4388610000
C                  1.7795320000     -1.1474410000     -0.2908870000
C                  2.1118670000     -2.4812120000     -0.3672350000
C                  1.1000670000     -3.4593100000     -0.3268820000
C                 -0.2169360000     -3.0704060000     -0.2187500000
C                 -0.5758310000     -1.7076520000     -0.1477760000
C                 -2.0034630000     -1.3851760000     -0.0627160000
O                 -2.8825550000     -2.2810270000     -0.0364720000
C                 -2.3472440000      0.0342090000     -0.0199540000
C                 -3.7051110000      0.4167250000      0.0475290000
C                 -4.0699650000      1.7469880000      0.0896050000
C                 -3.0750970000      2.7490520000      0.0674030000
C                 -1.7422170000      2.3963170000      0.0031360000
C                 -1.3448930000      1.0412090000     -0.0441430000
C                  0.0861090000      0.7273420000     -0.1097950000
O                  0.9410720000      1.6507680000     -0.1053420000
C                  0.4378130000     -0.6933500000     -0.1765760000
H                  4.7442250000      1.3782850000     -0.6121290000
H                  4.6235380000      2.0637040000      1.0421130000
H                  3.3658030000      2.4053540000     -0.1830940000
H                  3.1573980000     -2.7514290000     -0.4603750000
H                  1.3637460000     -4.5106370000     -0.3820000000
H                 -1.0235920000     -3.7928140000     -0.1900830000
H                 -4.4445460000     -0.3755300000      0.0650850000
H                 -5.1186690000      2.0243010000      0.1413550000
H                 -3.3598350000      3.7964850000      0.1026930000
H                 -0.9590060000      3.1448910000     -0.0113770000
$end
$rem
MAX_SCF_CYCLES=200
BASIS  =  6-311++G(d,p)
GUI  =  2
JOB_TYPE  =  SP
METHOD  =  B3LYP
SOLVENT_METHOD = COSMO
$end
$solvent
dielectric 37.219
opticaldielectric 1.43
$end

--------------------------------------------------------------

             Standard Nuclear Orientation (Angstroms)
    I     Atom           X                Y                Z
 ----------------------------------------------------------------
    1      C       3.7202250308    -2.4770172595     0.1966636154
    2      C       3.1334483941    -1.2217610913    -0.3901275822
    3      O       2.9963404682    -0.9900573380    -1.5625542124
    4      O       2.8182594230    -0.3446657475     0.6050385050
    5      C       1.9461366724     0.7147597187     0.3271192948
    6      C       2.5049309258     1.9727254388     0.3049409489
    7      C       1.6827623115     3.1021454115     0.1303196525
    8      C       0.3223608127     2.9371451353    -0.0093886999
    9      C      -0.2678413068     1.6558257399     0.0193072808
   10      C      -1.7261940617     1.5771476157    -0.1086618426
   11      O      -2.4327345754     2.6044061744    -0.2555661047
   12      C      -2.3124398352     0.2403263560    -0.0462714930
   13      C      -3.7133054723     0.0924123669    -0.1481152638
   14      C      -4.3046428982    -1.1533217401    -0.0937547649
   15      C      -3.5027274599    -2.3050270888     0.0640233889
   16      C      -2.1315700847    -2.1823217186     0.1639842136
   17      C      -1.5040974561    -0.9173209198     0.1142807354
   18      C      -0.0432819217    -0.8494766230     0.2238459152
   19      O       0.6357172397    -1.9024933079     0.3413752231
   20      C       0.5501713267     0.4895060274     0.1856376919
   21      H       4.4080772511    -2.2419837689     1.0115236855
   22      H       4.2251550710    -3.0478209739    -0.5816012397
   23      H       2.8860026825    -3.0522071981     0.6043186087
   24      H       3.5778956385     2.0666175003     0.4264249592
   25      H       2.1250892132     4.0929515102     0.1078862709
   26      H      -0.3433161523     3.7816306152    -0.1401842283
   27      H      -4.3009490392     0.9948721508    -0.2705149948
   28      H      -5.3833848495    -1.2497632803    -0.1736013292
   29      H      -3.9657633747    -3.2865420998     0.1048036168
   30      H      -1.4930767491    -3.0497569167     0.2817788179
 ----------------------------------------------------------------

    9    -916.9629361309      9.87e-06  Convergence criterion met
 Total energy in the final basis set =     -916.9629361309
    4    -917.0462282749      8.83e-06  Convergence criterion met
 Total energy in the final basis set =     -917.0462282749

                    Orbital Energies (a.u.)
 --------------------------------------------------------------

 Alpha MOs
 -- Occupied --
-19.1732 -19.1226 -19.0825 -19.0802 -10.3137 -10.2417 -10.2328 -10.2298
-10.1865 -10.1807 -10.1780 -10.1770 -10.1760 -10.1752 -10.1741 -10.1736
-10.1720 -10.1714 -10.1709 -10.1695  -1.1178  -1.0383  -1.0104  -1.0072
 -0.8677  -0.8554  -0.7910  -0.7763  -0.7525  -0.7446  -0.7343  -0.6751
 -0.6492  -0.6288  -0.6196  -0.5763  -0.5478  -0.5371  -0.5237  -0.4975
 -0.4868  -0.4842  -0.4770  -0.4642  -0.4584  -0.4512  -0.4290  -0.4251
 -0.4208  -0.4170  -0.4115  -0.4067  -0.3983  -0.3878  -0.3869  -0.3758
 -0.3683  -0.3600  -0.3517  -0.3440  -0.3387  -0.3262  -0.2935  -0.2740
 -0.2593  -0.2577  -0.2533  -0.2523  -0.2409  -0.1471

 Beta MOs
 -- Occupied --
-19.1732 -19.1226 -19.0771 -19.0747 -10.3137 -10.2416 -10.2311 -10.2280
-10.1858 -10.1797 -10.1774 -10.1765 -10.1753 -10.1745 -10.1737 -10.1732
-10.1721 -10.1714 -10.1709 -10.1695  -1.1177  -1.0381  -1.0009  -0.9974
 -0.8651  -0.8541  -0.7871  -0.7751  -0.7505  -0.7428  -0.7332  -0.6681
 -0.6479  -0.6267  -0.6178  -0.5750  -0.5454  -0.5351  -0.5225  -0.4971
 -0.4860  -0.4835  -0.4744  -0.4635  -0.4570  -0.4504  -0.4247  -0.4201
 -0.4174  -0.4131  -0.4075  -0.4042  -0.3971  -0.3869  -0.3762  -0.3660
 -0.3631  -0.3586  -0.3502  -0.3375  -0.3323  -0.3251  -0.2934  -0.2560
 -0.2531  -0.2486  -0.2479  -0.2469  -0.2360

          Ground-State Mulliken Net Atomic Charges

     Atom                 Charge (a.u.)    Spin (a.u.)
  --------------------------------------------------------
      1 C                    -0.494377       0.002387
      2 C                     0.094355      -0.001143
      3 O                    -0.319347      -0.000531
      4 O                    -0.020990      -0.000915
      5 C                    -0.102469       0.042329
      6 C                     0.086554       0.039125
      7 C                    -0.475305       0.051811
      8 C                    -0.069606       0.026623
      9 C                     0.508604       0.053797
     10 C                    -0.508214       0.103561
     11 O                    -0.481062       0.197952
     12 C                    -0.071967       0.006361
     13 C                    -0.023429       0.028228
     14 C                    -0.510051       0.030612
     15 C                    -0.423095       0.035540
     16 C                     0.072357       0.032252
     17 C                     0.061989       0.019618
     18 C                    -0.305412       0.093174
     19 O                    -0.447536       0.209542
     20 C                     0.491234       0.046880
     21 H                     0.185305       0.000368
     22 H                     0.172180      -0.000247
     23 H                     0.207415      -0.000689
     24 H                     0.217840      -0.003457
     25 H                     0.218510      -0.003821
     26 H                     0.178679      -0.001153
     27 H                     0.175546      -0.001545
     28 H                     0.203384      -0.002615
     29 H                     0.207814      -0.002961
     30 H                     0.171092      -0.001084
  --------------------------------------------------------
  Sum of atomic charges =    -1.000000

                    Cartesian Multipole Moments
 -----------------------------------------------------------------
    Charge (ESU x 10^10)
                -4.8032
    Dipole Moment (Debye)
         X       3.2026      Y      -2.3712      Z       2.4447
       Tot       4.6750
    Quadrupole Moments (Debye-Ang)
        XX    -125.4987     XY      18.2651     YY    -130.2319
        XZ       6.5236     YZ      -0.0103     ZZ    -128.9184

 Total job time:  114.34s(wall), 857.77s(cpu)
        *  Thank you very much for using Q-Chem.  Have a nice day.  *
