 Gaussian 16, Revision A.03,
 Gaussian 16:  ES64L-G16RevA.03 25-Dec-2016

 ----------------------------------------------------------------------
 #P UB3LYP/6-311++G(d,p) nosym opt freq SCRF=(PCM,Solvent=n,n-DiMethylF
 ormamide)
 ----------------------------------------------------------------------

 -------
 Radical
 -------
 Symbolic Z-matrix:
 Charge = -1 Multiplicity = 2

 SCF Done:  E(UB3LYP) =  -1144.99518590     A.U. after   19 cycles
 SCF Done:  E(UB3LYP) =  -1144.99621993     A.U. after   14 cycles
 SCF Done:  E(UB3LYP) =  -1144.99607287     A.U. after   15 cycles
 SCF Done:  E(UB3LYP) =  -1144.99638093     A.U. after   13 cycles
 SCF Done:  E(UB3LYP) =  -1144.99658725     A.U. after   13 cycles
 SCF Done:  E(UB3LYP) =  -1144.99665704     A.U. after   13 cycles
 SCF Done:  E(UB3LYP) =  -1144.99672498     A.U. after   13 cycles
 SCF Done:  E(UB3LYP) =  -1144.99674048     A.U. after   11 cycles
 SCF Done:  E(UB3LYP) =  -1144.99674916     A.U. after   11 cycles
 SCF Done:  E(UB3LYP) =  -1144.99675269     A.U. after   11 cycles
 SCF Done:  E(UB3LYP) =  -1144.99675412     A.U. after    9 cycles
 SCF Done:  E(UB3LYP) =  -1144.99675453     A.U. after    9 cycles
 SCF Done:  E(UB3LYP) =  -1144.99675480     A.U. after    9 cycles
 SCF Done:  E(UB3LYP) =  -1144.99675539     A.U. after    9 cycles
 SCF Done:  E(UB3LYP) =  -1144.99675654     A.U. after    9 cycles
 SCF Done:  E(UB3LYP) =  -1144.99675760     A.U. after    9 cycles
 SCF Done:  E(UB3LYP) =  -1144.99675862     A.U. after   10 cycles
 SCF Done:  E(UB3LYP) =  -1144.99675906     A.U. after    9 cycles
 SCF Done:  E(UB3LYP) =  -1144.99675909     A.U. after    8 cycles
 Optimization completed.
    -- Stationary point found.
 Normal termination of Gaussian 16 at Sat Feb 10 17:56:10 2024.

 ----------------------------------------------------------------------
 #P Geom=AllCheck Guess=TCheck SCRF=Check GenChk UB3LYP/6-311++G(d,p) F
 req
 ----------------------------------------------------------------------

 Structure from the checkpoint file:  "148-rad.chk"
 -------
 Radical
 -------
 Charge = -1 Multiplicity = 2

                          Input orientation:
 ---------------------------------------------------------------------
 Center     Atomic      Atomic             Coordinates (Angstroms)
 Number     Number       Type             X           Y           Z
 ---------------------------------------------------------------------
      1          6           0       -3.027605    3.691406    0.329227
      2          6           0       -4.269952    3.115068    0.417516
      3          6           0       -4.448736    1.722738    0.337135
      4          6           0       -1.881006    2.882672    0.156831
      5          6           0       -2.039330    1.468505    0.076551
      6          6           0       -3.338707    0.921385    0.170395
      7          6           0       -0.570668    3.518619    0.063348
      8          6           0        0.571919    2.628058   -0.113692
      9          6           0        0.418084    1.213496   -0.195845
     10          6           0       -0.894825    0.577658   -0.104536
     11          6           0        1.868952    3.182592   -0.209339
     12          6           0        2.957073    2.363716   -0.379245
     13          6           0        2.826784    0.966423   -0.468561
     14          6           0        1.567717    0.411714   -0.374382
     15          8           0       -0.433126    4.772606    0.132342
     16          8           0       -1.032638   -0.673099   -0.178328
     17          1           0       -3.445449   -0.154281    0.104157
     18          1           0        1.436221   -0.661237   -0.439772
     19          1           0       -2.911295    4.766209    0.385708
     20          1           0        1.989201    4.256879   -0.151055
     21          1           0        3.705467    0.349188   -0.612290
     22          8           0        4.226933    2.944241   -0.551948
     23          6           0        5.091256    2.963444    0.501886
     24          6           0        6.396475    3.591114    0.104277
     25          8           0        4.814207    2.527796    1.593079
     26          8           0       -5.402224    3.945464    0.507088
     27          1           0        6.223075    4.596220   -0.285538
     28          1           0        6.858967    3.004025   -0.692479
     29          1           0        7.061144    3.634555    0.964045
     30          6           0       -5.984180    4.136407    1.724709
     31          6           0       -7.184985    5.030229    1.602840
     32          8           0       -5.565697    3.641349    2.743046
     33          1           0       -5.444400    1.300539    0.401838
     34          1           0       -6.895416    5.982778    1.154288
     35          1           0       -7.619929    5.198531    2.585350
     36          1           0       -7.923515    4.567161    0.944525
 ---------------------------------------------------------------------

 SCF Done:  E(UB3LYP) =  -1144.99675909     A.U. after    1 cycles

 Alpha  occ. eigenvalues --  -19.18315 -19.18313 -19.12802 -19.12801 -19.08032
 Alpha  occ. eigenvalues --  -19.07944 -10.32027 -10.32027 -10.24131 -10.24129
 Alpha  occ. eigenvalues --  -10.23033 -10.22788 -10.18279 -10.18279 -10.18249
 Alpha  occ. eigenvalues --  -10.18248 -10.18203 -10.18200 -10.18005 -10.17999
 Alpha  occ. eigenvalues --  -10.17900 -10.17897 -10.17879 -10.17876  -1.12421
 Alpha  occ. eigenvalues --   -1.12420  -1.04103  -1.04101  -1.00559  -1.00231
 Alpha  occ. eigenvalues --   -0.87172  -0.86295  -0.80235  -0.78039  -0.77014
 Alpha  occ. eigenvalues --   -0.75949  -0.75223  -0.73586  -0.68088  -0.66243
 Alpha  occ. eigenvalues --   -0.65003  -0.61355  -0.60668  -0.58260  -0.56534
 Alpha  occ. eigenvalues --   -0.52400  -0.52357  -0.50527  -0.50477  -0.50035
 Alpha  occ. eigenvalues --   -0.49454  -0.49239  -0.48467  -0.46547  -0.46451
 Alpha  occ. eigenvalues --   -0.44479  -0.44060  -0.43392  -0.42938  -0.42937
 Alpha  occ. eigenvalues --   -0.42121  -0.41847  -0.41737  -0.41219  -0.41046
 Alpha  occ. eigenvalues --   -0.39397  -0.39177  -0.39042  -0.38384  -0.37511
 Alpha  occ. eigenvalues --   -0.36509  -0.36254  -0.35153  -0.34016  -0.32721
 Alpha  occ. eigenvalues --   -0.32713  -0.29853  -0.29851  -0.27173  -0.26660
 Alpha  occ. eigenvalues --   -0.26176  -0.25189  -0.25087  -0.24281  -0.14794
 Alpha virt. eigenvalues --   -0.06057  -0.02782  -0.01562  -0.01246  -0.00751
 Alpha virt. eigenvalues --   -0.00585  -0.00248   0.00711   0.01488   0.01706
 Alpha virt. eigenvalues --    0.02974   0.03139   0.03335   0.03731   0.03975

  Beta  occ. eigenvalues --  -19.18313 -19.18311 -19.12802 -19.12802 -19.07492
  Beta  occ. eigenvalues --  -19.07350 -10.32023 -10.32023 -10.24090 -10.24088
  Beta  occ. eigenvalues --  -10.22877 -10.22599 -10.18279 -10.18279 -10.18170
  Beta  occ. eigenvalues --  -10.18169 -10.18150 -10.18148 -10.18011 -10.18006
  Beta  occ. eigenvalues --  -10.17865 -10.17862 -10.17820 -10.17817  -1.12410
  Beta  occ. eigenvalues --   -1.12409  -1.04096  -1.04095  -0.99603  -0.99190
  Beta  occ. eigenvalues --   -0.86917  -0.86188  -0.79913  -0.77982  -0.76820
  Beta  occ. eigenvalues --   -0.75818  -0.75053  -0.73475  -0.67470  -0.66035
  Beta  occ. eigenvalues --   -0.64872  -0.61231  -0.60512  -0.58150  -0.56265
  Beta  occ. eigenvalues --   -0.52251  -0.52231  -0.50504  -0.50450  -0.49960
  Beta  occ. eigenvalues --   -0.49408  -0.49079  -0.48416  -0.46435  -0.46371
  Beta  occ. eigenvalues --   -0.44314  -0.44007  -0.43351  -0.42834  -0.42272
  Beta  occ. eigenvalues --   -0.42090  -0.41398  -0.41262  -0.41152  -0.40594
  Beta  occ. eigenvalues --   -0.39202  -0.39161  -0.39001  -0.37340  -0.36422
  Beta  occ. eigenvalues --   -0.36060  -0.36019  -0.34928  -0.33122  -0.32692
  Beta  occ. eigenvalues --   -0.32441  -0.29844  -0.29828  -0.26283  -0.25315
  Beta  occ. eigenvalues --   -0.24933  -0.24688  -0.24564  -0.23752
  Beta virt. eigenvalues --   -0.08827  -0.05150  -0.01785  -0.01447  -0.01230
  Beta virt. eigenvalues --   -0.00591  -0.00576  -0.00249   0.00724   0.01506
  Beta virt. eigenvalues --    0.01704   0.03065   0.03139   0.03401   0.03741

 Mulliken charges and spin densities:
               1          2
     1  C    0.076275   0.029650
     2  C   -0.976654   0.026744
     3  C    0.248015   0.045506
     4  C    0.464516   0.050765
     5  C    0.177242   0.029692
     6  C    0.227238   0.017440
     7  C   -0.869456   0.109970
     8  C    0.461279   0.050605
     9  C    0.176239   0.029750
    10  C   -0.524313   0.081968
    11  C    0.078710   0.029624
    12  C   -0.975830   0.026787
    13  C    0.241529   0.045599
    14  C    0.228739   0.017387
    15  O   -0.448832   0.221474
    16  O   -0.445066   0.200279
    17  H    0.183907  -0.000702
    18  H    0.183847  -0.000704
    19  H    0.184092  -0.002294
    20  H    0.184022  -0.002291
    21  H    0.213169  -0.003629
    22  O   -0.004359   0.000194
    23  C    0.121668   0.000149
    24  C   -0.536223   0.000481
    25  O   -0.286713  -0.000835
    26  O   -0.003867   0.000144
    27  H    0.188071   0.000045
    28  H    0.189753   0.000002
    29  H    0.176689  -0.000028
    30  C    0.122481   0.000169
    31  C   -0.537143   0.000448
    32  O   -0.286459  -0.000789
    33  H    0.212960  -0.003619
    34  H    0.188280   0.000044
    35  H    0.176622  -0.000027
    36  H    0.189570  -0.000001
 Sum of Mulliken charges =  -1.00000   1.00000

 Dipole moment (field-independent basis, Debye):
    X=              3.1332    Y=             -8.8699    Z=             -4.3151  Tot=             10.3495
 Quadrupole moment (field-independent basis, Debye-Ang):
   XX=           -116.8152   YY=           -178.3820   ZZ=           -160.4035
   XY=              0.5688   XZ=             -2.1831   YZ=            -10.3042

  Exact polarizability: 543.086 -14.425 396.451 -36.229  14.165 206.433
 Approx polarizability: 536.520  -6.108 472.661 -31.598   9.234 244.545

                      1                      2                      3
                      A                      A                      A
 Frequencies --     16.5282                25.0590                33.4273
 Red. masses --      7.3025                 5.0010                 1.3934
 Frc consts  --      0.0012                 0.0019                 0.0009
 IR Inten    --      1.4219                 0.6873                 6.7642

                      4                      5                      6
                      A                      A                      A
 Frequencies --     35.1090                37.3867                55.6783
 Red. masses --      4.3484                 1.5778                 4.9720
 Frc consts  --      0.0032                 0.0013                 0.0091
 IR Inten    --      5.5537                 1.9510                 0.5268

                      7                      8                      9
                      A                      A                      A
 Frequencies --     74.3130                81.1604                82.3910
 Red. masses --      2.1461                 2.9411                 4.9786
 Frc consts  --      0.0070                 0.0114                 0.0199
 IR Inten    --      7.4783                 2.6833                 2.7295

                     10                     11                     12
                      A                      A                      A
 Frequencies --    129.3222               147.4527               162.5429
 Red. masses --      4.8020                 6.7671                 8.6282
 Frc consts  --      0.0473                 0.0867                 0.1343
 IR Inten    --      1.6375                 7.3119                 9.1213

                     13                     14                     15
                      A                      A                      A
 Frequencies --    180.7744               204.3748               240.3515
 Red. masses --      7.5445                 7.5116                 4.9920
 Frc consts  --      0.1453                 0.1849                 0.1699
 IR Inten    --      1.8963                 1.7599                 8.1015

                     16                     17                     18
                      A                      A                      A
 Frequencies --    257.0344               291.7595               305.5737
 Red. masses --      9.6775                 4.9015                 6.2415
 Frc consts  --      0.3767                 0.2458                 0.3434
 IR Inten    --      0.1862                 0.8076                 4.8980

                     19                     20                     21
                      A                      A                      A
 Frequencies --    343.7640               389.6841               403.7201
 Red. masses --      5.7323                 9.8902                 5.7510
 Frc consts  --      0.3991                 0.8849                 0.5523
 IR Inten    --      2.2149                35.5436                 5.9268

                     22                     23                     24
                      A                      A                      A
 Frequencies --    409.0132               419.5628               422.8491
 Red. masses --      4.4141                 5.8762                 3.9951
 Frc consts  --      0.4351                 0.6095                 0.4209
 IR Inten    --     12.1723                12.6185                 2.0113

                     25                     26                     27
                      A                      A                      A
 Frequencies --    466.1678               475.8523               481.5425
 Red. masses --      3.1595                 4.9071                 6.9419
 Frc consts  --      0.4045                 0.6547                 0.9484
 IR Inten    --      0.0010                 6.3152                11.6851

                     28                     29                     30
                      A                      A                      A
 Frequencies --    493.1532               566.1819               571.5689
 Red. masses --      8.8258                 5.4169                 4.8072
 Frc consts  --      1.2646                 1.0231                 0.9253
 IR Inten    --      3.3775                17.3543                35.2085

                     31                     32                     33
                      A                      A                      A
 Frequencies --    578.8099               602.9024               606.3002
 Red. masses --      5.0564                 2.8994                 2.9395
 Frc consts  --      0.9981                 0.6209                 0.6367
 IR Inten    --      0.8114                11.2649                 2.5743

                     34                     35                     36
                      A                      A                      A
 Frequencies --    639.5213               650.0288               676.3994
 Red. masses --      4.4984                 7.1571                 4.1440
 Frc consts  --      1.0840                 1.7818                 1.1170
 IR Inten    --     19.1853                 7.1840                43.8000

                     37                     38                     39
                      A                      A                      A
 Frequencies --    692.1592               711.6622               721.7674
 Red. masses --      6.0014                 6.6435                 5.3400
 Frc consts  --      1.6940                 1.9824                 1.6390
 IR Inten    --      3.8284                 3.2957                24.4728

                     40                     41                     42
                      A                      A                      A
 Frequencies --    725.7962               763.3859               788.2032
 Red. masses --      4.4258                 6.0172                 3.6792
 Frc consts  --      1.3736                 2.0660                 1.3467
 IR Inten    --      0.2045                 4.9851                 3.3015

                     43                     44                     45
                      A                      A                      A
 Frequencies --    796.1544               833.7922               838.1973
 Red. masses --      3.3627                 1.7878                 2.0371
 Frc consts  --      1.2558                 0.7323                 0.8432
 IR Inten    --     31.0981                32.9293                22.5115

                     46                     47                     48
                      A                      A                      A
 Frequencies --    881.7123               897.5104               926.6340
 Red. masses --      3.3249                 2.4425                 1.9637
 Frc consts  --      1.5230                 1.1592                 0.9935
 IR Inten    --     32.8833                66.9238                41.3903

                     49                     50                     51
                      A                      A                      A
 Frequencies --    933.2361               941.1443               957.0773
 Red. masses --      3.9299                 3.0068                 3.8102
 Frc consts  --      2.0166                 1.5692                 2.0563
 IR Inten    --    105.0018                 0.2402               111.0942

                     52                     53                     54
                      A                      A                      A
 Frequencies --    987.0248               989.8388              1010.0159
 Red. masses --      1.3116                 1.3272                 2.3581
 Frc consts  --      0.7528                 0.7662                 1.4173
 IR Inten    --      0.4768                 2.5543                 1.3079

                     55                     56                     57
                      A                      A                      A
 Frequencies --   1021.0519              1022.7438              1062.3743
 Red. masses --      1.8434                 1.8829                 1.7902
 Frc consts  --      1.1323                 1.1604                 1.1904
 IR Inten    --     68.9220               319.3379                14.3162

                     58                     59                     60
                      A                      A                      A
 Frequencies --   1062.7342              1100.8715              1118.7520
 Red. masses --      1.7892                 2.3311                 1.5733
 Frc consts  --      1.1906                 1.6645                 1.1602
 IR Inten    --     14.3298                 3.3344                 0.1557

                     61                     62                     63
                      A                      A                      A
 Frequencies --   1138.3567              1153.9550              1187.7017
 Red. masses --      1.5666                 3.2263                 2.0797
 Frc consts  --      1.1961                 2.5312                 1.7285
 IR Inten    --    113.9525               669.1864                49.6829

                     64                     65                     66
                      A                      A                      A
 Frequencies --   1204.8376              1208.3552              1212.9534
 Red. masses --      5.8785                 4.2285                 1.7984
 Frc consts  --      5.0277                 3.6377                 1.5589
 IR Inten    --    579.9079               681.4978               235.3685

                     67                     68                     69
                      A                      A                      A
 Frequencies --   1223.8315              1227.5700              1252.4420
 Red. masses --      3.4590                 5.5331                 1.9547
 Frc consts  --      3.0524                 4.9126                 1.8065
 IR Inten    --    171.7754               155.2217               109.6991

                     70                     71                     72
                      A                      A                      A
 Frequencies --   1314.9547              1360.7613              1364.7233
 Red. masses --      2.1623                10.1726                10.0098
 Frc consts  --      2.2028                11.0980                10.9842
 IR Inten    --      0.6753               185.5133                 5.8207

                     73                     74                     75
                      A                      A                      A
 Frequencies --   1394.5770              1395.2306              1395.5134
 Red. masses --      2.8581                 1.3213                 1.4765
 Frc consts  --      3.2750                 1.5154                 1.6942
 IR Inten    --    636.5463               164.4840               318.2241

                     76                     77                     78
                      A                      A                      A
 Frequencies --   1452.8825              1458.8066              1458.9077
 Red. masses --      3.4255                 1.0562                 1.0561
 Frc consts  --      4.2603                 1.3243                 1.3243
 IR Inten    --    169.3670                30.8250                28.5166

                     79                     80                     81
                      A                      A                      A
 Frequencies --   1463.6307              1463.7547              1472.2493
 Red. masses --      1.0477                 1.0474                 4.1340
 Frc consts  --      1.3224                 1.3223                 5.2794
 IR Inten    --     34.8665                14.9963               555.2014

                     82                     83                     84
                      A                      A                      A
 Frequencies --   1488.0834              1506.7761              1529.9162
 Red. masses --      4.2701                 5.1365                 6.9083
 Frc consts  --      5.5711                 6.8710                 9.5269
 IR Inten    --    156.6490               901.2382                38.4514

                     85                     86                     87
                      A                      A                      A
 Frequencies --   1560.9206              1608.9216              1625.7481
 Red. masses --      6.6592                 8.6622                 6.5466
 Frc consts  --      9.5595                13.2114                10.1947
 IR Inten    --     69.4400                13.0564               202.7473

                     88                     89                     90
                      A                      A                      A
 Frequencies --   1637.7541              1768.2916              1768.7868
 Red. masses --      7.5061                11.3451                11.3433
 Frc consts  --     11.8621                20.9009                20.9094
 IR Inten    --      7.8628                93.9619               855.9424

                     91                     92                     93
                      A                      A                      A
 Frequencies --   3052.9012              3053.0463              3114.1281
 Red. masses --      1.0367                 1.0367                 1.1001
 Frc consts  --      5.6931                 5.6936                 6.2854
 IR Inten    --      1.1357                 1.1029                 3.8741

                     94                     95                     96
                      A                      A                      A
 Frequencies --   3114.1837              3158.4610              3158.8509
 Red. masses --      1.1001                 1.1034                 1.1034
 Frc consts  --      6.2860                 6.4856                 6.4868
 IR Inten    --      3.8725                11.6318                11.4394

                     97                     98                     99
                      A                      A                      A
 Frequencies --   3183.4835              3184.1013              3197.8373
 Red. masses --      1.0879                 1.0879                 1.0946
 Frc consts  --      6.4960                 6.4983                 6.5950
 IR Inten    --      0.6173                 0.7767                18.4786

                    100                    101                    102
                      A                      A                      A
 Frequencies --   3198.5324              3200.6198              3201.5183
 Red. masses --      1.0943                 1.0910                 1.0910
 Frc consts  --      6.5963                 6.5850                 6.5886
 IR Inten    --     10.0839                27.6290                 6.1711

 - Thermochemistry -
 -------------------
 Temperature   298.150 Kelvin.  Pressure   1.00000 Atm.
 Atom     1 has atomic number  6 and mass  12.00000

 Molecular mass:   324.06339 amu.
 Principal axes and moments of inertia in atomic units:
                           1         2         3
     Eigenvalues --  3016.62732********************
           X            0.98855   0.12786   0.08018
           Y           -0.10432   0.96282  -0.24919
           Z           -0.10906   0.23797   0.96513
 This molecule is an asymmetric top.
 Rotational symmetry number  1.
 Warning -- assumption of classical behavior for rotation
           may cause significant error
 Rotational temperatures (Kelvin)      0.02871     0.00480     0.00431
 Rotational constants (GHZ):           0.59826     0.09998     0.08972
 Zero-point vibrational energy     678641.3 (Joules/Mol)
                                  162.19915 (Kcal/Mol)
 Warning -- explicit consideration of  33 degrees of freedom as
           vibrations may cause significant error
 Vibrational temperatures:     23.78    36.05    48.09    50.51    53.79
          (Kelvin)             80.11   106.92   116.77   118.54   186.07
                              212.15   233.86   260.09   294.05   345.81
                              369.82   419.78   439.65   494.60   560.67
                              580.86   588.48   603.66   608.39   670.71
                              684.65   692.83   709.54   814.61   822.36
                              832.78   867.44   872.33   920.13   935.25
                              973.19   995.86  1023.92  1038.46  1044.26
                             1098.34  1134.05  1145.49  1199.64  1205.98
                             1268.59  1291.32  1333.22  1342.72  1354.10
                             1377.02  1420.11  1424.16  1453.19  1469.07
                             1471.50  1528.52  1529.04  1583.91  1609.63
                             1637.84  1660.28  1708.84  1733.49  1738.55
                             1745.17  1760.82  1766.20  1801.98  1891.93
                             1957.83  1963.53  2006.49  2007.43  2007.83
                             2090.37  2098.90  2099.04  2105.84  2106.02
                             2118.24  2141.02  2167.91  2201.21  2245.82
                             2314.88  2339.09  2356.36  2544.18  2544.89
                             4392.44  4392.65  4480.54  4480.62  4544.32
                             4544.88  4580.32  4581.21  4600.97  4601.97
                             4604.98  4606.27

 Zero-point correction=                           0.258481 (Hartree/Particle)
 Thermal correction to Energy=                    0.279513
 Thermal correction to Enthalpy=                  0.280457
 Thermal correction to Gibbs Free Energy=         0.203747
 Sum of electronic and zero-point Energies=          -1144.738278
 Sum of electronic and thermal Energies=             -1144.717246
 Sum of electronic and thermal Enthalpies=           -1144.716302
 Sum of electronic and thermal Free Energies=        -1144.793012

                     E (Thermal)             CV                S
                      KCal/Mol        Cal/Mol-Kelvin    Cal/Mol-Kelvin
 Total                  175.397             77.981            161.450
 Electronic               0.000              0.000              1.377
 Translational            0.889              2.981             43.223
 Rotational               0.889              2.981             35.348
 Vibrational            173.620             72.020             81.502
 Vibration     1          0.593              1.986              7.013
 Vibration     2          0.593              1.985              6.187
 Vibration     3          0.594              1.983              5.615
 Vibration     4          0.594              1.982              5.518
 Vibration     5          0.594              1.982              5.393
 Vibration     6          0.596              1.975              4.605
 Vibration     7          0.599              1.966              4.036
 Vibration     8          0.600              1.962              3.863
 Vibration     9          0.600              1.961              3.833
 Vibration    10          0.612              1.924              2.956
 Vibration    11          0.617              1.905              2.705
 Vibration    12          0.623              1.888              2.520
 Vibration    13          0.630              1.866              2.320
 Vibration    14          0.640              1.834              2.093
 Vibration    15          0.657              1.779              1.800
 Vibration    16          0.667              1.751              1.682
 Vibration    17          0.687              1.689              1.464
 Vibration    18          0.696              1.663              1.386
 Vibration    19          0.723              1.588              1.195
 Vibration    20          0.758              1.492              1.001
 Vibration    21          0.769              1.462              0.949
 Vibration    22          0.773              1.451              0.930
 Vibration    23          0.782              1.428              0.893
 Vibration    24          0.785              1.421              0.882
 Vibration    25          0.824              1.325              0.748
 Vibration    26          0.832              1.304              0.721
 Vibration    27          0.838              1.291              0.706
 Vibration    28          0.849              1.265              0.675
 Vibration    29          0.922              1.104              0.512
 Vibration    30          0.928              1.093              0.501
 Vibration    31          0.935              1.077              0.488
 Vibration    32          0.961              1.026              0.445
 Vibration    33          0.965              1.018              0.439

 Optimization completed on the basis of negligible forces.
    -- Stationary point found.
 Normal termination of Gaussian 16 at Sat Feb 10 19:20:48 2024.
