 Gaussian 16, Revision A.03,
 Gaussian 16:  ES64L-G16RevA.03 25-Dec-2016

 ----------------------------------------------------------------------
 #P UB3LYP/6-311++G(d,p) nosym opt freq SCRF=(PCM,Solvent=n,n-DiMethylF
 ormamide)
 ----------------------------------------------------------------------

 --------
 Oxidized
 --------
 Symbolic Z-matrix:
 Charge =  0 Multiplicity = 1

 SCF Done:  E(UB3LYP) =  -1010.89674310     A.U. after   17 cycles
 SCF Done:  E(UB3LYP) =  -1010.89684241     A.U. after   13 cycles
 SCF Done:  E(UB3LYP) =  -1010.89685171     A.U. after   13 cycles
 SCF Done:  E(UB3LYP) =  -1010.89685630     A.U. after   12 cycles
 SCF Done:  E(UB3LYP) =  -1010.89685694     A.U. after   11 cycles
 SCF Done:  E(UB3LYP) =  -1010.89685711     A.U. after   10 cycles
 Optimization completed.
    -- Stationary point found.
 Normal termination of Gaussian 16 at Sat Feb 10 11:03:07 2024.

 ----------------------------------------------------------------------
 #P Geom=AllCheck Guess=TCheck SCRF=Check GenChk UB3LYP/6-311++G(d,p) F
 req
 ----------------------------------------------------------------------

 Structure from the checkpoint file:  "102.chk"
 --------
 Oxidized
 --------
 Charge =  0 Multiplicity = 1

                          Input orientation:
 ---------------------------------------------------------------------
 Center     Atomic      Atomic             Coordinates (Angstroms)
 Number     Number       Type             X           Y           Z
 ---------------------------------------------------------------------
      1          6           0        2.792273    3.597749    4.163488
      2          6           0        3.817660    2.812534    3.442385
      3          6           0        3.480452    1.796691    2.640306
      4          6           0        2.058007    1.415889    2.440946
      5          6           0        1.351437    3.215205    3.961694
      6          6           0        1.029604    2.185811    3.147952
      7          8           0        3.101659    4.523588    4.896416
      8          8           0        1.764303    0.479880    1.701136
      9         16           0        0.237509    4.233789    4.876140
     10          6           0       -1.365968    3.553521    4.430703
     11          6           0       -1.935096    2.547220    5.216179
     12          6           0       -2.063477    4.080897    3.340289
     13          6           0       -3.331748    3.590645    3.032240
     14          6           0       -3.203953    2.062911    4.900881
     15          6           0       -3.901356    2.582787    3.810424
     16          1           0        4.846018    3.112701    3.606978
     17          1           0        4.218178    1.210511    2.104595
     18          1           0        0.004286    1.881710    2.979071
     19          1           0       -1.391845    2.149002    6.064600
     20          1           0       -1.619388    4.866539    2.741066
     21          1           0       -3.873405    3.999012    2.187016
     22          1           0       -3.646163    1.282597    5.509267
     23          1           0       -4.888637    2.205821    3.569719
 ---------------------------------------------------------------------

 SCF Done:  E(UB3LYP) =  -1010.89685711     A.U. after    1 cycles

 Alpha  occ. eigenvalues --  -88.88508 -19.15324 -19.14047 -10.30119 -10.28770
 Alpha  occ. eigenvalues --  -10.25035 -10.22464 -10.21735 -10.21617 -10.20646
 Alpha  occ. eigenvalues --  -10.19712 -10.19710 -10.19265 -10.19185 -10.19166
 Alpha  occ. eigenvalues --   -7.97072  -5.93452  -5.93032  -5.92521  -1.08442
 Alpha  occ. eigenvalues --   -1.06750  -0.88988  -0.87265  -0.82835  -0.78323
 Alpha  occ. eigenvalues --   -0.76802  -0.73716  -0.70456  -0.64589  -0.62672
 Alpha  occ. eigenvalues --   -0.61342  -0.59437  -0.54012  -0.52700  -0.51614
 Alpha  occ. eigenvalues --   -0.48941  -0.47695  -0.47150  -0.46158  -0.45847
 Alpha  occ. eigenvalues --   -0.45013  -0.44156  -0.43994  -0.42487  -0.41277
 Alpha  occ. eigenvalues --   -0.40237  -0.38150  -0.36776  -0.34996  -0.34244
 Alpha  occ. eigenvalues --   -0.31569  -0.30106  -0.28728  -0.27643  -0.27351
 Alpha  occ. eigenvalues --   -0.25366
 Alpha virt. eigenvalues --   -0.14084  -0.04501  -0.03558  -0.03353  -0.00817
 Alpha virt. eigenvalues --   -0.00619   0.00268   0.01187   0.01307   0.01852
 Alpha virt. eigenvalues --    0.02210   0.02774   0.03626   0.03996   0.04155

  Beta  occ. eigenvalues --  -88.88508 -19.15324 -19.14047 -10.30119 -10.28770
  Beta  occ. eigenvalues --  -10.25035 -10.22464 -10.21735 -10.21617 -10.20646
  Beta  occ. eigenvalues --  -10.19712 -10.19710 -10.19265 -10.19185 -10.19166
  Beta  occ. eigenvalues --   -7.97072  -5.93452  -5.93032  -5.92521  -1.08442
  Beta  occ. eigenvalues --   -1.06750  -0.88988  -0.87265  -0.82835  -0.78323
  Beta  occ. eigenvalues --   -0.76802  -0.73716  -0.70456  -0.64589  -0.62672
  Beta  occ. eigenvalues --   -0.61342  -0.59437  -0.54012  -0.52700  -0.51614
  Beta  occ. eigenvalues --   -0.48941  -0.47695  -0.47150  -0.46158  -0.45847
  Beta  occ. eigenvalues --   -0.45013  -0.44156  -0.43994  -0.42487  -0.41277
  Beta  occ. eigenvalues --   -0.40237  -0.38150  -0.36776  -0.34996  -0.34244
  Beta  occ. eigenvalues --   -0.31569  -0.30106  -0.28728  -0.27643  -0.27351
  Beta  occ. eigenvalues --   -0.25366
  Beta virt. eigenvalues --   -0.14084  -0.04501  -0.03558  -0.03353  -0.00817
  Beta virt. eigenvalues --   -0.00619   0.00268   0.01187   0.01307   0.01852
  Beta virt. eigenvalues --    0.02210   0.02774   0.03626   0.03996   0.04155

 Mulliken charges and spin densities:
               1          2
     1  C   -0.751725   0.000000
     2  C    0.065382  -0.000000
     3  C    0.208166   0.000000
     4  C   -0.365047  -0.000000
     5  C    0.328208   0.000000
     6  C   -0.198619  -0.000000
     7  O   -0.238811  -0.000000
     8  O   -0.300915  -0.000000
     9  S   -0.015831  -0.000000
    10  C    1.170900   0.000000
    11  C   -0.316551  -0.000000
    12  C   -0.324719  -0.000000
    13  C   -0.388326  -0.000000
    14  C   -0.388734   0.000000
    15  C   -0.284474  -0.000000
    16  H    0.243104  -0.000000
    17  H    0.251444  -0.000000
    18  H    0.257260   0.000000
    19  H    0.221045  -0.000000
    20  H    0.220957   0.000000
    21  H    0.206470   0.000000
    22  H    0.206478  -0.000000
    23  H    0.194340  -0.000000
 Sum of Mulliken charges =  -0.00000   0.00000

 Dipole moment (field-independent basis, Debye):
    X=             -2.3325    Y=             -0.3824    Z=             -0.1631  Tot=              2.3692
 Quadrupole moment (field-independent basis, Debye-Ang):
   XX=            -74.6993   YY=           -108.3959   ZZ=           -100.7103
   XY=             -9.5085   XZ=            -12.0727   YZ=            -16.9908

  Exact polarizability: 262.090  11.783 236.022   2.703  54.516 212.372
 Approx polarizability: 271.469  29.164 314.136  18.824  86.722 274.479

                      1                      2                      3
                      A                      A                      A
 Frequencies --     31.8862                42.1408                56.3655
 Red. masses --      4.1041                 6.0326                 6.4479
 Frc consts  --      0.0025                 0.0063                 0.0121
 IR Inten    --      0.2194                 1.6839                 0.7492

                      4                      5                      6
                      A                      A                      A
 Frequencies --     78.2078               143.2905               179.4649
 Red. masses --      8.2156                 6.6604                 7.6035
 Frc consts  --      0.0296                 0.0806                 0.1443
 IR Inten    --     14.5089                 4.6024                 0.7349

                      7                      8                      9
                      A                      A                      A
 Frequencies --    218.6506               254.7448               293.5060
 Red. masses --      5.8448                 4.7223                 5.8668
 Frc consts  --      0.1646                 0.1806                 0.2978
 IR Inten    --      4.4661                 0.0300                 0.0020

                     10                     11                     12
                      A                      A                      A
 Frequencies --    365.7833               397.8217               414.6433
 Red. masses --     10.9455                 3.8780                 2.8520
 Frc consts  --      0.8628                 0.3616                 0.2889
 IR Inten    --      2.5641                 0.4988                 0.0042

                     13                     14                     15
                      A                      A                      A
 Frequencies --    417.8000               428.6710               469.8221
 Red. masses --     11.1576                 8.7226                10.1968
 Frc consts  --      1.1475                 0.9444                 1.3261
 IR Inten    --     51.6976                32.0530                 6.2877

                     16                     17                     18
                      A                      A                      A
 Frequencies --    509.5847               559.2480               595.2042
 Red. masses --      4.0351                 5.4467                 2.4188
 Frc consts  --      0.6174                 1.0037                 0.5049
 IR Inten    --     10.6749                14.4373                 1.1033

                     19                     20                     21
                      A                      A                      A
 Frequencies --    627.4568               652.1846               705.1865
 Red. masses --      6.4652                 7.1172                 2.3398
 Frc consts  --      1.4997                 1.7836                 0.6856
 IR Inten    --      0.1706                 8.1571                39.6134

                     22                     23                     24
                      A                      A                      A
 Frequencies --    711.1334               762.4830               777.3367
 Red. masses --      4.0364                 1.8429                 5.0144
 Frc consts  --      1.2027                 0.6313                 1.7852
 IR Inten    --     30.9206                57.4299                 0.5571

                     25                     26                     27
                      A                      A                      A
 Frequencies --    792.3022               821.6050               856.7531
 Red. masses --      4.7758                 1.6958                 1.2477
 Frc consts  --      1.7664                 0.6745                 0.5396
 IR Inten    --     10.5992                12.9426                 0.1140

                     28                     29                     30
                      A                      A                      A
 Frequencies --    857.3549               897.1935               942.8820
 Red. masses --      5.0658                 1.6569                 1.3628
 Frc consts  --      2.1939                 0.7858                 0.7138
 IR Inten    --     27.4195                94.4517                 4.0640

                     31                     32                     33
                      A                      A                      A
 Frequencies --    992.7325               996.9270              1007.8084
 Red. masses --      4.7575                 1.3802                 1.2500
 Frc consts  --      2.7624                 0.8082                 0.7480
 IR Inten    --    287.0142                 0.0164                 0.0169

                     34                     35                     36
                      A                      A                      A
 Frequencies --   1014.4324              1018.2256              1039.6397
 Red. masses --      6.1374                 1.3113                 3.0763
 Frc consts  --      3.7212                 0.8010                 1.9591
 IR Inten    --      6.0313                 0.0670                13.9547

                     37                     38                     39
                      A                      A                      A
 Frequencies --   1094.3750              1098.3842              1118.5662
 Red. masses --      1.6003                 2.6783                 1.4744
 Frc consts  --      1.1292                 1.9038                 1.0869
 IR Inten    --     10.5109                 2.7295                77.6623

                     40                     41                     42
                      A                      A                      A
 Frequencies --   1179.3533              1195.2492              1212.4133
 Red. masses --      1.1065                 1.1350                 1.7549
 Frc consts  --      0.9067                 0.9554                 1.5198
 IR Inten    --      0.2145                 3.3098                16.2258

                     43                     44                     45
                      A                      A                      A
 Frequencies --   1292.5593              1311.9687              1331.0786
 Red. masses --      3.4017                 4.1701                 1.9599
 Frc consts  --      3.3485                 4.2291                 2.0459
 IR Inten    --    332.9072                 2.2581                48.3016

                     46                     47                     48
                      A                      A                      A
 Frequencies --   1342.5591              1386.3514              1467.9771
 Red. masses --      1.5611                 1.8312                 2.0658
 Frc consts  --      1.6578                 2.0737                 2.6228
 IR Inten    --      3.9756                16.2983                12.6321

                     49                     50                     51
                      A                      A                      A
 Frequencies --   1504.9208              1592.8294              1613.1815
 Red. masses --      2.0449                 7.8617                 5.5382
 Frc consts  --      2.7287                11.7519                 8.4915
 IR Inten    --     19.7316               479.0867                 1.2318

                     52                     53                     54
                      A                      A                      A
 Frequencies --   1617.3913              1656.8972              1681.1481
 Red. masses --      5.4860                11.0163                 8.3910
 Frc consts  --      8.4554                17.8187                13.9725
 IR Inten    --      2.1137               384.8706               710.0649

                     55                     56                     57
                      A                      A                      A
 Frequencies --   1706.5731              3171.7028              3179.5122
 Red. masses --     10.3300                 1.0863                 1.0887
 Frc consts  --     17.7255                 6.4384                 6.4842
 IR Inten    --    280.7234                 0.0281                 4.8857

                     58                     59                     60
                      A                      A                      A
 Frequencies --   3184.2277              3187.3337              3193.6157
 Red. masses --      1.0876                 1.0923                 1.0949
 Frc consts  --      6.4973                 6.5379                 6.5793
 IR Inten    --      3.6124                13.2342                19.6822

                     61                     62                     63
                      A                      A                      A
 Frequencies --   3197.0678              3198.5523              3200.7515
 Red. masses --      1.0916                 1.0981                 1.0995
 Frc consts  --      6.5740                 6.6193                 6.6365
 IR Inten    --      0.3094                10.9506                 3.8180

 - Thermochemistry -
 -------------------
 Temperature   298.150 Kelvin.  Pressure   1.00000 Atm.
 Atom     1 has atomic number  6 and mass  12.00000

 Molecular mass:   216.02450 amu.
 Principal axes and moments of inertia in atomic units:
                           1         2         3
     Eigenvalues --  1839.099835199.852886403.28877
           X            0.98723   0.14928   0.05556
           Y           -0.08111   0.77133  -0.63125
           Z           -0.13708   0.61868   0.77359
 This molecule is an asymmetric top.
 Rotational symmetry number  1.
 Warning -- assumption of classical behavior for rotation
           may cause significant error
 Rotational temperatures (Kelvin)      0.04710     0.01666     0.01353
 Rotational constants (GHZ):           0.98132     0.34708     0.28185
 Zero-point vibrational energy     435721.9 (Joules/Mol)
                                  104.14003 (Kcal/Mol)
 Warning -- explicit consideration of  18 degrees of freedom as
           vibrations may cause significant error
 Vibrational temperatures:     45.88    60.63    81.10   112.52   206.16
          (Kelvin)            258.21   314.59   366.52   422.29   526.28
                              572.38   596.58   601.12   616.76   675.97
                              733.18   804.63   856.37   902.77   938.35
                             1014.61  1023.16  1097.04  1118.41  1139.95
                             1182.11  1232.68  1233.54  1290.86  1356.60
                             1428.32  1434.36  1450.01  1459.54  1465.00
                             1495.81  1574.56  1580.33  1609.37  1696.83
                             1719.70  1744.39  1859.70  1887.63  1915.13
                             1931.64  1994.65  2112.09  2165.25  2291.73
                             2321.01  2327.07  2383.91  2418.80  2455.38
                             4563.37  4574.61  4581.39  4585.86  4594.90
                             4599.87  4602.00  4605.17

 Zero-point correction=                           0.165958 (Hartree/Particle)
 Thermal correction to Energy=                    0.178606
 Thermal correction to Enthalpy=                  0.179550
 Thermal correction to Gibbs Free Energy=         0.124888
 Sum of electronic and zero-point Energies=          -1010.730899
 Sum of electronic and thermal Energies=             -1010.718251
 Sum of electronic and thermal Enthalpies=           -1010.717307
 Sum of electronic and thermal Free Energies=        -1010.771969

                     E (Thermal)             CV                S
                      KCal/Mol        Cal/Mol-Kelvin    Cal/Mol-Kelvin
 Total                  112.077             47.916            115.046
 Electronic               0.000              0.000              0.000
 Translational            0.889              2.981             42.014
 Rotational               0.889              2.981             32.482
 Vibrational            110.299             41.954             40.550
 Vibration     1          0.594              1.983              5.708
 Vibration     2          0.595              1.980              5.156
 Vibration     3          0.596              1.975              4.581
 Vibration     4          0.600              1.964              3.935
 Vibration     5          0.616              1.910              2.759
 Vibration     6          0.629              1.868              2.334
 Vibration     7          0.646              1.813              1.970
 Vibration     8          0.665              1.755              1.698
 Vibration     9          0.688              1.686              1.454
 Vibration    10          0.739              1.543              1.097
 Vibration    11          0.764              1.475              0.971
 Vibration    12          0.778              1.438              0.910
 Vibration    13          0.781              1.432              0.899
 Vibration    14          0.790              1.408              0.863
 Vibration    15          0.827              1.317              0.738
 Vibration    16          0.865              1.229              0.635
 Vibration    17          0.915              1.119              0.525
 Vibration    18          0.953              1.042              0.458

 Optimization completed.
    -- Stationary point found.
 Normal termination of Gaussian 16 at Sat Feb 10 11:49:19 2024.
