 Q-Chem 5.4, Q-Chem, Inc., Pleasanton, CA (2021)
 Q-Chem 5.4.0 for Intel X86 EM64T Linux

User input:
--------------------------------------------------------------
$molecule
-1 2
C                  3.9072710000      0.6020160000     -0.1059150000
O                  2.6767440000      1.2873610000     -0.1597060000
C                  1.5208500000      0.5486790000     -0.1002330000
C                  1.5029790000     -0.8279300000      0.0092350000
C                  0.2918380000     -1.5994640000      0.0713020000
O                  0.2989360000     -2.8553120000      0.1715370000
C                 -0.9613260000     -0.8284810000      0.0109990000
C                 -2.1991830000     -1.4964100000      0.0649680000
C                 -3.3924220000     -0.7980640000      0.0102780000
C                 -3.3748420000      0.6075430000     -0.1014390000
C                 -2.1697860000      1.2827420000     -0.1559630000
C                 -0.9411680000      0.5896830000     -0.1017530000
C                  0.3115340000      1.3528590000     -0.1632650000
O                  0.3340450000      2.6066690000     -0.2628530000
H                  4.0247830000      0.0438520000      0.8321500000
H                  4.6816860000      1.3687330000     -0.1673030000
H                  4.0239100000     -0.0973490000     -0.9441540000
H                  2.4193840000     -1.4036980000      0.0545530000
H                 -2.1773670000     -2.5772170000      0.1507890000
H                 -4.3392120000     -1.3287280000      0.0531020000
H                 -4.3094930000      1.1598010000     -0.1446700000
H                 -2.1291620000      2.3627150000     -0.2417560000
$end
$rem
MAX_SCF_CYCLES=200
BASIS  =  6-311++G(d,p)
GUI  =  2
JOB_TYPE  =  SP
METHOD  =  B3LYP
SOLVENT_METHOD = COSMO
$end
$solvent
dielectric 37.219
opticaldielectric 1.43
$end

--------------------------------------------------------------

             Standard Nuclear Orientation (Angstroms)
    I     Atom           X                Y                Z
 ----------------------------------------------------------------
    1      C       3.9869874086    -0.1787587499     0.0000779921
    2      O       2.9041452337     0.7235941429    -0.0000617917
    3      C       1.6315240381     0.2081192505    -0.0001028734
    4      C       1.3595862821    -1.1459135451    -0.0000928834
    5      C       0.0265932703    -1.6836022734    -0.0001892258
    6      O      -0.1984939313    -2.9231938322     0.0002045080
    7      C      -1.0626787377    -0.6926644742    -0.0000487312
    8      C      -2.4027884062    -1.1232894039    -0.0000246178
    9      C      -3.4465803435    -0.2149965909    -0.0000049158
   10      C      -3.1695711686     1.1676771587     0.0000411743
   11      C      -1.8603582121     1.6115104082     0.0000177453
   12      C      -0.7808148122     0.7019183368    -0.0000374472
   13      C       0.5914852923     1.2237191195    -0.0000220788
   14      O       0.8452908511     2.4558095209     0.0000877057
   15      H       3.9857098541    -0.8202537825     0.8910350933
   16      H       4.8898328623     0.4346025747     0.0001733625
   17      H       3.9860431996    -0.8202937912    -0.8908723881
   18      H       2.1539257526    -1.8823817477     0.0000719980
   19      H      -2.5810574794    -2.1929646267    -0.0001168938
   20      H      -4.4752360102    -0.5638762252    -0.0000146426
   21      H      -3.9861919661     1.8843087107     0.0000811006
   22      H      -1.6208711068     2.6688648171     0.0001141655
 ----------------------------------------------------------------

   10    -649.8848808534      8.59e-06  Convergence criterion met
 Total energy in the final basis set =     -649.8848808534
    5    -649.9769511950      5.77e-06  Convergence criterion met
 Total energy in the final basis set =     -649.9769511950

                    Orbital Energies (a.u.)
 --------------------------------------------------------------

 Alpha MOs
 -- Occupied --
-19.1562 -19.0824 -19.0787 -10.2307 -10.2275 -10.2261 -10.2134 -10.1754
-10.1733 -10.1721 -10.1713 -10.1699 -10.1695 -10.1593  -1.0716  -1.0050
 -1.0030  -0.8586  -0.8050  -0.7510  -0.7449  -0.7144  -0.6636  -0.6201
 -0.6005  -0.5635  -0.5224  -0.5187  -0.4921  -0.4695  -0.4642  -0.4469
 -0.4295  -0.4218  -0.4180  -0.4166  -0.4031  -0.3989  -0.3844  -0.3576
 -0.3563  -0.3435  -0.3342  -0.3306  -0.2690  -0.2581  -0.2517  -0.2445
 -0.2391  -0.1529

 Beta MOs
 -- Occupied --
-19.1553 -19.0759 -19.0734 -10.2290 -10.2260 -10.2238 -10.2135 -10.1751
-10.1725 -10.1719 -10.1707 -10.1699 -10.1692 -10.1587  -1.0694  -0.9947
 -0.9926  -0.8564  -0.8002  -0.7489  -0.7430  -0.7118  -0.6562  -0.6183
 -0.5977  -0.5611  -0.5205  -0.5169  -0.4894  -0.4655  -0.4620  -0.4461
 -0.4273  -0.4202  -0.4116  -0.4044  -0.4013  -0.3961  -0.3613  -0.3550
 -0.3507  -0.3429  -0.3327  -0.3170  -0.2513  -0.2493  -0.2461  -0.2392
 -0.2309

          Ground-State Mulliken Net Atomic Charges

     Atom                 Charge (a.u.)    Spin (a.u.)
  --------------------------------------------------------
      1 C                    -0.355052      -0.000570
      2 O                    -0.225148       0.019567
      3 C                    -0.437546       0.126586
      4 C                     0.305077       0.026374
      5 C                    -0.262809       0.086072
      6 O                    -0.534180       0.185747
      7 C                     0.328598       0.041969
      8 C                     0.215248       0.012389
      9 C                    -0.407387       0.050395
     10 C                    -0.427644       0.010557
     11 C                     0.175448       0.066203
     12 C                     0.157507      -0.000059
     13 C                    -0.508910       0.143773
     14 O                    -0.528784       0.242886
     15 H                     0.168548       0.001567
     16 H                     0.201017      -0.000139
     17 H                     0.168509       0.001566
     18 H                     0.214080      -0.005502
     19 H                     0.173735      -0.000977
     20 H                     0.201289      -0.003580
     21 H                     0.203390      -0.001433
     22 H                     0.175013      -0.003392
  --------------------------------------------------------
  Sum of atomic charges =    -1.000000

                    Cartesian Multipole Moments
 -----------------------------------------------------------------
    Charge (ESU x 10^10)
                -4.8032
    Dipole Moment (Debye)
         X      -0.3943      Y      -0.1404      Z      -0.0003
       Tot       0.4185
    Quadrupole Moments (Debye-Ang)
        XX     -72.7578     XY     -13.0949     YY    -123.5324
        XZ      -0.0010     YZ      -0.0001     ZZ     -86.7496

 Total job time:  45.79s(wall), 347.16s(cpu)
        *  Thank you very much for using Q-Chem.  Have a nice day.  *
