 Gaussian 16, Revision A.03,
 Gaussian 16:  ES64L-G16RevA.03 25-Dec-2016

 ----------------------------------------------------------------
 #P UB3LYP/6-311++G(d,p) SCRF=(PCM,Solvent=n,n-DiMethylFormamide)
 ----------------------------------------------------------------

 ------------------
 Quinone PCM in DMF
 ------------------
 Symbolic Z-matrix:
 Charge =  0 Multiplicity = 1

                         Standard orientation:
 ---------------------------------------------------------------------
 Center     Atomic      Atomic             Coordinates (Angstroms)
 Number     Number       Type             X           Y           Z
 ---------------------------------------------------------------------
      1          6           0        1.332031   -0.977112    1.210565
      2          6           0        2.703138   -1.535819    1.130413
      3          6           0        3.610416   -1.015439    0.297680
      4          6           0        3.280727    0.134459   -0.578518
      5          6           0        1.903526    0.725095   -0.504165
      6          8           0        0.509688   -1.448278    1.979590
      7          8           0        4.114853    0.586105   -1.345969
      8          1           0        2.912785   -2.373500    1.786426
      9          6           0        0.994754    0.179970    0.332891
     10          6           0       -0.391996    0.774544    0.544707
     11          6           0       -1.561522    0.100981   -0.076121
     12          6           0       -2.892337    0.420113    0.297780
     13          6           0       -1.331446   -0.865663   -1.068713
     14          6           0       -3.928641   -0.255183   -0.354099
     15          6           0       -3.687024   -1.202340   -1.346049
     16          6           0       -2.379390   -1.511574   -1.710151
     17          8           0       -0.468123    1.782743    1.222142
     18          6           0       -3.241466    1.426676    1.364329
     19          1           0       -0.312635   -1.106212   -1.347466
     20          1           0       -4.951967   -0.030875   -0.072818
     21          1           0       -4.520565   -1.700126   -1.829175
     22          1           0       -2.178953   -2.248684   -2.478620
     23          6           0        1.647446    1.900802   -1.398439
     24          1           0        4.622300   -1.396279    0.214429
     25          1           0        2.292681    2.735992   -1.110593
     26          1           0        0.611817    2.232521   -1.351784
     27          1           0        1.907024    1.654930   -2.431222
     28          1           0       -2.705439    1.229566    2.294811
     29          1           0       -4.314836    1.401835    1.562735
     30          1           0       -2.962848    2.439210    1.064513
 ---------------------------------------------------------------------

 SCF Done:  E(UB3LYP) =  -804.695347141     A.U. after   15 cycles

 The electronic state is 1-A.
 Alpha  occ. eigenvalues --  -19.14934 -19.14898 -19.13642 -10.29578 -10.29302
 Alpha  occ. eigenvalues --  -10.28891 -10.23098 -10.22161 -10.21728 -10.21642
 Alpha  occ. eigenvalues --  -10.20804 -10.20156 -10.19627 -10.19370 -10.18741
 Alpha  occ. eigenvalues --  -10.18586 -10.18298 -10.16866  -1.08232  -1.07937
 Alpha  occ. eigenvalues --   -1.07045  -0.88217  -0.87464  -0.81982  -0.78969
 Alpha  occ. eigenvalues --   -0.78204  -0.74445  -0.70341  -0.70007  -0.66584
 Alpha  occ. eigenvalues --   -0.63548  -0.60856  -0.60395  -0.56740  -0.53996
 Alpha  occ. eigenvalues --   -0.52935  -0.50702  -0.49409  -0.48291  -0.47741
 Alpha  occ. eigenvalues --   -0.46703  -0.45814  -0.45344  -0.44658  -0.44338
 Alpha  occ. eigenvalues --   -0.43409  -0.43260  -0.42465  -0.41594  -0.41348
 Alpha  occ. eigenvalues --   -0.40439  -0.39516  -0.39209  -0.37242  -0.37129
 Alpha  occ. eigenvalues --   -0.35923  -0.31850  -0.30574  -0.29995  -0.29333
 Alpha  occ. eigenvalues --   -0.27650  -0.26789  -0.26460
 Alpha virt. eigenvalues --   -0.14144  -0.08219  -0.03661  -0.02659  -0.01021
 Alpha virt. eigenvalues --   -0.00817   0.00187   0.00700   0.00842   0.01216
 Alpha virt. eigenvalues --    0.01971   0.02770   0.03000   0.03357   0.04105

  Beta  occ. eigenvalues --  -19.14934 -19.14898 -19.13642 -10.29578 -10.29302
  Beta  occ. eigenvalues --  -10.28891 -10.23098 -10.22161 -10.21728 -10.21642
  Beta  occ. eigenvalues --  -10.20804 -10.20156 -10.19627 -10.19370 -10.18741
  Beta  occ. eigenvalues --  -10.18586 -10.18298 -10.16866  -1.08232  -1.07937
  Beta  occ. eigenvalues --   -1.07045  -0.88217  -0.87464  -0.81982  -0.78969
  Beta  occ. eigenvalues --   -0.78204  -0.74445  -0.70341  -0.70007  -0.66584
  Beta  occ. eigenvalues --   -0.63548  -0.60856  -0.60395  -0.56740  -0.53996
  Beta  occ. eigenvalues --   -0.52935  -0.50702  -0.49409  -0.48291  -0.47741
  Beta  occ. eigenvalues --   -0.46703  -0.45814  -0.45344  -0.44658  -0.44338
  Beta  occ. eigenvalues --   -0.43409  -0.43260  -0.42465  -0.41594  -0.41348
  Beta  occ. eigenvalues --   -0.40439  -0.39516  -0.39209  -0.37242  -0.37129
  Beta  occ. eigenvalues --   -0.35923  -0.31850  -0.30574  -0.29995  -0.29333
  Beta  occ. eigenvalues --   -0.27650  -0.26789  -0.26460
  Beta virt. eigenvalues --   -0.14144  -0.08219  -0.03661  -0.02659  -0.01021
  Beta virt. eigenvalues --   -0.00817   0.00187   0.00700   0.00842   0.01216
  Beta virt. eigenvalues --    0.01971   0.02770   0.03000   0.03357   0.04105

 Mulliken charges and spin densities:
               1          2
     1  C   -0.507929  -0.000000
     2  C   -0.203026   0.000000
     3  C    0.101520  -0.000000
     4  C   -0.342417   0.000000
     5  C    0.351221   0.000000
     6  O   -0.258404   0.000000
     7  O   -0.275175  -0.000000
     8  H    0.246613   0.000000
     9  C    0.792077  -0.000000
    10  C   -0.102627  -0.000000
    11  C    0.138603  -0.000000
    12  C    0.630198  -0.000000
    13  C   -0.287150   0.000000
    14  C   -0.526544   0.000000
    15  C   -0.245607  -0.000000
    16  C   -0.182695   0.000000
    17  O   -0.271691   0.000000
    18  C   -0.610436   0.000000
    19  H    0.182739   0.000000
    20  H    0.166026   0.000000
    21  H    0.200201  -0.000000
    22  H    0.206430   0.000000
    23  C   -0.551472  -0.000000
    24  H    0.249073  -0.000000
    25  H    0.207558  -0.000000
    26  H    0.162635   0.000000
    27  H    0.200326   0.000000
    28  H    0.186388  -0.000000
    29  H    0.153155   0.000000
    30  H    0.190411  -0.000000
 Sum of Mulliken charges =  -0.00000   0.00000

 Dipole moment (field-independent basis, Debye):
    X=             -1.2298    Y=             -2.3225    Z=             -2.7449  Tot=              3.8001
 Quadrupole moment (field-independent basis, Debye-Ang):
   XX=            -95.2417   YY=           -105.0224   ZZ=           -110.2032
   XY=             -6.3549   XZ=             10.9103   YZ=              2.6340

 Normal termination of Gaussian 16 at Wed Jan 24 22:52:34 2024.
