 Q-Chem 5.4, Q-Chem, Inc., Pleasanton, CA (2021)
 Q-Chem 5.4.0 for Intel X86 EM64T Linux

User input:
--------------------------------------------------------------
$molecule
-1 2
O                  0.1257160000      0.4160440000      2.6820860000
C                  0.0676040000      0.2224540000      1.4334360000
C                 -1.1941730000      0.1129630000      0.7154750000
C                 -2.4432440000      0.2171740000      1.3754780000
C                 -3.6426330000      0.1104250000      0.6772810000
C                 -3.6440390000     -0.1038660000     -0.7029560000
C                 -2.4168030000     -0.2112770000     -1.3841000000
C                 -1.2268980000     -0.1037470000     -0.6811630000
O                 -0.0668140000     -0.2196510000     -1.4180670000
C                  1.1578300000     -0.1239960000     -0.7896630000
C                  2.2761310000     -0.2511080000     -1.5986570000
C                  3.5623190000     -0.1653650000     -1.0323480000
C                  3.6903880000      0.0473880000      0.3421710000
C                  2.5620710000      0.1739640000      1.1472260000
C                  1.2560330000      0.0919140000      0.6041130000
H                 -2.4192510000      0.3832710000      2.4459000000
H                 -4.5847720000      0.1947180000      1.2119720000
H                 -4.5761220000     -0.1877920000     -1.2516110000
H                 -2.3756920000     -0.3775940000     -2.4551280000
H                  2.1345560000     -0.4156030000     -2.6612830000
H                  4.4391720000     -0.2645220000     -1.6633290000
H                  4.6790250000      0.1148910000      0.7880240000
H                  2.6395980000      0.3393150000      2.2151460000
$end
$rem
MAX_SCF_CYCLES=200
BASIS  =  6-311++G(d,p)
GUI  =  2
JOB_TYPE  =  SP
METHOD  =  B3LYP
SOLVENT_METHOD = COSMO
$end
$solvent
dielectric 37.219
opticaldielectric 1.43
$end

--------------------------------------------------------------

             Standard Nuclear Orientation (Angstroms)
    I     Atom           X                Y                Z
 ----------------------------------------------------------------
    1      O       0.0002658138    -2.6239113649    -0.0001176347
    2      C      -0.0002972854    -1.3590079704    -0.0001398386
    3      C       1.2264341420    -0.5750006495    -0.0001578857
    4      C       2.5051563716    -1.1845182577    -0.0001387878
    5      C       3.6704920023    -0.4233341824     0.0000721113
    6      C       3.6071046561     0.9720004720     0.0002520624
    7      C       2.3492021907     1.6038895876     0.0001862786
    8      C       1.1935632342     0.8383469177    -0.0000559272
    9      O       0.0001242997     1.5296931581    -0.0001785966
   10      C      -1.1937175874     0.8379302353    -0.0001622746
   11      C      -2.3488027639     1.6040921717    -0.0001992504
   12      C      -3.6070395548     0.9722872542     0.0000032977
   13      C      -3.6704527076    -0.4230430593     0.0002816031
   14      C      -2.5055465837    -1.1847700521     0.0002590557
   15      C      -1.2263915181    -0.5755070240    -0.0000080669
   16      H       2.5314367555    -2.2676971305    -0.0002197499
   17      H       4.6367265334    -0.9203417272     0.0001159857
   18      H       4.5124388184     1.5696748144     0.0004429220
   19      H       2.2578584326     2.6846803820     0.0002966371
   20      H      -2.2572585294     2.6847844204    -0.0003345124
   21      H      -4.5125777964     1.5696487939    -0.0000174446
   22      H      -4.6371096737    -0.9193483500     0.0004782155
   23      H      -2.5328630250    -2.2678482070     0.0004535320
 ----------------------------------------------------------------

   10    -650.8615463516      7.28e-06  Convergence criterion met
 Total energy in the final basis set =     -650.8615463516
    5    -650.9443741106      7.50e-06  Convergence criterion met
 Total energy in the final basis set =     -650.9443741106

                    Orbital Energies (a.u.)
 --------------------------------------------------------------

 Alpha MOs
 -- Occupied --
-19.1711 -19.0591 -10.2333 -10.2333 -10.2061 -10.1688 -10.1688 -10.1650
-10.1650 -10.1643 -10.1642 -10.1635 -10.1635 -10.1604 -10.1604  -1.0900
 -0.9837  -0.8559  -0.8431  -0.7688  -0.7629  -0.7389  -0.7235  -0.6489
 -0.6338  -0.5900  -0.5864  -0.5474  -0.5418  -0.4910  -0.4765  -0.4607
 -0.4544  -0.4535  -0.4257  -0.4256  -0.4114  -0.4028  -0.3856  -0.3807
 -0.3714  -0.3690  -0.3491  -0.3446  -0.3325  -0.3251  -0.2614  -0.2545
 -0.2509  -0.2336  -0.2245  -0.1087

 Beta MOs
 -- Occupied --
-19.1701 -19.0544 -10.2324 -10.2324 -10.2020 -10.1695 -10.1695 -10.1644
-10.1644 -10.1643 -10.1643 -10.1626 -10.1625 -10.1581 -10.1581  -1.0882
 -0.9745  -0.8538  -0.8406  -0.7645  -0.7605  -0.7362  -0.7213  -0.6420
 -0.6335  -0.5873  -0.5831  -0.5454  -0.5384  -0.4893  -0.4753  -0.4593
 -0.4522  -0.4487  -0.4245  -0.4242  -0.4098  -0.3979  -0.3845  -0.3705
 -0.3631  -0.3623  -0.3479  -0.3434  -0.3238  -0.3204  -0.2549  -0.2424
 -0.2393  -0.2295  -0.2166

          Ground-State Mulliken Net Atomic Charges

     Atom                 Charge (a.u.)    Spin (a.u.)
  --------------------------------------------------------
      1 O                    -0.602809       0.180359
      2 C                    -0.272870       0.271499
      3 C                     1.059242      -0.065390
      4 C                     0.232959       0.204784
      5 C                    -0.338391      -0.065932
      6 C                    -0.422600       0.175505
      7 C                    -0.401672      -0.020242
      8 C                    -0.894014       0.057574
      9 O                    -0.133451       0.021325
     10 C                    -0.895187       0.058043
     11 C                    -0.400188      -0.020477
     12 C                    -0.423068       0.176657
     13 C                    -0.337933      -0.066320
     14 C                     0.230906       0.205684
     15 C                     1.058500      -0.065334
     16 H                     0.182700      -0.014051
     17 H                     0.189640       0.004073
     18 H                     0.193486      -0.012751
     19 H                     0.204505      -0.001083
     20 H                     0.204529      -0.001077
     21 H                     0.193444      -0.012839
     22 H                     0.189609       0.004099
     23 H                     0.182664      -0.014106
  --------------------------------------------------------
  Sum of atomic charges =    -1.000000

                    Cartesian Multipole Moments
 -----------------------------------------------------------------
    Charge (ESU x 10^10)
                -4.8032
    Dipole Moment (Debye)
         X       0.0074      Y       6.9596      Z       0.0012
       Tot       6.9596
    Quadrupole Moments (Debye-Ang)
        XX     -93.4295     XY      -0.0005     YY    -109.7340
        XZ       0.0003     YZ      -0.0012     ZZ     -96.1069

 Total job time:  73.04s(wall), 395.33s(cpu)
        *  Thank you very much for using Q-Chem.  Have a nice day.  *
