 Q-Chem 5.4, Q-Chem, Inc., Pleasanton, CA (2021)
 Q-Chem 5.4.0 for Intel X86 EM64T Linux

User input:
--------------------------------------------------------------
$molecule
-1 2
O                  2.5425450000     -0.9970870000     -0.2523720000
C                  1.3170630000     -0.4440790000     -0.1248550000
C                  1.0986830000      0.9049870000     -0.0016020000
Cl                 2.4487610000      2.0311280000     -0.0027210000
C                 -0.2285750000      1.4259410000      0.1300870000
O                 -0.5573610000      2.6409310000      0.2491200000
C                 -1.3167220000      0.4441530000      0.1249880000
C                 -1.0985280000     -0.9051890000      0.0017250000
Cl                -2.4488950000     -2.0309100000      0.0026940000
C                  0.2285040000     -1.4261190000     -0.1298500000
O                  0.5572670000     -2.6410930000     -0.2494810000
O                 -2.5422670000      0.9971520000      0.2525250000
H                  2.3260310000     -1.9554680000     -0.3143450000
H                 -2.3265050000      1.9556540000      0.3140880000
$end
$rem
MAX_SCF_CYCLES=200
BASIS  =  6-311++G(d,p)
GUI  =  2
JOB_TYPE  =  SP
METHOD  =  B3LYP
SOLVENT_METHOD = COSMO
$end
$solvent
dielectric 37.219
opticaldielectric 1.43
$end

--------------------------------------------------------------

             Standard Nuclear Orientation (Angstroms)
    I     Atom           X                Y                Z
 ----------------------------------------------------------------
    1      O      -1.3842090417    -2.3677710442     0.0002290307
    2      C      -0.7617453237    -1.1692621975     0.0000566865
    3      C      -1.4230130400     0.0330627003    -0.0001585703
    4      Cl     -3.1803488041     0.0847967947    -0.0000813462
    5      C      -0.7007013926     1.2694343049    -0.0001852003
    6      O      -1.1923377160     2.4342360056     0.0005307917
    7      C       0.7614663257     1.1691191325    -0.0001952800
    8      C       1.4230507736    -0.0333084926     0.0000204205
    9      Cl      3.1803537669    -0.0845521996     0.0001453531
   10      C       0.7009024287    -1.2695106353    -0.0000491938
   11      O       1.1925447614    -2.4343480959    -0.0001676290
   12      O       1.3839852162     2.3676617153    -0.0003839911
   13      H      -0.6221056825    -2.9909977314    -0.0000399623
   14      H       0.6223969255     2.9914020939     0.0003530517
 ----------------------------------------------------------------

    9   -1451.4150307834      5.33e-06  Convergence criterion met
 Total energy in the final basis set =    -1451.4150307834
    4   -1451.4930934942      7.34e-06  Convergence criterion met
 Total energy in the final basis set =    -1451.4930934942

                    Orbital Energies (a.u.)
 --------------------------------------------------------------

 Alpha MOs
 -- Occupied --
********-101.5580 -19.1635 -19.1634 -19.1062 -19.1061 -10.2513 -10.2513
-10.2508 -10.2508 -10.2292 -10.2292  -9.4723  -9.4723  -7.2367  -7.2367
 -7.2273  -7.2273  -7.2269  -7.2269  -1.0889  -1.0865  -1.0218  -1.0211
 -0.8859  -0.8710  -0.8130  -0.7319  -0.7005  -0.6245  -0.5999  -0.5743
 -0.5264  -0.5138  -0.4675  -0.4664  -0.4552  -0.4389  -0.4314  -0.4288
 -0.4002  -0.3963  -0.3749  -0.3719  -0.3488  -0.3424  -0.3237  -0.3215
 -0.2855  -0.2786  -0.2770  -0.2322  -0.1777

 Beta MOs
 -- Occupied --
********-101.5580 -19.1623 -19.1622 -19.1002 -19.1002 -10.2491 -10.2491
-10.2485 -10.2485 -10.2298 -10.2298  -9.4723  -9.4723  -7.2367  -7.2367
 -7.2273  -7.2273  -7.2269  -7.2269  -1.0853  -1.0831  -1.0119  -1.0114
 -0.8841  -0.8707  -0.8088  -0.7292  -0.6900  -0.6207  -0.5961  -0.5718
 -0.5229  -0.5121  -0.4654  -0.4535  -0.4533  -0.4338  -0.4272  -0.4146
 -0.3940  -0.3863  -0.3724  -0.3593  -0.3393  -0.3326  -0.3232  -0.3210
 -0.2802  -0.2729  -0.2558  -0.2268

          Ground-State Mulliken Net Atomic Charges

     Atom                 Charge (a.u.)    Spin (a.u.)
  --------------------------------------------------------
      1 O                    -0.246149       0.036133
      2 C                    -1.394955       0.181747
      3 C                     2.119997      -0.027793
      4 Cl                    0.164173      -0.002730
      5 C                    -0.972217       0.103210
      6 O                    -0.485067       0.212235
      7 C                    -1.394891       0.182012
      8 C                     2.119849      -0.027866
      9 Cl                    0.164125      -0.002722
     10 C                    -0.972580       0.103272
     11 O                    -0.485084       0.212023
     12 O                    -0.245740       0.036238
     13 H                     0.314308      -0.002879
     14 H                     0.314233      -0.002880
  --------------------------------------------------------
  Sum of atomic charges =    -1.000000

                    Cartesian Multipole Moments
 -----------------------------------------------------------------
    Charge (ESU x 10^10)
                -4.8032
    Dipole Moment (Debye)
         X       0.0022      Y       0.0049      Z       0.0002
       Tot       0.0054
    Quadrupole Moments (Debye-Ang)
        XX    -111.3703     XY       7.9864     YY    -106.0541
        XZ       0.0041     YZ       0.0007     ZZ     -84.2571

 Total job time:  22.96s(wall), 163.92s(cpu)
        *  Thank you very much for using Q-Chem.  Have a nice day.  *
