 Q-Chem 5.4, Q-Chem, Inc., Pleasanton, CA (2021)
 Q-Chem 5.4.0 for Intel X86 EM64T Linux

User input:
--------------------------------------------------------------
$molecule
-2 1
C                 -4.1724830000      3.5187030000      1.5292550000
C                 -4.6892190000      3.6661470000      0.2598200000
C                 -4.0879320000      3.0109170000     -0.8425750000
C                 -2.9744450000      2.2103490000     -0.6156410000
C                 -2.4179170000      2.0225220000      0.6571600000
C                 -3.0398780000      2.6974390000      1.7777240000
C                 -2.5261960000      2.5374460000      3.1037640000
C                 -1.3802720000      1.6962310000      3.2206750000
C                 -0.7591300000      1.0441520000      2.1627580000
C                 -1.2324560000      1.1637680000      0.8200450000
O                 -2.9923190000      3.0868780000      4.1934610000
O                 -0.6813640000      0.5728130000     -0.1707580000
O                 -0.9238960000      1.5860870000      4.5165120000
O                 -5.8498180000      4.4325510000      0.1302060000
C                 -6.0667530000      5.0836860000     -1.1070360000
H                 -4.6382750000      4.0242670000      2.3675760000
H                 -4.4828450000      3.1262480000     -1.8452180000
H                 -2.4920750000      1.6929530000     -1.4396000000
H                  0.1131670000      0.4221670000      2.3460330000
H                 -1.5846760000      2.1715160000      4.9674300000
H                 -6.9148620000      5.7591990000     -0.9694570000
H                 -6.3215320000      4.3819250000     -1.9122990000
H                 -5.1900740000      5.6726250000     -1.4177340000
$end
$rem
MAX_SCF_CYCLES=200
BASIS  =  6-311++G(d,p)
GUI  =  2
JOB_TYPE  =  SP
METHOD  =  B3LYP
SOLVENT_METHOD = COSMO
$end
$solvent
dielectric 37.219
opticaldielectric 1.43
$end

--------------------------------------------------------------

             Standard Nuclear Orientation (Angstroms)
    I     Atom           X                Y                Z
 ----------------------------------------------------------------
    1      C       1.0975668164    -1.0539049871     0.0681627135
    2      C       2.2440423011    -0.2898227678     0.1128098998
    3      C       2.1670196377     1.1244581119     0.1078856795
    4      C       0.9133032578     1.7234516522     0.0671003930
    5      C      -0.2805932492     0.9898147134     0.0295137619
    6      C      -0.1909166011    -0.4558502864     0.0343020380
    7      C      -1.3733787541    -1.2614335384     0.0084578924
    8      C      -2.6047223910    -0.5428482068    -0.0349084659
    9      C      -2.7193443303     0.8416654848    -0.0489239603
   10      C      -1.5732191282     1.6941444522    -0.0189186045
   11      O      -1.4294161386    -2.5665937475     0.0099959936
   12      O      -1.6506702501     2.9702842831    -0.0283655641
   13      O      -3.7081452378    -1.3680673715    -0.0677053570
   14      O       3.4588060740    -0.9707611081     0.2216072883
   15      C       4.6100118218    -0.3394020767    -0.3055705269
   16      H       1.1652805824    -2.1359135910     0.0715496553
   17      H       3.0629951699     1.7335537196     0.1358300696
   18      H       0.8206781672     2.8054411869     0.0644337920
   19      H      -3.7022981231     1.3041756506    -0.0841845594
   20      H      -3.2492649887    -2.2466694483    -0.0546029636
   21      H       5.4170686062    -1.0761593318    -0.2860061677
   22      H       4.9271695019     0.5244406739     0.2936089515
   23      H       4.4551592182    -0.0094006169    -1.3443525876
 ----------------------------------------------------------------

   22    -725.0572595177      9.51e-06  Convergence criterion met
 Total energy in the final basis set =     -725.0572595177
    6    -725.3411950584      3.57e-06  Convergence criterion met
 Total energy in the final basis set =     -725.3411950584

                    Orbital Energies (a.u.)
 --------------------------------------------------------------

 Alpha MOs
 -- Occupied --
-19.1391 -19.1176 -19.0324 -19.0297 -10.2126 -10.2077 -10.1852 -10.1840
-10.1661 -10.1533 -10.1500 -10.1465 -10.1436 -10.1385 -10.1220  -1.0477
 -1.0306  -0.9500  -0.9352  -0.8306  -0.7682  -0.7369  -0.7116  -0.6780
 -0.6400  -0.5967  -0.5749  -0.5436  -0.5166  -0.4978  -0.4608  -0.4559
 -0.4533  -0.4484  -0.4144  -0.4051  -0.3984  -0.3944  -0.3781  -0.3735
 -0.3608  -0.3588  -0.3414  -0.3350  -0.3228  -0.3140  -0.3070  -0.2852
 -0.2348  -0.2221  -0.2203  -0.2083  -0.2006  -0.1162

          Ground-State Mulliken Net Atomic Charges

     Atom                 Charge (a.u.)
  ----------------------------------------
      1 C                    -0.363211
      2 C                    -0.471186
      3 C                     0.158861
      4 C                    -0.036454
      5 C                     0.332038
      6 C                     0.400065
      7 C                    -0.823572
      8 C                    -0.201087
      9 C                     0.423852
     10 C                    -0.472565
     11 O                    -0.770318
     12 O                    -0.713822
     13 O                    -0.375957
     14 O                    -0.234577
     15 C                    -0.335751
     16 H                     0.178166
     17 H                     0.202107
     18 H                     0.156733
     19 H                     0.162628
     20 H                     0.293360
     21 H                     0.173527
     22 H                     0.150445
     23 H                     0.166719
  ----------------------------------------
  Sum of atomic charges =    -2.000000

                    Cartesian Multipole Moments
 -----------------------------------------------------------------
    Charge (ESU x 10^10)
                -9.6064
    Dipole Moment (Debye)
         X      14.9334      Y      -0.4754      Z      -0.7279
       Tot      14.9587
    Quadrupole Moments (Debye-Ang)
        XX    -125.4203     XY       8.7837     YY    -150.9019
        XZ      -3.7591     YZ       1.2040     ZZ     -97.5170

 Total job time:  70.82s(wall), 527.32s(cpu)
        *  Thank you very much for using Q-Chem.  Have a nice day.  *
