 Q-Chem 5.4, Q-Chem, Inc., Pleasanton, CA (2021)
 Q-Chem 5.4.0 for Intel X86 EM64T Linux

User input:
--------------------------------------------------------------
$molecule
-2 1
O                  3.9123840000      2.7713940000      0.9778710000
C                  3.0207080000      1.8996060000      1.0370800000
N                  2.9423720000      0.9427960000      1.9948090000
C                  1.9483320000     -0.1214750000      2.1421160000
O                  2.1391740000     -0.8718440000      3.1319720000
C                  0.9437470000     -0.1284940000      1.1505430000
N                 -0.0949270000     -1.0796780000      1.1474890000
C                 -0.9934490000     -0.9815080000      0.1682210000
C                 -2.0939600000     -1.9012320000      0.0665300000
C                 -3.0490500000     -1.8187510000     -0.9515630000
C                 -2.9851840000     -0.8305040000     -1.9342560000
C                 -1.9065440000      0.0970330000     -1.8661170000
C                 -0.9427260000      0.0442530000     -0.8720850000
N                  0.1014270000      0.9876550000     -0.8536270000
C                  0.9648910000      0.8582640000      0.1276530000
N                  2.0045640000      1.8141620000      0.1234800000
H                  3.6635060000      0.9337820000      2.6992690000
H                 -2.1594690000     -2.6771150000      0.8253850000
H                 -3.8605550000     -2.5480710000     -0.9711260000
H                 -3.7264660000     -0.7670800000     -2.7269440000
H                 -1.8111020000      0.8864890000     -2.6105950000
H                  1.9797280000      2.4933180000     -0.6222680000
$end
$rem
MAX_SCF_CYCLES=200
BASIS  =  6-311++G(d,p)
GUI  =  2
JOB_TYPE  =  SP
METHOD  =  B3LYP
SOLVENT_METHOD = PCM
$end
$pcm
theory = CPCM
$end
$solvent
dielectric 37.219
opticaldielectric 1.43
$end

--------------------------------------------------------------

             Standard Nuclear Orientation (Angstroms)
    I     Atom           X                Y                Z
 ----------------------------------------------------------------
    1      O       3.9123840000     2.7713940000     0.9778710000
    2      C       3.0207080000     1.8996060000     1.0370800000
    3      N       2.9423720000     0.9427960000     1.9948090000
    4      C       1.9483320000    -0.1214750000     2.1421160000
    5      O       2.1391740000    -0.8718440000     3.1319720000
    6      C       0.9437470000    -0.1284940000     1.1505430000
    7      N      -0.0949270000    -1.0796780000     1.1474890000
    8      C      -0.9934490000    -0.9815080000     0.1682210000
    9      C      -2.0939600000    -1.9012320000     0.0665300000
   10      C      -3.0490500000    -1.8187510000    -0.9515630000
   11      C      -2.9851840000    -0.8305040000    -1.9342560000
   12      C      -1.9065440000     0.0970330000    -1.8661170000
   13      C      -0.9427260000     0.0442530000    -0.8720850000
   14      N       0.1014270000     0.9876550000    -0.8536270000
   15      C       0.9648910000     0.8582640000     0.1276530000
   16      N       2.0045640000     1.8141620000     0.1234800000
   17      H       3.6635060000     0.9337820000     2.6992690000
   18      H      -2.1594690000    -2.6771150000     0.8253850000
   19      H      -3.8605550000    -2.5480710000    -0.9711260000
   20      H      -3.7264660000    -0.7670800000    -2.7269440000
   21      H      -1.8111020000     0.8864890000    -2.6105950000
   22      H       1.9797280000     2.4933180000    -0.6222680000
 ----------------------------------------------------------------

    9    -754.6292221745      4.29e-06  Convergence criterion met
 Total energy in the final basis set =     -754.6292221745

                    Orbital Energies (a.u.)
 --------------------------------------------------------------

 Alpha MOs
 -- Occupied --
-19.0837 -19.0575 -14.3388 -14.3292 -14.2640 -14.2380 -10.2958 -10.2338
-10.2306 -10.1736 -10.1686 -10.1593 -10.1439 -10.1369 -10.1314 -10.1261
 -1.0458  -0.9941  -0.9560  -0.9090  -0.8821  -0.8423  -0.8020  -0.7322
 -0.7082  -0.6611  -0.6408  -0.6129  -0.5686  -0.5583  -0.5269  -0.5231
 -0.4814  -0.4619  -0.4529  -0.4453  -0.4314  -0.4151  -0.4045  -0.3967
 -0.3897  -0.3855  -0.3679  -0.3349  -0.3346  -0.3253  -0.2902  -0.2822
 -0.2726  -0.2721  -0.2616  -0.2402  -0.2154  -0.2148  -0.2016  -0.1014

          Ground-State Mulliken Net Atomic Charges

     Atom                 Charge (a.u.)
  ----------------------------------------
      1 O                    -0.527934
      2 C                     0.424668
      3 N                    -0.484560
      4 C                     0.110808
      5 O                    -0.614747
      6 C                     0.028109
      7 N                    -0.446238
      8 C                     0.011455
      9 C                    -0.348725
     10 C                    -0.358836
     11 C                    -0.366614
     12 C                    -0.293772
     13 C                     0.140474
     14 N                    -0.368316
     15 C                     0.223475
     16 N                    -0.481044
     17 H                     0.400549
     18 H                     0.140774
     19 H                     0.157971
     20 H                     0.156440
     21 H                     0.143672
     22 H                     0.352392
  ----------------------------------------
  Sum of atomic charges =    -2.000000

                    Cartesian Multipole Moments
 -----------------------------------------------------------------
    Charge (ESU x 10^10)
                -9.6064
    Dipole Moment (Debye)
         X      -4.9944      Y       2.5311      Z      -8.5399
       Tot      10.2117
    Quadrupole Moments (Debye-Ang)
        XX    -146.8333     XY     -18.4157     YY    -127.2281
        XZ     -24.2905     YZ       8.4460     ZZ    -136.2949

 Total job time:  53.14s(wall), 215.68s(cpu)
        *  Thank you very much for using Q-Chem.  Have a nice day.  *
