 Gaussian 16, Revision A.03,
 Gaussian 16:  ES64L-G16RevA.03 25-Dec-2016

 ----------------------------------------------------------------
 #P UB3LYP/6-311++G(d,p) SCRF=(PCM,Solvent=n,n-DiMethylFormamide)
 ----------------------------------------------------------------

 -------
 Reduced
 -------
 Symbolic Z-matrix:
 Charge = -2 Multiplicity = 1

                         Standard orientation:
 ---------------------------------------------------------------------
 Center     Atomic      Atomic             Coordinates (Angstroms)
 Number     Number       Type             X           Y           Z
 ---------------------------------------------------------------------
      1          6           0       -0.227094   -1.123837   -0.613363
      2          6           0       -1.596884   -0.968379   -0.214571
      3          6           0       -2.167937    0.258201    0.130828
      4          6           0       -1.459182    1.516539    0.125557
      5          6           0       -0.090843    1.318031   -0.290272
      6          6           0        0.518164    0.125257   -0.649323
      7          8           0        0.316518   -2.238077   -0.920401
      8          8           0       -1.970356    2.631678    0.440970
      9         35           0       -2.622114   -2.617090   -0.181805
     10         35           0       -4.023521    0.399106    0.677317
     11         35           0        0.956650    2.986042   -0.316851
     12          6           0        1.954707    0.001737   -1.093417
     13          6           0        2.923201   -0.366834    0.048067
     14          6           0        4.368133   -0.551842   -0.430986
     15          6           0        5.358478   -0.918115    0.682676
     16          6           0        6.802025   -1.100356    0.196380
     17          6           0        7.791646   -1.460307    1.310021
     18          1           0        2.289774    0.932317   -1.560782
     19          1           0        1.992832   -0.802064   -1.836436
     20          1           0        2.564787   -1.292896    0.509446
     21          1           0        2.888957    0.416478    0.815050
     22          1           0        4.708680    0.371412   -0.921559
     23          1           0        4.391078   -1.333642   -1.202545
     24          1           0        5.023481   -1.841758    1.172810
     25          1           0        5.335537   -0.139581    1.457039
     26          1           0        7.133809   -0.178167   -0.298429
     27          1           0        6.825134   -1.880668   -0.575306
     28          1           0        7.821514   -0.681775    2.080842
     29          1           0        8.812564   -1.583115    0.929934
     30          1           0        7.510546   -2.397973    1.802645
 ---------------------------------------------------------------------

 SCF Done:  E(UB3LYP) =  -8338.41983920     A.U. after   18 cycles

 The electronic state is 1-A.
 Alpha  occ. eigenvalues -- -482.80890-482.80808-482.80387 -62.46166 -62.46084
 Alpha  occ. eigenvalues --  -62.45669 -56.28181 -56.28097 -56.27837 -56.27805
 Alpha  occ. eigenvalues --  -56.27756 -56.27724 -56.27670 -56.27344 -56.27316
 Alpha  occ. eigenvalues --  -19.02819 -19.02383 -10.19759 -10.19206 -10.19019
 Alpha  occ. eigenvalues --  -10.18940 -10.18831 -10.15867 -10.15499 -10.15309
 Alpha  occ. eigenvalues --  -10.15298 -10.15006 -10.14874 -10.14640  -8.67128
 Alpha  occ. eigenvalues --   -8.67046  -8.66627  -6.50196  -6.50106  -6.49649
 Alpha  occ. eigenvalues --   -6.49050  -6.48972  -6.48956  -6.48877  -6.48568
 Alpha  occ. eigenvalues --   -6.48485  -2.61303  -2.61215  -2.60991  -2.60920
 Alpha  occ. eigenvalues --   -2.60906  -2.60834  -2.60762  -2.60468  -2.60406
 Alpha  occ. eigenvalues --   -2.60008  -2.60007  -2.59931  -2.59930  -2.59546
 Alpha  occ. eigenvalues --   -2.59545  -0.95774  -0.94841  -0.82716  -0.80482
 Alpha  occ. eigenvalues --   -0.79323  -0.76720  -0.76122  -0.74234  -0.71331
 Alpha  occ. eigenvalues --   -0.67039  -0.65145  -0.62266  -0.57877  -0.56780
 Alpha  occ. eigenvalues --   -0.53695  -0.53048  -0.48057  -0.46665  -0.43265
 Alpha  occ. eigenvalues --   -0.43202  -0.42159  -0.40938  -0.39321  -0.39066
 Alpha  occ. eigenvalues --   -0.38643  -0.37207  -0.37093  -0.36927  -0.35636
 Alpha  occ. eigenvalues --   -0.34658  -0.33857  -0.33517  -0.33151  -0.32019
 Alpha  occ. eigenvalues --   -0.31843  -0.31411  -0.31249  -0.30236  -0.28611
 Alpha  occ. eigenvalues --   -0.28429  -0.27951  -0.26812  -0.25812  -0.23366
 Alpha  occ. eigenvalues --   -0.21186  -0.20982  -0.20369  -0.12851
 Alpha virt. eigenvalues --   -0.02450  -0.00169   0.00225   0.00848   0.01056
 Alpha virt. eigenvalues --    0.01382   0.01901   0.01967   0.02544   0.03225
 Alpha virt. eigenvalues --    0.03348   0.04175   0.04542   0.04791   0.04951

  Beta  occ. eigenvalues -- -482.80890-482.80808-482.80387 -62.46166 -62.46084
  Beta  occ. eigenvalues --  -62.45669 -56.28181 -56.28097 -56.27837 -56.27805
  Beta  occ. eigenvalues --  -56.27756 -56.27724 -56.27670 -56.27344 -56.27316
  Beta  occ. eigenvalues --  -19.02819 -19.02383 -10.19759 -10.19206 -10.19019
  Beta  occ. eigenvalues --  -10.18940 -10.18831 -10.15867 -10.15499 -10.15309
  Beta  occ. eigenvalues --  -10.15298 -10.15006 -10.14874 -10.14640  -8.67128
  Beta  occ. eigenvalues --   -8.67046  -8.66627  -6.50196  -6.50106  -6.49649
  Beta  occ. eigenvalues --   -6.49050  -6.48972  -6.48956  -6.48877  -6.48568
  Beta  occ. eigenvalues --   -6.48485  -2.61303  -2.61215  -2.60991  -2.60920
  Beta  occ. eigenvalues --   -2.60906  -2.60834  -2.60762  -2.60468  -2.60406
  Beta  occ. eigenvalues --   -2.60008  -2.60007  -2.59931  -2.59930  -2.59546
  Beta  occ. eigenvalues --   -2.59545  -0.95774  -0.94841  -0.82716  -0.80482
  Beta  occ. eigenvalues --   -0.79323  -0.76720  -0.76122  -0.74234  -0.71331
  Beta  occ. eigenvalues --   -0.67039  -0.65145  -0.62266  -0.57877  -0.56780
  Beta  occ. eigenvalues --   -0.53695  -0.53048  -0.48057  -0.46665  -0.43265
  Beta  occ. eigenvalues --   -0.43202  -0.42159  -0.40938  -0.39321  -0.39066
  Beta  occ. eigenvalues --   -0.38643  -0.37207  -0.37093  -0.36927  -0.35636
  Beta  occ. eigenvalues --   -0.34658  -0.33857  -0.33517  -0.33151  -0.32019
  Beta  occ. eigenvalues --   -0.31843  -0.31411  -0.31249  -0.30236  -0.28611
  Beta  occ. eigenvalues --   -0.28429  -0.27951  -0.26812  -0.25812  -0.23366
  Beta  occ. eigenvalues --   -0.21186  -0.20982  -0.20369  -0.12851
  Beta virt. eigenvalues --   -0.02450  -0.00169   0.00225   0.00848   0.01056
  Beta virt. eigenvalues --    0.01382   0.01901   0.01967   0.02544   0.03225
  Beta virt. eigenvalues --    0.03348   0.04175   0.04542   0.04791   0.04951

 Mulliken charges and spin densities:
               1          2
     1  C   -1.059438   0.000000
     2  C   -0.339063  -0.000000
     3  C    0.459436   0.000000
     4  C   -0.773012   0.000000
     5  C    0.405105  -0.000000
     6  C    1.881628   0.000000
     7  O   -0.583034  -0.000000
     8  O   -0.551893   0.000000
     9  Br  -0.200070  -0.000000
    10  Br  -0.192489   0.000000
    11  Br  -0.186534   0.000000
    12  C   -0.830563  -0.000000
    13  C   -0.558069   0.000000
    14  C   -0.148290  -0.000000
    15  C   -0.261894  -0.000000
    16  C   -0.184529   0.000000
    17  C   -0.683662  -0.000000
    18  H    0.158944  -0.000000
    19  H    0.187762   0.000000
    20  H    0.196311  -0.000000
    21  H    0.114328  -0.000000
    22  H    0.110299  -0.000000
    23  H    0.113199  -0.000000
    24  H    0.117204  -0.000000
    25  H    0.122872  -0.000000
    26  H    0.131057   0.000000
    27  H    0.130922   0.000000
    28  H    0.140278   0.000000
    29  H    0.142339  -0.000000
    30  H    0.140855   0.000000
 Sum of Mulliken charges =  -2.00000   0.00000

 Dipole moment (field-independent basis, Debye):
    X=             11.0927    Y=             -2.3270    Z=              1.3047  Tot=             11.4090
 Quadrupole moment (field-independent basis, Debye-Ang):
   XX=           -188.6534   YY=           -206.9142   ZZ=           -154.9720
   XY=             12.1968   XZ=              5.3667   YZ=            -10.3674

 Normal termination of Gaussian 16 at Sun Jan 21 07:40:04 2024.
