 Q-Chem 5.4, Q-Chem, Inc., Pleasanton, CA (2021)
 Q-Chem 5.4.0 for Intel X86 EM64T Linux

User input:
--------------------------------------------------------------
$molecule
-1 2
C                  6.8815660000     -1.6257410000     -0.2432460000
C                  7.4607990000     -0.6700820000     -1.0570140000
C                  6.6341060000      0.3453480000     -1.6264570000
C                  5.2803890000      0.3407000000     -1.3463640000
C                  4.6776120000     -0.6294540000     -0.5173020000
C                  5.5011590000     -1.6407810000      0.0501480000
C                  4.9615120000     -2.6856430000      0.9207930000
C                  3.5211320000     -2.6244500000      1.1708280000
C                  2.6975860000     -1.6131150000      0.6033990000
C                  3.2372420000     -0.5682570000     -0.2672650000
C                  2.9183500000     -3.5946110000      1.9998700000
C                  1.5646310000     -3.5992550000      2.2799800000
C                  0.7379540000     -2.5837970000      1.7105920000
C                  1.3171920000     -1.6281310000      0.8968230000
O                  5.6900270000     -3.5802300000      1.4227240000
O                  2.5087200000      0.3263300000     -0.7691840000
C                  0.9725060000     -4.6633970000      3.1745640000
C                 -0.7464790000     -2.5512260000      1.9910700000
C                  8.9452530000     -0.7025080000     -1.3373770000
C                  7.2262740000      1.4094730000     -2.5210280000
H                  7.4854090000     -2.4091780000      0.2030580000
H                  4.6280950000      1.1000240000     -1.7653240000
H                  3.5706300000     -4.3539620000      2.4188040000
H                  0.7133430000     -0.8446890000      0.4505370000
H                  1.7476090000     -5.3521350000      3.5180080000
H                  0.2055260000     -5.2540240000      2.6580580000
H                  0.4907420000     -4.2330950000      4.0614570000
H                 -0.9598810000     -2.4492000000      3.0624760000
H                 -1.2476190000     -3.4689670000      1.6587360000
H                 -1.2167600000     -1.7102560000      1.4765770000
H                  9.4155340000     -1.5435660000     -0.8230400000
H                  9.4462850000      0.2152020000     -1.0047680000
H                  9.1587590000     -0.8041860000     -2.4087980000
H                  7.7084460000      0.9791130000     -3.4076680000
H                  7.9929330000      2.0003830000     -2.0043630000
H                  6.4511180000      2.0979520000     -2.8648720000
$end
$rem
MAX_SCF_CYCLES=200
BASIS  =  6-311++G(d,p)
GUI  =  2
JOB_TYPE  =  SP
METHOD  =  B3LYP
SOLVENT_METHOD = COSMO
$end
$solvent
dielectric 37.219
opticaldielectric 1.43
$end

--------------------------------------------------------------

             Standard Nuclear Orientation (Angstroms)
    I     Atom           X                Y                Z
 ----------------------------------------------------------------
    1      C       2.4806623197    -1.3826854619     0.0000064406
    2      C       3.6905207348    -0.7139134846    -0.0000841423
    3      C       3.6905526102     0.7139467071    -0.0000254656
    4      C       2.4806967619     1.3827308302    -0.0002037819
    5      C       1.2393641496     0.7111833341    -0.0001661266
    6      C       1.2393484690    -0.7111427244     0.0000528312
    7      C      -0.0000015974    -1.4889534898     0.0002135343
    8      C      -1.2393679889    -0.7111825932     0.0001202380
    9      C      -1.2393578286     0.7111401998    -0.0000771591
   10      C       0.0000064295     1.4889504876    -0.0002538736
   11      C      -2.4806983314    -1.3827241955     0.0001370580
   12      C      -3.6905618755    -0.7139428501    -0.0000257001
   13      C      -3.6905309722     0.7139060533     0.0000957192
   14      C      -2.4806653330     1.3826805123     0.0000092171
   15      O       0.0000177719    -2.7471087663     0.0003990265
   16      O      -0.0000239566     2.7471050311    -0.0004309343
   17      C      -4.9903066197    -1.4846270268    -0.0005201464
   18      C      -4.9902097294     1.4846881774     0.0004898164
   19      C       4.9902218199    -1.4846505205    -0.0002989088
   20      C       4.9903190802     1.4845887130     0.0004765049
   21      H       2.4503490629    -2.4674288726    -0.0000312696
   22      H       2.4503748548     2.4674743301    -0.0002521751
   23      H      -2.4503865684    -2.4674684202     0.0001467527
   24      H      -2.4503630226     2.4674237737     0.0000632108
   25      H      -4.7997294525    -2.5601632485     0.0002883384
   26      H      -5.6038714040    -1.2545565013    -0.8805672079
   27      H      -5.6053443827    -1.2534100468     0.8781736652
   28      H      -5.6045666877     1.2534901560     0.8796789529
   29      H      -5.6044930421     1.2547662598    -0.8790712410
   30      H      -4.7995440198     2.5602083847     0.0013130447
   31      H       4.7995917140    -2.5601710889    -0.0012976713
   32      H       5.6042822316    -1.2547977945     0.8794459356
   33      H       5.6048067414    -1.2532592618    -0.8792810739
   34      H       5.6055453670     1.2529933525    -0.8779825220
   35      H       5.6036678674     1.2548418793     0.8807622711
   36      H       4.7997776281     2.5601309734    -0.0008100782
 ----------------------------------------------------------------

    9    -846.3249639379      8.07e-06  Convergence criterion met
 Total energy in the final basis set =     -846.3249639379
    4    -846.4108404192      5.71e-06  Convergence criterion met
 Total energy in the final basis set =     -846.4108404192

                    Orbital Energies (a.u.)
 --------------------------------------------------------------

 Alpha MOs
 -- Occupied --
-19.0764 -19.0764 -10.2224 -10.2224 -10.1779 -10.1779 -10.1774 -10.1774
-10.1674 -10.1674 -10.1670 -10.1669 -10.1626 -10.1626 -10.1626 -10.1626
-10.1599 -10.1599 -10.1599 -10.1599  -1.0031  -1.0008  -0.8627  -0.8551
 -0.8015  -0.7680  -0.7625  -0.7617  -0.7079  -0.7000  -0.6964  -0.6634
 -0.6394  -0.6066  -0.5843  -0.5836  -0.5527  -0.5059  -0.5049  -0.4811
 -0.4536  -0.4479  -0.4397  -0.4335  -0.4288  -0.4207  -0.4166  -0.4136
 -0.4122  -0.4093  -0.4020  -0.3945  -0.3940  -0.3808  -0.3805  -0.3804
 -0.3723  -0.3712  -0.3547  -0.3458  -0.3354  -0.3341  -0.3256  -0.3238
 -0.2562  -0.2508  -0.2493  -0.2478  -0.2372  -0.2319  -0.1393

 Beta MOs
 -- Occupied --
-19.0711 -19.0711 -10.2204 -10.2204 -10.1774 -10.1774 -10.1770 -10.1770
-10.1667 -10.1667 -10.1662 -10.1662 -10.1625 -10.1625 -10.1625 -10.1625
-10.1599 -10.1599 -10.1599 -10.1599  -0.9937  -0.9912  -0.8605  -0.8540
 -0.7981  -0.7669  -0.7606  -0.7605  -0.7042  -0.6982  -0.6958  -0.6623
 -0.6337  -0.6059  -0.5839  -0.5812  -0.5497  -0.5046  -0.5027  -0.4793
 -0.4530  -0.4456  -0.4383  -0.4302  -0.4278  -0.4199  -0.4159  -0.4082
 -0.4081  -0.4003  -0.4000  -0.3936  -0.3934  -0.3807  -0.3804  -0.3719
 -0.3702  -0.3571  -0.3539  -0.3431  -0.3341  -0.3338  -0.3244  -0.3108
 -0.2469  -0.2430  -0.2395  -0.2390  -0.2324  -0.2273

          Ground-State Mulliken Net Atomic Charges

     Atom                 Charge (a.u.)    Spin (a.u.)
  --------------------------------------------------------
      1 C                    -0.222432       0.028542
      2 C                     0.340951       0.036236
      3 C                     0.340441       0.036236
      4 C                    -0.222081       0.028550
      5 C                     0.104679       0.034579
      6 C                     0.105562       0.034618
      7 C                    -0.707614       0.110030
      8 C                     0.104929       0.034548
      9 C                     0.104719       0.034553
     10 C                    -0.707020       0.110016
     11 C                    -0.222150       0.028563
     12 C                     0.340180       0.036200
     13 C                     0.340022       0.036234
     14 C                    -0.221422       0.028534
     15 O                    -0.494007       0.194259
     16 O                    -0.494039       0.194240
     17 C                    -0.520209      -0.003581
     18 C                    -0.519556      -0.003585
     19 C                    -0.519932      -0.003587
     20 C                    -0.519749      -0.003585
     21 H                     0.138796      -0.001866
     22 H                     0.138867      -0.001867
     23 H                     0.138806      -0.001868
     24 H                     0.138812      -0.001866
     25 H                     0.174950       0.000136
     26 H                     0.166843       0.001917
     27 H                     0.166618       0.001911
     28 H                     0.166634       0.001916
     29 H                     0.166742       0.001916
     30 H                     0.174918       0.000136
     31 H                     0.174972       0.000136
     32 H                     0.166793       0.001917
     33 H                     0.166627       0.001914
     34 H                     0.166564       0.001913
     35 H                     0.166823       0.001919
     36 H                     0.174951       0.000136
  --------------------------------------------------------
  Sum of atomic charges =    -1.000014

                    Cartesian Multipole Moments
 -----------------------------------------------------------------
    Charge (ESU x 10^10)
                -4.8033
    Dipole Moment (Debye)
         X      -0.0002      Y       0.0013      Z       0.0010
       Tot       0.0017
    Quadrupole Moments (Debye-Ang)
        XX    -100.6661     XY      -0.0001     YY    -157.5631
        XZ       0.0051     YZ       0.0076     ZZ    -124.8849

 Total job time:  120.78s(wall), 888.23s(cpu)
        *  Thank you very much for using Q-Chem.  Have a nice day.  *
