 Gaussian 16, Revision A.03,
 Gaussian 16:  ES64L-G16RevA.03 25-Dec-2016

 --------------------------------------
 #P UB3LYP/6-311++G(d,p) nosym opt freq
 --------------------------------------

 -------
 Radical
 -------
 Symbolic Z-matrix:
 Charge = -1 Multiplicity = 2

 SCF Done:  E(UB3LYP) =  -846.319981013     A.U. after   22 cycles
 SCF Done:  E(UB3LYP) =  -846.319981893     A.U. after   10 cycles
 SCF Done:  E(UB3LYP) =  -846.319989468     A.U. after   12 cycles
 SCF Done:  E(UB3LYP) =  -846.268069951     A.U. after   20 cycles
 SCF Done:  E(UB3LYP) =  -846.320561594     A.U. after   16 cycles
 SCF Done:  E(UB3LYP) =  -846.317612591     A.U. after   20 cycles
 SCF Done:  E(UB3LYP) =  -846.321481038     A.U. after   16 cycles
 SCF Done:  E(UB3LYP) =  -846.321950919     A.U. after   16 cycles
 SCF Done:  E(UB3LYP) =  -846.322281730     A.U. after   16 cycles
 SCF Done:  E(UB3LYP) =  -846.322436353     A.U. after   15 cycles
 SCF Done:  E(UB3LYP) =  -846.323749976     A.U. after   16 cycles
 SCF Done:  E(UB3LYP) =  -846.323887624     A.U. after   16 cycles
 SCF Done:  E(UB3LYP) =  -846.324592421     A.U. after   15 cycles
 SCF Done:  E(UB3LYP) =  -846.324815321     A.U. after   14 cycles
 SCF Done:  E(UB3LYP) =  -846.324932293     A.U. after   13 cycles
 SCF Done:  E(UB3LYP) =  -846.324953678     A.U. after   12 cycles
 SCF Done:  E(UB3LYP) =  -846.324956618     A.U. after   11 cycles
 SCF Done:  E(UB3LYP) =  -846.324956719     A.U. after    8 cycles
 SCF Done:  E(UB3LYP) =  -846.324956782     A.U. after    8 cycles
 Optimization completed.
    -- Stationary point found.
 Normal termination of Gaussian 16 at Sat Jan 13 01:10:20 2024.

 ----------------------------------------------------------------------
 #P Geom=AllCheck Guess=TCheck SCRF=Check GenChk UB3LYP/6-311++G(d,p) F
 req
 ----------------------------------------------------------------------

 Structure from the checkpoint file:  "132-rad.chk"
 -------
 Radical
 -------
 Charge = -1 Multiplicity = 2

                          Input orientation:
 ---------------------------------------------------------------------
 Center     Atomic      Atomic             Coordinates (Angstroms)
 Number     Number       Type             X           Y           Z
 ---------------------------------------------------------------------
      1          6           0        6.881566   -1.625741   -0.243246
      2          6           0        7.460799   -0.670082   -1.057014
      3          6           0        6.634106    0.345348   -1.626457
      4          6           0        5.280389    0.340700   -1.346364
      5          6           0        4.677612   -0.629454   -0.517302
      6          6           0        5.501159   -1.640781    0.050148
      7          6           0        4.961512   -2.685643    0.920793
      8          6           0        3.521132   -2.624450    1.170828
      9          6           0        2.697586   -1.613115    0.603399
     10          6           0        3.237242   -0.568257   -0.267265
     11          6           0        2.918350   -3.594611    1.999870
     12          6           0        1.564631   -3.599255    2.279980
     13          6           0        0.737954   -2.583797    1.710592
     14          6           0        1.317192   -1.628131    0.896823
     15          8           0        5.690027   -3.580230    1.422724
     16          8           0        2.508720    0.326330   -0.769184
     17          6           0        0.972506   -4.663397    3.174564
     18          6           0       -0.746479   -2.551226    1.991070
     19          6           0        8.945253   -0.702508   -1.337377
     20          6           0        7.226274    1.409473   -2.521028
     21          1           0        7.485409   -2.409178    0.203058
     22          1           0        4.628095    1.100024   -1.765324
     23          1           0        3.570630   -4.353962    2.418804
     24          1           0        0.713343   -0.844689    0.450537
     25          1           0        1.747609   -5.352135    3.518008
     26          1           0        0.205526   -5.254024    2.658058
     27          1           0        0.490742   -4.233095    4.061457
     28          1           0       -0.959881   -2.449200    3.062476
     29          1           0       -1.247619   -3.468967    1.658736
     30          1           0       -1.216760   -1.710256    1.476577
     31          1           0        9.415534   -1.543566   -0.823040
     32          1           0        9.446285    0.215202   -1.004768
     33          1           0        9.158759   -0.804186   -2.408798
     34          1           0        7.708446    0.979113   -3.407668
     35          1           0        7.992933    2.000383   -2.004363
     36          1           0        6.451118    2.097952   -2.864872
 ---------------------------------------------------------------------

 SCF Done:  E(UB3LYP) =  -846.324956782     A.U. after    2 cycles

 Alpha  occ. eigenvalues --  -18.94096 -18.94095 -10.09074 -10.09072 -10.07010
 Alpha  occ. eigenvalues --  -10.07010 -10.07009 -10.07009 -10.06416 -10.06416
 Alpha  occ. eigenvalues --  -10.06373 -10.06373 -10.04537 -10.04537 -10.04536
 Alpha  occ. eigenvalues --  -10.04536 -10.04380 -10.04379 -10.04336 -10.04336
 Alpha  occ. eigenvalues --   -0.86711  -0.86438  -0.74445  -0.74003  -0.68600
 Alpha  occ. eigenvalues --   -0.65729  -0.65270  -0.65253  -0.59695  -0.59391
 Alpha  occ. eigenvalues --   -0.59010  -0.55842  -0.52214  -0.49559  -0.46935
 Alpha  occ. eigenvalues --   -0.46910  -0.43172  -0.39161  -0.38794  -0.36589
 Alpha  occ. eigenvalues --   -0.34716  -0.33540  -0.33480  -0.33048  -0.32784
 Alpha  occ. eigenvalues --   -0.30906  -0.30450  -0.30445  -0.30366  -0.29766
 Alpha  occ. eigenvalues --   -0.29419  -0.28694  -0.28520  -0.28329  -0.27527
 Alpha  occ. eigenvalues --   -0.26643  -0.26040  -0.24936  -0.24433  -0.22967
 Alpha  occ. eigenvalues --   -0.22152  -0.22067  -0.20600  -0.20104  -0.13281
 Alpha  occ. eigenvalues --   -0.13132  -0.12686  -0.11565  -0.11103  -0.10229
 Alpha  occ. eigenvalues --   -0.00986
 Alpha virt. eigenvalues --    0.06960   0.06980   0.07274   0.08919   0.09008
 Alpha virt. eigenvalues --    0.10108   0.10200   0.10610   0.10819   0.11448
 Alpha virt. eigenvalues --    0.12123   0.12227   0.12263   0.12750   0.13012

  Beta  occ. eigenvalues --  -18.93502 -18.93501 -10.08933 -10.08932 -10.07014
  Beta  occ. eigenvalues --  -10.07014 -10.07014 -10.07014 -10.06366 -10.06366
  Beta  occ. eigenvalues --  -10.06323 -10.06323 -10.04544 -10.04544 -10.04543
  Beta  occ. eigenvalues --  -10.04543 -10.04291 -10.04290 -10.04246 -10.04246
  Beta  occ. eigenvalues --   -0.85698  -0.85394  -0.74244  -0.73899  -0.68245
  Beta  occ. eigenvalues --   -0.65623  -0.65181  -0.65133  -0.59396  -0.59216
  Beta  occ. eigenvalues --   -0.58947  -0.55716  -0.51589  -0.49484  -0.46872
  Beta  occ. eigenvalues --   -0.46691  -0.42909  -0.38941  -0.38688  -0.36473
  Beta  occ. eigenvalues --   -0.34661  -0.33441  -0.33399  -0.32809  -0.32654
  Beta  occ. eigenvalues --   -0.30875  -0.30395  -0.30391  -0.30310  -0.29672
  Beta  occ. eigenvalues --   -0.29265  -0.28507  -0.28320  -0.27430  -0.26922
  Beta  occ. eigenvalues --   -0.26570  -0.25839  -0.24792  -0.22677  -0.22119
  Beta  occ. eigenvalues --   -0.22089  -0.21928  -0.20406  -0.18896  -0.12818
  Beta  occ. eigenvalues --   -0.11743  -0.11069  -0.11012  -0.10553  -0.09676
  Beta virt. eigenvalues --    0.04938   0.06960   0.06979   0.08032   0.08915
  Beta virt. eigenvalues --    0.09004   0.10228   0.10664   0.10821   0.11097
  Beta virt. eigenvalues --    0.11440   0.12123   0.12266   0.12382   0.12749

 Mulliken charges and spin densities:
               1          2
     1  C   -0.255353   0.012249
     2  C    0.439389   0.039395
     3  C    0.439413   0.039381
     4  C   -0.255610   0.012252
     5  C    0.213573   0.055820
     6  C    0.213476   0.055822
     7  C   -0.966492   0.064045
     8  C    0.213450   0.055804
     9  C    0.213341   0.055811
    10  C   -0.966488   0.064042
    11  C   -0.255671   0.012249
    12  C    0.439474   0.039377
    13  C    0.439395   0.039392
    14  C   -0.255403   0.012244
    15  O   -0.356887   0.222306
    16  O   -0.356885   0.222304
    17  C   -0.514928  -0.003734
    18  C   -0.514879  -0.003736
    19  C   -0.514898  -0.003736
    20  C   -0.514919  -0.003734
    21  H    0.121514  -0.001261
    22  H    0.121523  -0.001260
    23  H    0.121519  -0.001260
    24  H    0.121511  -0.001261
    25  H    0.153791   0.000099
    26  H    0.127037   0.002141
    27  H    0.126882   0.002132
    28  H    0.126919   0.002137
    29  H    0.126995   0.002137
    30  H    0.153798   0.000099
    31  H    0.153796   0.000099
    32  H    0.127020   0.002138
    33  H    0.126893   0.002136
    34  H    0.126854   0.002131
    35  H    0.127063   0.002142
    36  H    0.153790   0.000099
 Sum of Mulliken charges =  -1.00000   1.00000

 Dipole moment (field-independent basis, Debye):
    X=            -19.6901    Y=              7.8146    Z=             -1.5695  Tot=             21.2423
 Quadrupole moment (field-independent basis, Debye-Ang):
   XX=           -222.9009   YY=           -154.6362   ZZ=           -132.8702
   XY=             40.5750   XZ=             -9.2371   YZ=             12.7530

  Exact polarizability: 368.353  45.358 240.802 -82.512 -92.601 210.494
 Approx polarizability: 534.367   7.776 400.697 -72.782-143.156 325.138

                      1                      2                      3
                      A                      A                      A
 Frequencies --     37.8315                66.0359                91.3189
 Red. masses --      4.9276                 3.1836                 4.3125
 Frc consts  --      0.0042                 0.0082                 0.0212
 IR Inten    --      5.8455                 0.0000                 0.0000

                      4                      5                      6
                      A                      A                      A
 Frequencies --    131.6554               132.4680               141.2927
 Red. masses --      5.7570                 2.9131                 1.0574
 Frc consts  --      0.0588                 0.0301                 0.0124
 IR Inten    --      2.4170                 0.0001                 0.0112

                      7                      8                      9
                      A                      A                      A
 Frequencies --    142.6917               143.4544               179.1175
 Red. masses --      1.0523                 3.8849                 1.0964
 Frc consts  --      0.0126                 0.0471                 0.0207
 IR Inten    --      0.0000                 4.1723                 0.6822

                     10                     11                     12
                      A                      A                      A
 Frequencies --    185.7157               228.0024               231.6336
 Red. masses --      1.1430                 5.0419                 3.2219
 Frc consts  --      0.0232                 0.1544                 0.1018
 IR Inten    --      0.0000                 0.0000                 0.0002

                     13                     14                     15
                      A                      A                      A
 Frequencies --    236.3641               273.1854               286.1510
 Red. masses --      3.7924                 3.1469                 3.9457
 Frc consts  --      0.1248                 0.1384                 0.1904
 IR Inten    --      0.0000                 0.0000                 9.6082

                     16                     17                     18
                      A                      A                      A
 Frequencies --    294.6292               322.7586               354.1334
 Red. masses --      2.5650                 3.8036                 4.3784
 Frc consts  --      0.1312                 0.2335                 0.3235
 IR Inten    --      3.5772                 0.0000                 0.0000

                     19                     20                     21
                      A                      A                      A
 Frequencies --    354.7164               362.0349               386.1010
 Red. masses --      6.1334                10.0481                 3.7429
 Frc consts  --      0.4547                 0.7760                 0.3287
 IR Inten    --      0.0000                 5.1519                 6.7599

                     22                     23                     24
                      A                      A                      A
 Frequencies --    438.1466               473.9752               477.2084
 Red. masses --      3.1098                 3.2000                 6.8920
 Frc consts  --      0.3517                 0.4236                 0.9247
 IR Inten    --      7.1015                 0.0000                 0.0000

                     25                     26                     27
                      A                      A                      A
 Frequencies --    487.0941               492.4587               561.2052
 Red. masses --     12.9669                 3.3940                 3.5190
 Frc consts  --      1.8126                 0.4850                 0.6530
 IR Inten    --      0.0000                 0.0000                 7.4172

                     28                     29                     30
                      A                      A                      A
 Frequencies --    587.8483               601.8609               602.2966
 Red. masses --      4.7812                 6.3355                 5.5369
 Frc consts  --      0.9735                 1.3522                 1.1834
 IR Inten    --      0.0000                 4.8177                 0.0000

                     31                     32                     33
                      A                      A                      A
 Frequencies --    667.0120               718.9795               723.3786
 Red. masses --      4.0265                 6.8887                 6.0128
 Frc consts  --      1.0555                 2.0981                 1.8538
 IR Inten    --      0.0000                 0.0000                 8.5980

                     34                     35                     36
                      A                      A                      A
 Frequencies --    729.0231               731.8897               745.5061
 Red. masses --      3.9368                 5.7653                 4.8783
 Frc consts  --      1.2328                 1.8195                 1.5974
 IR Inten    --      0.0006                15.0490                14.1284

                     37                     38                     39
                      A                      A                      A
 Frequencies --    765.4078               793.1680               815.2257
 Red. masses --      3.5913                 5.9870                 4.6492
 Frc consts  --      1.2396                 2.2191                 1.8205
 IR Inten    --      0.0000                 0.0000                 0.0000

                     40                     41                     42
                      A                      A                      A
 Frequencies --    923.6047               926.5295               931.1247
 Red. masses --      1.3297                 1.3239                 1.4258
 Frc consts  --      0.6683                 0.6696                 0.7283
 IR Inten    --      0.0000                 0.0126                 0.0001

                     43                     44                     45
                      A                      A                      A
 Frequencies --    931.7329               967.4631              1007.8804
 Red. masses --      1.4258                 2.1560                 1.3927
 Frc consts  --      0.7293                 1.1890                 0.8335
 IR Inten    --     28.2158                20.2815                 0.0000

                     46                     47                     48
                      A                      A                      A
 Frequencies --   1014.8057              1023.9539              1026.8699
 Red. masses --      2.1907                 1.5226                 1.7141
 Frc consts  --      1.3292                 0.9406                 1.0649
 IR Inten    --      8.7112                 0.0000                10.5897

                     49                     50                     51
                      A                      A                      A
 Frequencies --   1043.1854              1046.2368              1047.0923
 Red. masses --      2.7070                 1.4272                 1.4309
 Frc consts  --      1.7356                 0.9205                 0.9243
 IR Inten    --      0.7909                 0.0001                 8.6878

                     52                     53                     54
                      A                      A                      A
 Frequencies --   1061.2311              1061.5912              1148.0979
 Red. masses --      1.5612                 1.5653                 5.8539
 Frc consts  --      1.0359                 1.0394                 4.5462
 IR Inten    --      0.0000                 0.0005                 0.0000

                     55                     56                     57
                      A                      A                      A
 Frequencies --   1162.6964              1176.1181              1199.8942
 Red. masses --      1.5676                 2.5608                 5.8526
 Frc consts  --      1.2486                 2.0870                 4.9646
 IR Inten    --      0.0000                29.1094                29.7177

                     58                     59                     60
                      A                      A                      A
 Frequencies --   1224.0126              1243.1855              1260.0933
 Red. masses --      2.9465                 4.5278                 6.1293
 Frc consts  --      2.6010                 4.1230                 5.7342
 IR Inten    --      0.0000                38.3360                 0.0000

                     61                     62                     63
                      A                      A                      A
 Frequencies --   1261.1674              1271.5909              1360.8949
 Red. masses --      1.3856                 1.7111                 7.0003
 Frc consts  --      1.2985                 1.6301                 7.6386
 IR Inten    --     31.9397                 0.0000                 0.0000

                     64                     65                     66
                      A                      A                      A
 Frequencies --   1365.1443              1376.5593              1399.5776
 Red. masses --      7.1463                 2.5873                 1.2671
 Frc consts  --      7.8467                 2.8886                 1.4623
 IR Inten    --     23.1700               239.4135                 0.0000

                     67                     68                     69
                      A                      A                      A
 Frequencies --   1408.2858              1410.4157              1411.1508
 Red. masses --      1.7105                 1.2375                 1.2483
 Frc consts  --      1.9987                 1.4504                 1.4645
 IR Inten    --     26.7469                13.5230                 0.0000

                     70                     71                     72
                      A                      A                      A
 Frequencies --   1461.5856              1476.0424              1476.0508
 Red. masses --      2.7096                 1.0469                 1.0469
 Frc consts  --      3.4104                 1.3438                 1.3438
 IR Inten    --      0.0000                 0.0007                 0.0021

                     73                     74                     75
                      A                      A                      A
 Frequencies --   1483.0054              1485.3461              1486.1622
 Red. masses --      1.2560                 2.7800                 1.7712
 Frc consts  --      1.6275                 3.6137                 2.3049
 IR Inten    --     52.7690                46.8568                 0.0002

                     76                     77                     78
                      A                      A                      A
 Frequencies --   1490.0939              1490.1319              1492.7141
 Red. masses --      1.0450                 1.0451                 1.3278
 Frc consts  --      1.3671                 1.3673                 1.7431
 IR Inten    --      0.0214                24.5265                49.4315

                     79                     80                     81
                      A                      A                      A
 Frequencies --   1496.6690              1503.6286              1520.7739
 Red. masses --      1.4551                 2.0832                 4.4108
 Frc consts  --      1.9204                 2.7751                 6.0103
 IR Inten    --      0.0000                 0.0000               639.9389

                     82                     83                     84
                      A                      A                      A
 Frequencies --   1526.9052              1538.8483              1610.3664
 Red. masses --      3.6352                 3.8880                 9.8468
 Frc consts  --      4.9935                 5.4246                15.0451
 IR Inten    --      0.0001               104.7571                 0.0000

                     85                     86                     87
                      A                      A                      A
 Frequencies --   1635.8437              1646.7099              2990.6968
 Red. masses --      6.2156                 6.9153                 1.0402
 Frc consts  --      9.7998                11.0483                 5.4814
 IR Inten    --      0.0000                 0.9486                20.0442

                     88                     89                     90
                      A                      A                      A
 Frequencies --   2990.7941              2993.9811              2995.1046
 Red. masses --      1.0401                 1.0389                 1.0389
 Frc consts  --      5.4817                 5.4866                 5.4908
 IR Inten    --      0.2015               517.3689                 0.0308

                     91                     92                     93
                      A                      A                      A
 Frequencies --   3024.2626              3024.2942              3026.8959
 Red. masses --      1.0991                 1.0991                 1.0992
 Frc consts  --      5.9227                 5.9228                 5.9338
 IR Inten    --      0.1043                 0.0792                 8.6515

                     94                     95                     96
                      A                      A                      A
 Frequencies --   3026.9509              3086.2135              3086.2650
 Red. masses --      1.0992                 1.0962                 1.0962
 Frc consts  --      5.9341                 6.1517                 6.1518
 IR Inten    --    139.9471                 6.0187                91.6795

                     97                     98                     99
                      A                      A                      A
 Frequencies --   3087.8718              3087.8971              3164.6764
 Red. masses --      1.0965                 1.0965                 1.0888
 Frc consts  --      6.1599                 6.1600                 6.4248
 IR Inten    --      3.8899                 1.6913                 0.0001

                    100                    101                    102
                      A                      A                      A
 Frequencies --   3164.9749              3166.4482              3167.2443
 Red. masses --      1.0890                 1.0892                 1.0894
 Frc consts  --      6.4274                 6.4341                 6.4388
 IR Inten    --     19.9324                36.2430                 0.0000

 - Thermochemistry -
 -------------------
 Temperature   298.150 Kelvin.  Pressure   1.00000 Atm.
 Atom     1 has atomic number  6 and mass  12.00000

 Molecular mass:   264.11503 amu.
 Principal axes and moments of inertia in atomic units:
                           1         2         3
     Eigenvalues --  2181.252089266.09222**********
           X            0.79882  -0.57900   0.16321
           Y            0.39685   0.71111   0.58037
           Z           -0.45209  -0.39884   0.79783
 This molecule is an asymmetric top.
 Rotational symmetry number  1.
 Warning -- assumption of classical behavior for rotation
           may cause significant error
 Rotational temperatures (Kelvin)      0.03971     0.00935     0.00760
 Rotational constants (GHZ):           0.82739     0.19477     0.15827
 Zero-point vibrational energy     751198.7 (Joules/Mol)
                                  179.54079 (Kcal/Mol)
 Warning -- explicit consideration of  30 degrees of freedom as
           vibrations may cause significant error
 Vibrational temperatures:     54.43    95.01   131.39   189.42   190.59
          (Kelvin)            203.29   205.30   206.40   257.71   267.20
                              328.04   333.27   340.08   393.05   411.71
                              423.91   464.38   509.52   510.36   520.89
                              555.51   630.40   681.94   686.60   700.82
                              708.54   807.45   845.78   865.94   866.57
                              959.68  1034.45  1040.78  1048.90  1053.03
                             1072.62  1101.25  1141.19  1172.93  1328.86
                             1333.07  1339.68  1340.56  1391.96  1450.12
                             1460.08  1473.24  1477.44  1500.91  1505.30
                             1506.53  1526.87  1527.39  1651.86  1672.86
                             1692.17  1726.38  1761.08  1788.67  1812.99
                             1814.54  1829.54  1958.02  1964.14  1980.56
                             2013.68  2026.21  2029.27  2030.33  2102.90
                             2123.70  2123.71  2133.71  2137.08  2138.26
                             2143.91  2143.97  2147.68  2153.37  2163.39
                             2188.05  2196.88  2214.06  2316.96  2353.61
                             2369.25  4302.95  4303.09  4307.67  4309.29
                             4351.24  4351.28  4355.03  4355.11  4440.37
                             4440.45  4442.76  4442.80  4553.26  4553.69
                             4555.81  4556.96

 Zero-point correction=                           0.286116 (Hartree/Particle)
 Thermal correction to Energy=                    0.304060
 Thermal correction to Enthalpy=                  0.305005
 Thermal correction to Gibbs Free Energy=         0.240609
 Sum of electronic and zero-point Energies=           -846.038840
 Sum of electronic and thermal Energies=              -846.020896
 Sum of electronic and thermal Enthalpies=            -846.019952
 Sum of electronic and thermal Free Energies=         -846.084348

                     E (Thermal)             CV                S
                      KCal/Mol        Cal/Mol-Kelvin    Cal/Mol-Kelvin
 Total                  190.801             70.054            135.532
 Electronic               0.000              0.000              1.377
 Translational            0.889              2.981             42.613
 Rotational               0.889              2.981             33.799
 Vibrational            189.023             64.092             57.742
 Vibration     1          0.594              1.982              5.370
 Vibration     2          0.597              1.970              4.268
 Vibration     3          0.602              1.955              3.632
 Vibration     4          0.612              1.922              2.922
 Vibration     5          0.613              1.921              2.910
 Vibration     6          0.615              1.912              2.786
 Vibration     7          0.616              1.911              2.767
 Vibration     8          0.616              1.910              2.757
 Vibration     9          0.629              1.868              2.338
 Vibration    10          0.632              1.859              2.270
 Vibration    11          0.651              1.798              1.895
 Vibration    12          0.653              1.793              1.866
 Vibration    13          0.655              1.785              1.830
 Vibration    14          0.676              1.723              1.576
 Vibration    15          0.684              1.699              1.497
 Vibration    16          0.689              1.684              1.447
 Vibration    17          0.708              1.630              1.296
 Vibration    18          0.730              1.567              1.148
 Vibration    19          0.731              1.566              1.145
 Vibration    20          0.736              1.550              1.113
 Vibration    21          0.755              1.500              1.015
 Vibration    22          0.798              1.387              0.832
 Vibration    23          0.831              1.308              0.726
 Vibration    24          0.834              1.301              0.718
 Vibration    25          0.843              1.279              0.691
 Vibration    26          0.848              1.267              0.677
 Vibration    27          0.917              1.115              0.521
 Vibration    28          0.945              1.058              0.471
 Vibration    29          0.960              1.028              0.446
 Vibration    30          0.961              1.027              0.446

 Optimization completed.
    -- Stationary point found.
 Normal termination of Gaussian 16 at Sat Jan 13 03:46:34 2024.
