 Gaussian 16, Revision A.03,
 Gaussian 16:  ES64L-G16RevA.03 25-Dec-2016

 ----------------------------------------------
 #P UB3LYP/6-311++G(d,p) nosym opt freq SCF=YQC
 ----------------------------------------------

 -------
 Reduced
 -------
 Symbolic Z-matrix:
 Charge = -2 Multiplicity = 1

 SCF Done:  E(UB3LYP) =  -1079.98201490     a.u. after   18 cycles
 SCF Done:  E(UB3LYP) =  -1079.98247449     A.U. after   29 cycles
 SCF Done:  E(UB3LYP) =  -1079.98242383     a.u. after    7 cycles
 SCF Done:  E(UB3LYP) =  -1079.98248002     A.U. after   24 cycles
 SCF Done:  E(UB3LYP) =  -1079.98242763     a.u. after    8 cycles
 SCF Done:  E(UB3LYP) =  -1079.98248177     A.U. after   25 cycles
 SCF Done:  E(UB3LYP) =  -1079.98244520     a.u. after    1 cycles
 SCF Done:  E(UB3LYP) =  -1079.98248295     A.U. after   24 cycles
 SCF Done:  E(UB3LYP) =  -1079.98246333     a.u. after    1 cycles
 SCF Done:  E(UB3LYP) =  -1079.98248308     A.U. after   23 cycles
 SCF Done:  E(UB3LYP) =  -1079.98247698     a.u. after    1 cycles
 SCF Done:  E(UB3LYP) =  -1079.98248315     A.U. after   24 cycles
 Optimization completed.
    -- Stationary point found.
 Normal termination of Gaussian 16 at Tue Jan  9 22:54:05 2024.

 ----------------------------------------------------------------------
 #P Geom=AllCheck Guess=TCheck SCRF=Check GenChk UB3LYP/6-311++G(d,p) F
 req
 ----------------------------------------------------------------------

 Structure from the checkpoint file:  "296-an.chk"
 -------
 Reduced
 -------
 Charge = -2 Multiplicity = 1

                          Input orientation:
 ---------------------------------------------------------------------
 Center     Atomic      Atomic             Coordinates (Angstroms)
 Number     Number       Type             X           Y           Z
 ---------------------------------------------------------------------
      1          6           0       -1.602375    3.404223   -0.378480
      2          6           0       -2.604569    3.480442    0.568382
      3          6           0       -2.628423    2.564394    1.649797
      4          6           0       -0.580884    2.422817   -0.299614
      5          6           0       -0.603043    1.490465    0.800700
      6          6           0       -1.639735    1.597034    1.746765
      7          6           0        0.453661    2.351661   -1.285481
      8          6           0        1.427935    1.321724   -1.098958
      9          6           0        1.446741    0.398379   -0.054146
     10          6           0        0.416904    0.445261    0.957595
     11          8           0        0.584077    3.130194   -2.318068
     12          8           0        0.379771   -0.367991    1.940064
     13          8           0        2.385994    1.323301   -2.088799
     14          6           0        2.522666   -0.661699    0.070201
     15          6           0        2.536489   -1.668163   -1.117229
     16          6           0        3.943845   -0.099164    0.274651
     17          6           0        4.947447   -1.211864    0.655181
     18          6           0        4.664292   -2.581189   -0.029266
     19          6           0        3.917823   -2.322958   -1.350263
     20          6           0        5.953835   -3.430538   -0.181248
     21          6           0        5.706486   -4.813387   -0.821663
     22          6           0        6.684368   -3.625773    1.165680
     23          6           0        7.971078   -4.454772    1.035709
     24          6           0        7.709387   -5.816243    0.385149
     25          6           0        6.989045   -5.649024   -0.955699
     26          1           0       -1.564060    4.094647   -1.215125
     27          1           0       -3.376347    4.243207    0.484930
     28          1           0       -3.416099    2.621596    2.397466
     29          1           0       -1.629581    0.881418    2.562763
     30          1           0        2.061245    2.084054   -2.633914
     31          1           0        2.260176   -1.211076    0.979973
     32          1           0        2.230307   -1.158907   -2.033384
     33          1           0        1.790966   -2.447453   -0.918052
     34          1           0        3.923988    0.660216    1.062580
     35          1           0        4.263056    0.411869   -0.638162
     36          1           0        4.942491   -1.347027    1.742188
     37          1           0        5.963161   -0.885033    0.390973
     38          1           0        3.982916   -3.149859    0.620956
     39          1           0        3.782748   -3.248245   -1.918995
     40          1           0        4.536798   -1.666527   -1.976809
     41          1           0        6.633506   -2.874325   -0.847740
     42          1           0        5.248511   -4.699418   -1.808174
     43          1           0        4.979761   -5.361331   -0.204891
     44          1           0        5.999691   -4.128579    1.863725
     45          1           0        6.920376   -2.655942    1.612164
     46          1           0        8.438021   -4.587291    2.020510
     47          1           0        8.697894   -3.899866    0.426401
     48          1           0        7.082917   -6.420277    1.056423
     49          1           0        8.645428   -6.375153    0.257923
     50          1           0        6.758521   -6.631068   -1.388983
     51          1           0        7.666883   -5.155370   -1.665948
 ---------------------------------------------------------------------

 SCF Done:  E(UB3LYP) =  -1079.98248315     a.u. after    1 cycles
 SCF Done:  E(UB3LYP) =  -1079.98248315     A.U. after    4 cycles

 Alpha  occ. eigenvalues --  -18.91391 -18.83506 -18.82436 -10.01130 -10.01120
 Alpha  occ. eigenvalues --  -10.00982 -10.00921 -10.00583 -10.00550  -9.99635
 Alpha  occ. eigenvalues --   -9.98684  -9.98404  -9.98395  -9.98191  -9.97488
 Alpha  occ. eigenvalues --   -9.96391  -9.96359  -9.96321  -9.95910  -9.95752
 Alpha  occ. eigenvalues --   -9.95523  -9.95362  -9.94487  -9.94182  -9.93309
 Alpha  occ. eigenvalues --   -0.82853  -0.74381  -0.73602  -0.68129  -0.64403
 Alpha  occ. eigenvalues --   -0.63305  -0.59831  -0.58689  -0.57105  -0.54880
 Alpha  occ. eigenvalues --   -0.54105  -0.53022  -0.50095  -0.45826  -0.45699
 Alpha  occ. eigenvalues --   -0.43899  -0.42041  -0.41242  -0.39690  -0.39344
 Alpha  occ. eigenvalues --   -0.37858  -0.34317  -0.33738  -0.32386  -0.31112
 Alpha  occ. eigenvalues --   -0.29981  -0.28815  -0.28399  -0.28089  -0.26883
 Alpha  occ. eigenvalues --   -0.25569  -0.25046  -0.24538  -0.23242  -0.22704
 Alpha  occ. eigenvalues --   -0.22527  -0.22249  -0.21200  -0.20787  -0.19804
 Alpha  occ. eigenvalues --   -0.19210  -0.18945  -0.18557  -0.18385  -0.17462
 Alpha  occ. eigenvalues --   -0.17180  -0.17054  -0.16596  -0.15885  -0.15735
 Alpha  occ. eigenvalues --   -0.15099  -0.14968  -0.14776  -0.14167  -0.12938
 Alpha  occ. eigenvalues --   -0.12147  -0.11497  -0.10483  -0.10354  -0.10009
 Alpha  occ. eigenvalues --   -0.09277  -0.03474  -0.02651  -0.01740   0.00350
 Alpha  occ. eigenvalues --    0.00424   0.09797
 Alpha virt. eigenvalues --    0.10643   0.12457   0.12987   0.13698   0.14331
 Alpha virt. eigenvalues --    0.15485   0.15637   0.16088   0.16146   0.16221
 Alpha virt. eigenvalues --    0.16365   0.18050   0.18514   0.18703   0.18834

  Beta  occ. eigenvalues --  -18.91391 -18.83506 -18.82436 -10.01130 -10.01120
  Beta  occ. eigenvalues --  -10.00982 -10.00921 -10.00583 -10.00550  -9.99635
  Beta  occ. eigenvalues --   -9.98684  -9.98404  -9.98395  -9.98191  -9.97488
  Beta  occ. eigenvalues --   -9.96391  -9.96359  -9.96321  -9.95910  -9.95752
  Beta  occ. eigenvalues --   -9.95523  -9.95362  -9.94487  -9.94182  -9.93309
  Beta  occ. eigenvalues --   -0.82853  -0.74381  -0.73602  -0.68129  -0.64403
  Beta  occ. eigenvalues --   -0.63305  -0.59831  -0.58689  -0.57105  -0.54880
  Beta  occ. eigenvalues --   -0.54105  -0.53022  -0.50095  -0.45826  -0.45699
  Beta  occ. eigenvalues --   -0.43899  -0.42041  -0.41242  -0.39690  -0.39344
  Beta  occ. eigenvalues --   -0.37858  -0.34317  -0.33738  -0.32386  -0.31112
  Beta  occ. eigenvalues --   -0.29981  -0.28815  -0.28399  -0.28089  -0.26883
  Beta  occ. eigenvalues --   -0.25569  -0.25046  -0.24538  -0.23242  -0.22704
  Beta  occ. eigenvalues --   -0.22527  -0.22249  -0.21200  -0.20787  -0.19804
  Beta  occ. eigenvalues --   -0.19210  -0.18945  -0.18557  -0.18385  -0.17462
  Beta  occ. eigenvalues --   -0.17180  -0.17054  -0.16596  -0.15885  -0.15735
  Beta  occ. eigenvalues --   -0.15099  -0.14968  -0.14776  -0.14167  -0.12938
  Beta  occ. eigenvalues --   -0.12147  -0.11497  -0.10483  -0.10354  -0.10009
  Beta  occ. eigenvalues --   -0.09277  -0.03474  -0.02651  -0.01740   0.00350
  Beta  occ. eigenvalues --    0.00424   0.09797
  Beta virt. eigenvalues --    0.10643   0.12457   0.12987   0.13698   0.14331
  Beta virt. eigenvalues --    0.15485   0.15637   0.16088   0.16146   0.16221
  Beta virt. eigenvalues --    0.16365   0.18050   0.18514   0.18703   0.18834

 Mulliken charges and spin densities:
               1          2
     1  C   -0.071640   0.000000
     2  C   -0.335523  -0.000000
     3  C   -0.487916  -0.000000
     4  C    0.658764  -0.000000
     5  C    0.445894   0.000000
     6  C   -0.062365   0.000000
     7  C   -0.965763   0.000000
     8  C   -0.243918   0.000000
     9  C    0.677360   0.000000
    10  C   -0.664857  -0.000000
    11  O   -0.538627   0.000000
    12  O   -0.448980   0.000000
    13  O   -0.267960  -0.000000
    14  C    0.872470   0.000000
    15  C   -0.937133  -0.000000
    16  C   -1.005043   0.000000
    17  C   -0.365719  -0.000000
    18  C    0.654359   0.000000
    19  C   -0.461002   0.000000
    20  C    0.546878   0.000000
    21  C   -0.370203  -0.000000
    22  C   -0.154614  -0.000000
    23  C   -0.600877  -0.000000
    24  C    0.887816   0.000000
    25  C   -0.149000   0.000000
    26  H    0.135567  -0.000000
    27  H    0.086409   0.000000
    28  H    0.091684  -0.000000
    29  H    0.146378  -0.000000
    30  H    0.264045   0.000000
    31  H    0.274824   0.000000
    32  H    0.198202   0.000000
    33  H    0.156447   0.000000
    34  H    0.178178  -0.000000
    35  H    0.173673  -0.000000
    36  H    0.114220  -0.000000
    37  H    0.133443   0.000000
    38  H    0.139398  -0.000000
    39  H    0.070320  -0.000000
    40  H    0.157746   0.000000
    41  H    0.073961  -0.000000
    42  H    0.176408  -0.000000
    43  H    0.113527   0.000000
    44  H    0.117634   0.000000
    45  H    0.157419  -0.000000
    46  H   -0.358939  -0.000000
    47  H    0.066919   0.000000
    48  H    0.193452   0.000000
    49  H   -1.123683  -0.000000
    50  H   -0.469974  -0.000000
    51  H    0.120338   0.000000
 Sum of Mulliken charges =  -2.00000   0.00000

 Dipole moment (field-independent basis, Debye):
    X=            -23.5831    Y=              5.6510    Z=              0.2386  Tot=             24.2519
 Quadrupole moment (field-independent basis, Debye-Ang):
   XX=           -384.2634   YY=           -319.0103   ZZ=           -202.3234
   XY=            148.4820   XZ=              1.3127   YZ=             14.9699

  Exact polarizability:2433.791********2258.090 223.642 167.7831202.464
 Approx polarizability:************************1110.548-878.1891203.244

                      1                      2                      3
                      A                      A                      A
 Frequencies --     18.7487                31.5626                35.4971
 Red. masses --      4.3325                 3.9891                 4.8335
 Frc consts  --      0.0009                 0.0023                 0.0036
 IR Inten    --      0.9844                 0.3104                 0.1108

                      4                      5                      6
                      A                      A                      A
 Frequencies --     62.8405                79.1804                94.3132
 Red. masses --      2.9941                 3.5528                 6.2784
 Frc consts  --      0.0070                 0.0131                 0.0329
 IR Inten    --      0.4296                 5.3827                 4.8047

                      7                      8                      9
                      A                      A                      A
 Frequencies --    119.5209               134.2461               150.6943
 Red. masses --      4.6375                 3.9700                 4.8247
 Frc consts  --      0.0390                 0.0422                 0.0646
 IR Inten    --      0.3139                 0.8998                 0.4237

                     10                     11                     12
                      A                      A                      A
 Frequencies --    156.9971               174.2493               195.1097
 Red. masses --      3.4051                 6.1421                 2.1650
 Frc consts  --      0.0494                 0.1099                 0.0486
 IR Inten    --      0.8090                 0.8386                 0.4889

                     13                     14                     15
                      A                      A                      A
 Frequencies --    213.7005               219.5412               231.5198
 Red. masses --      2.5072                 3.3244                 1.9841
 Frc consts  --      0.0675                 0.0944                 0.0627
 IR Inten    --      4.1661                 0.6345                 3.6012

                     16                     17                     18
                      A                      A                      A
 Frequencies --    265.5575               306.0378               324.4441
 Red. masses --      5.7953                 2.1943                 3.3620
 Frc consts  --      0.2408                 0.1211                 0.2085
 IR Inten    --      2.0883                12.5058                 0.1963

                     19                     20                     21
                      A                      A                      A
 Frequencies --    347.3622               354.7683               372.1747
 Red. masses --      4.8343                 5.5321                 9.0624
 Frc consts  --      0.3437                 0.4102                 0.7396
 IR Inten    --      2.3301                23.3770                 0.7690

                     22                     23                     24
                      A                      A                      A
 Frequencies --    374.7489               392.3830               420.8448
 Red. masses --      3.6755                 1.8742                 4.8388
 Frc consts  --      0.3041                 0.1700                 0.5049
 IR Inten    --      2.4435                 8.4639                13.8130

                     25                     26                     27
                      A                      A                      A
 Frequencies --    428.1146               440.2653               448.1950
 Red. masses --      7.4455                 3.0285                 2.6432
 Frc consts  --      0.8040                 0.3459                 0.3128
 IR Inten    --    144.5659                 2.7653                 8.3873

                     28                     29                     30
                      A                      A                      A
 Frequencies --    465.6861               472.0958               481.7340
 Red. masses --      3.4478                 3.6314                 3.8117
 Frc consts  --      0.4405                 0.4769                 0.5212
 IR Inten    --    133.1101                66.9528               352.3429

                     31                     32                     33
                      A                      A                      A
 Frequencies --    502.1774               505.9770               545.9331
 Red. masses --      2.1532                 3.5681                 4.9986
 Frc consts  --      0.3199                 0.5382                 0.8778
 IR Inten    --    218.8865                41.5496                51.9929

                     34                     35                     36
                      A                      A                      A
 Frequencies --    561.5472               600.9776               657.6359
 Red. masses --      5.0879                 2.4724                 5.5424
 Frc consts  --      0.9453                 0.5261                 1.4123
 IR Inten    --      0.5404                 3.3398                 0.8929

                     37                     38                     39
                      A                      A                      A
 Frequencies --    679.6357               694.5357               698.9894
 Red. masses --      2.9005                 1.9480                 5.8558
 Frc consts  --      0.7894                 0.5537                 1.6857
 IR Inten    --     13.0941                45.3261                 2.3365

                     40                     41                     42
                      A                      A                      A
 Frequencies --    722.5127               745.3936               775.6163
 Red. masses --      5.6014                 2.6145                 3.3957
 Frc consts  --      1.7228                 0.8559                 1.2036
 IR Inten    --      8.4410                26.1800                 7.9617

                     43                     44                     45
                      A                      A                      A
 Frequencies --    779.2759               785.1598               787.5859
 Red. masses --      1.8686                 2.4316                 1.6115
 Frc consts  --      0.6686                 0.8832                 0.5889
 IR Inten    --      0.2091                15.5027                93.3443

                     46                     47                     48
                      A                      A                      A
 Frequencies --    794.2946               810.7779               817.4053
 Red. masses --      1.1376                 2.5671                 1.6248
 Frc consts  --      0.4229                 0.9942                 0.6396
 IR Inten    --     54.5636                 2.1006                 0.0618

                     49                     50                     51
                      A                      A                      A
 Frequencies --    846.4844               865.4469               880.5727
 Red. masses --      1.8554                 2.4739                 2.4129
 Frc consts  --      0.7833                 1.0917                 1.1023
 IR Inten    --     47.2192                12.2398                40.7510

                     52                     53                     54
                      A                      A                      A
 Frequencies --    893.8358               914.0955               920.0901
 Red. masses --      1.8798                 1.9091                 1.9130
 Frc consts  --      0.8848                 0.9399                 0.9542
 IR Inten    --      0.8066                44.9702                59.0289

                     55                     56                     57
                      A                      A                      A
 Frequencies --    924.2482               931.8516               946.1967
 Red. masses --      2.0075                 1.9294                 1.2656
 Frc consts  --      1.0104                 0.9871                 0.6676
 IR Inten    --     43.2032                16.9095                 1.6828

                     58                     59                     60
                      A                      A                      A
 Frequencies --    950.4637               960.5336               962.8800
 Red. masses --      2.3585                 4.1013                 1.3177
 Frc consts  --      1.2554                 2.2295                 0.7198
 IR Inten    --     28.0465               116.6114                 1.7502

                     61                     62                     63
                      A                      A                      A
 Frequencies --    980.2107              1020.8063              1031.7678
 Red. masses --      2.4360                 2.1226                 2.1541
 Frc consts  --      1.3790                 1.3032                 1.3511
 IR Inten    --     19.3251               344.5939                27.2623

                     64                     65                     66
                      A                      A                      A
 Frequencies --   1039.4151              1054.9209              1079.6831
 Red. masses --      1.9369                 1.6979                 2.5893
 Frc consts  --      1.2329                 1.1133                 1.7784
 IR Inten    --      4.7468                22.3349                61.7618

                     67                     68                     69
                      A                      A                      A
 Frequencies --   1083.6039              1086.3343              1095.7760
 Red. masses --      3.5392                 1.6053                 2.1353
 Frc consts  --      2.4485                 1.1161                 1.5106
 IR Inten    --    192.3662                 5.4580                20.9002

                     70                     71                     72
                      A                      A                      A
 Frequencies --   1098.7343              1105.9268              1110.5929
 Red. masses --      2.0810                 2.5234                 2.3207
 Frc consts  --      1.4802                 1.8184                 1.6864
 IR Inten    --     34.7429                14.3271                97.1995

                     73                     74                     75
                      A                      A                      A
 Frequencies --   1119.7877              1128.7959              1134.7339
 Red. masses --      2.2329                 1.0456                 1.3372
 Frc consts  --      1.6496                 0.7849                 1.0145
 IR Inten    --      8.3710                 0.3739               128.9542

                     76                     77                     78
                      A                      A                      A
 Frequencies --   1151.6960              1169.0441              1189.7570
 Red. masses --      2.7084                 3.0979                 2.0806
 Frc consts  --      2.1166                 2.4944                 1.7352
 IR Inten    --     54.4183               281.2224                93.4887

                     79                     80                     81
                      A                      A                      A
 Frequencies --   1202.4071              1219.5999              1230.0409
 Red. masses --      1.4712                 1.6090                 2.3553
 Frc consts  --      1.2532                 1.4101                 2.0996
 IR Inten    --     76.6980                 4.3718                62.5635

                     82                     83                     84
                      A                      A                      A
 Frequencies --   1252.7748              1258.2761              1262.8786
 Red. masses --      1.3203                 1.2956                 1.6704
 Frc consts  --      1.2209                 1.2086                 1.5697
 IR Inten    --      8.1009                77.8563               124.6525

                     85                     86                     87
                      A                      A                      A
 Frequencies --   1282.1530              1284.5278              1286.4934
 Red. masses --      1.4361                 1.2280                 1.2761
 Frc consts  --      1.3910                 1.1938                 1.2444
 IR Inten    --     25.4164                28.7861                11.8903

                     88                     89                     90
                      A                      A                      A
 Frequencies --   1306.0442              1321.2375              1328.9079
 Red. masses --      1.3763                 1.4256                 1.4155
 Frc consts  --      1.3832                 1.4663                 1.4728
 IR Inten    --     86.3655               292.9133               153.4756

                     91                     92                     93
                      A                      A                      A
 Frequencies --   1333.2360              1339.4705              1341.5992
 Red. masses --      1.5554                 1.2954                 1.6641
 Frc consts  --      1.6289                 1.3694                 1.7647
 IR Inten    --    481.1176                55.6559               194.6906

                     94                     95                     96
                      A                      A                      A
 Frequencies --   1343.8188              1357.3722              1359.4522
 Red. masses --      1.8100                 1.5517                 1.5830
 Frc consts  --      1.9258                 1.6845                 1.7237
 IR Inten    --    255.2107               258.3416               419.3812

                     97                     98                     99
                      A                      A                      A
 Frequencies --   1363.5924              1367.2448              1372.4583
 Red. masses --      1.3539                 1.4440                 1.5687
 Frc consts  --      1.4832                 1.5905                 1.7409
 IR Inten    --      5.2154                52.4212                93.9760

                    100                    101                    102
                      A                      A                      A
 Frequencies --   1373.6119              1377.9249              1384.4409
 Red. masses --      1.5052                 1.4905                 1.4735
 Frc consts  --      1.6733                 1.6674                 1.6639
 IR Inten    --    116.2056                82.2805                23.1898

                    103                    104                    105
                      A                      A                      A
 Frequencies --   1394.7006              1398.5552              1424.2025
 Red. masses --      1.3047                 1.3635                 3.5624
 Frc consts  --      1.4953                 1.5713                 4.2573
 IR Inten    --     20.5075                 3.0190              2220.6530

                    106                    107                    108
                      A                      A                      A
 Frequencies --   1445.3441              1451.7769              1474.8350
 Red. masses --      3.2243                 3.6597                 1.0925
 Frc consts  --      3.9685                 4.5447                 1.4000
 IR Inten    --    885.4460              1394.1375               359.5858

                    109                    110                    111
                      A                      A                      A
 Frequencies --   1476.7441              1483.8842              1486.6302
 Red. masses --      1.0915                 1.0876                 1.1367
 Frc consts  --      1.4025                 1.4110                 1.4801
 IR Inten    --    266.7028                17.9360                44.9146

                    112                    113                    114
                      A                      A                      A
 Frequencies --   1487.6485              1488.0447              1488.8486
 Red. masses --      1.1857                 2.2503                 1.2012
 Frc consts  --      1.5460                 2.9357                 1.5689
 IR Inten    --     26.8971               512.3246                70.3428

                    115                    116                    117
                      A                      A                      A
 Frequencies --   1496.6553              1503.9122              1513.0253
 Red. masses --      1.0963                 1.1121                 4.1058
 Frc consts  --      1.4469                 1.4819                 5.5378
 IR Inten    --      4.1418               158.2344              1399.7106

                    118                    119                    120
                      A                      A                      A
 Frequencies --   1516.1879              1546.9814              1591.8426
 Red. masses --      1.0904                 4.0069                 4.5066
 Frc consts  --      1.4769                 5.6498                 6.7282
 IR Inten    --      1.7394              1762.6683               125.1319

                    121                    122                    123
                      A                      A                      A
 Frequencies --   1601.7158              2945.9411              2966.4417
 Red. masses --      5.1163                 1.0794                 1.0812
 Frc consts  --      7.7335                 5.5190                 5.6058
 IR Inten    --   3361.0774                 0.7177                 1.6610

                    124                    125                    126
                      A                      A                      A
 Frequencies --   2976.6916              2977.4872              2978.6013
 Red. masses --      1.0672                 1.0623                 1.0641
 Frc consts  --      5.5716                 5.5487                 5.5622
 IR Inten    --      5.4808                 8.3844                11.5101

                    127                    128                    129
                      A                      A                      A
 Frequencies --   2981.1655              2982.8844              2988.3940
 Red. masses --      1.0631                 1.0668                 1.0741
 Frc consts  --      5.5667                 5.5927                 5.6514
 IR Inten    --     11.7522                 0.5311                 1.3279

                    130                    131                    132
                      A                      A                      A
 Frequencies --   2994.3327              3003.2604              3006.0359
 Red. masses --      1.0703                 1.0703                 1.0936
 Frc consts  --      5.6538                 5.6880                 5.8226
 IR Inten    --     14.1819                23.1223                 0.9950

                    133                    134                    135
                      A                      A                      A
 Frequencies --   3011.4286              3020.0423              3025.4841
 Red. masses --      1.0998                 1.1007                 1.0855
 Frc consts  --      5.8766                 5.9148                 5.8545
 IR Inten    --     13.5896                43.0010                13.6641

                    136                    137                    138
                      A                      A                      A
 Frequencies --   3026.7128              3033.2827              3038.4691
 Red. masses --      1.0819                 1.0721                 1.0934
 Frc consts  --      5.8398                 5.8119                 5.9474
 IR Inten    --     29.4851                18.2199                35.9866

                    139                    140                    141
                      A                      A                      A
 Frequencies --   3058.9127              3059.6915              3069.0196
 Red. masses --      1.0914                 1.0901                 1.1007
 Frc consts  --      6.0168                 6.0127                 6.1085
 IR Inten    --     37.9838                34.4671                12.0023

                    142                    143                    144
                      A                      A                      A
 Frequencies --   3078.8993              3103.4647              3127.0652
 Red. masses --      1.0947                 1.0832                 1.0903
 Frc consts  --      6.1142                 6.1471                 6.2814
 IR Inten    --     16.1834                69.6315               299.8492

                    145                    146                    147
                      A                      A                      A
 Frequencies --   3161.9009              3165.0098              3340.3662
 Red. masses --      1.0908                 1.0918                 1.0636
 Frc consts  --      6.4251                 6.4436                 6.9920
 IR Inten    --     60.7569               246.9821                54.7581

 - Thermochemistry -
 -------------------
 Temperature   298.150 Kelvin.  Pressure   1.00000 Atm.
 Atom     1 has atomic number  6 and mass  12.00000

 Molecular mass:   338.18819 amu.
 Principal axes and moments of inertia in atomic units:
                           1         2         3
     Eigenvalues --  2729.41711********************
           X            0.74653  -0.29721   0.59529
           Y           -0.66530  -0.34467   0.66225
           Z           -0.00835   0.89043   0.45504
 This molecule is an asymmetric top.
 Rotational symmetry number  1.
 Warning -- assumption of classical behavior for rotation
           may cause significant error
 Rotational temperatures (Kelvin)      0.03173     0.00390     0.00366
 Rotational constants (GHZ):           0.66122     0.08116     0.07634
 Zero-point vibrational energy    1135841.9 (Joules/Mol)
                                  271.47273 (Kcal/Mol)
 Warning -- explicit consideration of  35 degrees of freedom as
           vibrations may cause significant error
 Vibrational temperatures:     26.98    45.41    51.07    90.41   113.92
          (Kelvin)            135.70   171.96   193.15   216.82   225.88
                              250.71   280.72   307.47   315.87   333.11
                              382.08   440.32   466.80   499.78   510.43
                              535.48   539.18   564.55   605.50   615.96
                              633.44   644.85   670.02   679.24   693.11
                              722.52   727.99   785.48   807.94   864.67
                              946.19   977.84   999.28  1005.69  1039.53
                             1072.46  1115.94  1121.20  1129.67  1133.16
                             1142.81  1166.53  1176.06  1217.90  1245.18
                             1266.95  1286.03  1315.18  1323.80  1329.79
                             1340.73  1361.37  1367.51  1381.99  1385.37
                             1410.30  1468.71  1484.48  1495.49  1517.80
                             1553.42  1559.06  1562.99  1576.58  1580.83
                             1591.18  1597.90  1611.12  1624.09  1632.63
                             1657.03  1681.99  1711.79  1730.00  1754.73
                             1769.75  1802.46  1810.38  1817.00  1844.73
                             1848.15  1850.98  1879.11  1900.97  1912.00
                             1918.23  1927.20  1930.26  1933.46  1952.96
                             1955.95  1961.91  1967.16  1974.66  1976.32
                             1982.53  1991.90  2006.66  2012.21  2049.11
                             2079.53  2088.78  2121.96  2124.71  2134.98
                             2138.93  2140.39  2140.96  2142.12  2153.35
                             2163.79  2176.91  2181.46  2225.76  2290.31
                             2304.51  4238.55  4268.05  4282.80  4283.94
                             4285.54  4289.23  4291.71  4299.63  4308.18
                             4321.02  4325.02  4332.77  4345.17  4353.00
                             4354.76  4364.22  4371.68  4401.09  4402.21
                             4415.63  4429.85  4465.19  4499.15  4549.27
                             4553.74  4806.04

 Zero-point correction=                           0.432619 (Hartree/Particle)
 Thermal correction to Energy=                    0.454305
 Thermal correction to Enthalpy=                  0.455250
 Thermal correction to Gibbs Free Energy=         0.381339
 Sum of electronic and zero-point Energies=          -1079.549864
 Sum of electronic and thermal Energies=             -1079.528178
 Sum of electronic and thermal Enthalpies=           -1079.527234
 Sum of electronic and thermal Free Energies=        -1079.601144

                     E (Thermal)             CV                S
                      KCal/Mol        Cal/Mol-Kelvin    Cal/Mol-Kelvin
 Total                  285.081             88.118            155.558
 Electronic               0.000              0.000              0.000
 Translational            0.889              2.981             43.350
 Rotational               0.889              2.981             35.616
 Vibrational            283.304             82.156             76.592
 Vibration     1          0.593              1.986              6.762
 Vibration     2          0.594              1.983              5.729
 Vibration     3          0.594              1.982              5.496
 Vibration     4          0.597              1.972              4.366
 Vibration     5          0.600              1.963              3.911
 Vibration     6          0.603              1.953              3.569
 Vibration     7          0.609              1.933              3.108
 Vibration     8          0.613              1.919              2.884
 Vibration     9          0.618              1.902              2.663
 Vibration    10          0.621              1.895              2.586
 Vibration    11          0.627              1.874              2.389
 Vibration    12          0.636              1.847              2.179
 Vibration    13          0.644              1.820              2.012
 Vibration    14          0.647              1.811              1.963
 Vibration    15          0.653              1.793              1.867
 Vibration    16          0.671              1.736              1.625
 Vibration    17          0.696              1.662              1.384
 Vibration    18          0.709              1.627              1.288
 Vibration    19          0.725              1.581              1.178
 Vibration    20          0.731              1.565              1.145
 Vibration    21          0.744              1.529              1.071
 Vibration    22          0.746              1.524              1.060
 Vibration    23          0.760              1.486              0.991
 Vibration    24          0.783              1.425              0.889
 Vibration    25          0.790              1.409              0.865
 Vibration    26          0.800              1.382              0.826
 Vibration    27          0.807              1.365              0.801
 Vibration    28          0.823              1.326              0.750
 Vibration    29          0.829              1.312              0.732
 Vibration    30          0.838              1.291              0.705
 Vibration    31          0.858              1.245              0.653
 Vibration    32          0.861              1.237              0.643
 Vibration    33          0.901              1.149              0.553
 Vibration    34          0.917              1.114              0.521
 Vibration    35          0.959              1.030              0.448

 Optimization completed.
    -- Stationary point found.
 Normal termination of Gaussian 16 at Wed Jan 10 02:11:46 2024.
