 Q-Chem 5.4, Q-Chem, Inc., Pleasanton, CA (2021)
 Q-Chem 5.4.0 for Intel X86 EM64T Linux

User input:
--------------------------------------------------------------
$molecule
-2 1
C                 -1.6023750000      3.4042230000     -0.3784800000
C                 -2.6045690000      3.4804420000      0.5683820000
C                 -2.6284230000      2.5643940000      1.6497970000
C                 -0.5808840000      2.4228170000     -0.2996140000
C                 -0.6030430000      1.4904650000      0.8007000000
C                 -1.6397350000      1.5970340000      1.7467650000
C                  0.4536610000      2.3516610000     -1.2854810000
C                  1.4279350000      1.3217240000     -1.0989580000
C                  1.4467410000      0.3983790000     -0.0541460000
C                  0.4169040000      0.4452610000      0.9575950000
O                  0.5840770000      3.1301940000     -2.3180680000
O                  0.3797710000     -0.3679910000      1.9400640000
O                  2.3859940000      1.3233010000     -2.0887990000
C                  2.5226660000     -0.6616990000      0.0702010000
C                  2.5364890000     -1.6681630000     -1.1172290000
C                  3.9438450000     -0.0991640000      0.2746510000
C                  4.9474470000     -1.2118640000      0.6551810000
C                  4.6642920000     -2.5811890000     -0.0292660000
C                  3.9178230000     -2.3229580000     -1.3502630000
C                  5.9538350000     -3.4305380000     -0.1812480000
C                  5.7064860000     -4.8133870000     -0.8216630000
C                  6.6843680000     -3.6257730000      1.1656800000
C                  7.9710780000     -4.4547720000      1.0357090000
C                  7.7093870000     -5.8162430000      0.3851490000
C                  6.9890450000     -5.6490240000     -0.9556990000
H                 -1.5640600000      4.0946470000     -1.2151250000
H                 -3.3763470000      4.2432070000      0.4849300000
H                 -3.4160990000      2.6215960000      2.3974660000
H                 -1.6295810000      0.8814180000      2.5627630000
H                  2.0612450000      2.0840540000     -2.6339140000
H                  2.2601760000     -1.2110760000      0.9799730000
H                  2.2303070000     -1.1589070000     -2.0333840000
H                  1.7909660000     -2.4474530000     -0.9180520000
H                  3.9239880000      0.6602160000      1.0625800000
H                  4.2630560000      0.4118690000     -0.6381620000
H                  4.9424910000     -1.3470270000      1.7421880000
H                  5.9631610000     -0.8850330000      0.3909730000
H                  3.9829160000     -3.1498590000      0.6209560000
H                  3.7827480000     -3.2482450000     -1.9189950000
H                  4.5367980000     -1.6665270000     -1.9768090000
H                  6.6335060000     -2.8743250000     -0.8477400000
H                  5.2485110000     -4.6994180000     -1.8081740000
H                  4.9797610000     -5.3613310000     -0.2048910000
H                  5.9996910000     -4.1285790000      1.8637250000
H                  6.9203760000     -2.6559420000      1.6121640000
H                  8.4380210000     -4.5872910000      2.0205100000
H                  8.6978940000     -3.8998660000      0.4264010000
H                  7.0829170000     -6.4202770000      1.0564230000
H                  8.6454280000     -6.3751530000      0.2579230000
H                  6.7585210000     -6.6310680000     -1.3889830000
H                  7.6668830000     -5.1553700000     -1.6659480000
$end
$rem
MAX_SCF_CYCLES=200
BASIS  =  6-311++G(d,p)
GUI  =  2
JOB_TYPE  =  SP
METHOD  =  B3LYP
SCF_ALGORITHM = DIIS_GDM
THRESH = 14
SOLVENT_METHOD = PCM
$end
$pcm
theory = CPCM
$end
$solvent
dielectric 37.219
opticaldielectric 1.43
$end

--------------------------------------------------------------

             Standard Nuclear Orientation (Angstroms)
    I     Atom           X                Y                Z
 ----------------------------------------------------------------
    1      C      -1.6023750000     3.4042230000    -0.3784800000
    2      C      -2.6045690000     3.4804420000     0.5683820000
    3      C      -2.6284230000     2.5643940000     1.6497970000
    4      C      -0.5808840000     2.4228170000    -0.2996140000
    5      C      -0.6030430000     1.4904650000     0.8007000000
    6      C      -1.6397350000     1.5970340000     1.7467650000
    7      C       0.4536610000     2.3516610000    -1.2854810000
    8      C       1.4279350000     1.3217240000    -1.0989580000
    9      C       1.4467410000     0.3983790000    -0.0541460000
   10      C       0.4169040000     0.4452610000     0.9575950000
   11      O       0.5840770000     3.1301940000    -2.3180680000
   12      O       0.3797710000    -0.3679910000     1.9400640000
   13      O       2.3859940000     1.3233010000    -2.0887990000
   14      C       2.5226660000    -0.6616990000     0.0702010000
   15      C       2.5364890000    -1.6681630000    -1.1172290000
   16      C       3.9438450000    -0.0991640000     0.2746510000
   17      C       4.9474470000    -1.2118640000     0.6551810000
   18      C       4.6642920000    -2.5811890000    -0.0292660000
   19      C       3.9178230000    -2.3229580000    -1.3502630000
   20      C       5.9538350000    -3.4305380000    -0.1812480000
   21      C       5.7064860000    -4.8133870000    -0.8216630000
   22      C       6.6843680000    -3.6257730000     1.1656800000
   23      C       7.9710780000    -4.4547720000     1.0357090000
   24      C       7.7093870000    -5.8162430000     0.3851490000
   25      C       6.9890450000    -5.6490240000    -0.9556990000
   26      H      -1.5640600000     4.0946470000    -1.2151250000
   27      H      -3.3763470000     4.2432070000     0.4849300000
   28      H      -3.4160990000     2.6215960000     2.3974660000
   29      H      -1.6295810000     0.8814180000     2.5627630000
   30      H       2.0612450000     2.0840540000    -2.6339140000
   31      H       2.2601760000    -1.2110760000     0.9799730000
   32      H       2.2303070000    -1.1589070000    -2.0333840000
   33      H       1.7909660000    -2.4474530000    -0.9180520000
   34      H       3.9239880000     0.6602160000     1.0625800000
   35      H       4.2630560000     0.4118690000    -0.6381620000
   36      H       4.9424910000    -1.3470270000     1.7421880000
   37      H       5.9631610000    -0.8850330000     0.3909730000
   38      H       3.9829160000    -3.1498590000     0.6209560000
   39      H       3.7827480000    -3.2482450000    -1.9189950000
   40      H       4.5367980000    -1.6665270000    -1.9768090000
   41      H       6.6335060000    -2.8743250000    -0.8477400000
   42      H       5.2485110000    -4.6994180000    -1.8081740000
   43      H       4.9797610000    -5.3613310000    -0.2048910000
   44      H       5.9996910000    -4.1285790000     1.8637250000
   45      H       6.9203760000    -2.6559420000     1.6121640000
   46      H       8.4380210000    -4.5872910000     2.0205100000
   47      H       8.6978940000    -3.8998660000     0.4264010000
   48      H       7.0829170000    -6.4202770000     1.0564230000
   49      H       8.6454280000    -6.3751530000     0.2579230000
   50      H       6.7585210000    -6.6310680000    -1.3889830000
   51      H       7.6668830000    -5.1553700000    -1.6659480000
 ----------------------------------------------------------------

   17   -1080.2345111601      5.94e-06  Convergence criterion met
 Total energy in the final basis set =    -1080.2345111601

                    Orbital Energies (a.u.)
 --------------------------------------------------------------

 Alpha MOs
 -- Occupied --
-19.1088 -19.0275 -19.0192 -10.1751 -10.1738 -10.1607 -10.1567 -10.1541
-10.1525 -10.1522 -10.1518 -10.1492 -10.1489 -10.1473 -10.1455 -10.1444
-10.1438 -10.1436 -10.1425 -10.1412 -10.1404 -10.1396 -10.1352 -10.1312
-10.1225  -1.0239  -0.9428  -0.9326  -0.8295  -0.8234  -0.8067  -0.7686
 -0.7454  -0.7300  -0.7208  -0.7165  -0.7122  -0.6793  -0.6348  -0.6108
 -0.6060  -0.5842  -0.5832  -0.5767  -0.5558  -0.5415  -0.5341  -0.5139
 -0.4949  -0.4751  -0.4676  -0.4652  -0.4439  -0.4340  -0.4304  -0.4246
 -0.4208  -0.4189  -0.4057  -0.4034  -0.3983  -0.3935  -0.3794  -0.3755
 -0.3721  -0.3686  -0.3596  -0.3550  -0.3529  -0.3504  -0.3462  -0.3458
 -0.3330  -0.3309  -0.3289  -0.3225  -0.3181  -0.3156  -0.3053  -0.3036
 -0.2971  -0.2957  -0.2943  -0.2760  -0.2738  -0.2682  -0.2293  -0.2250
 -0.2170  -0.1971  -0.1904  -0.1075

          Ground-State Mulliken Net Atomic Charges

     Atom                 Charge (a.u.)
  ----------------------------------------
      1 C                    -0.081327
      2 C                    -0.439951
      3 C                    -0.548550
      4 C                     0.386207
      5 C                     0.293732
      6 C                    -0.076087
      7 C                    -0.642453
      8 C                    -0.279536
      9 C                     0.576217
     10 C                    -0.400757
     11 O                    -0.748840
     12 O                    -0.677300
     13 O                    -0.326098
     14 C                     0.810419
     15 C                    -0.886556
     16 C                    -1.132591
     17 C                    -0.349599
     18 C                     0.498414
     19 C                    -0.612522
     20 C                     0.161255
     21 C                    -0.322272
     22 C                    -0.262203
     23 C                    -0.384687
     24 C                    -0.408974
     25 C                    -0.492051
     26 H                     0.144090
     27 H                     0.167452
     28 H                     0.168265
     29 H                     0.146484
     30 H                     0.292994
     31 H                     0.225184
     32 H                     0.182641
     33 H                     0.167761
     34 H                     0.184964
     35 H                     0.168423
     36 H                     0.141314
     37 H                     0.163149
     38 H                     0.163434
     39 H                     0.134077
     40 H                     0.167794
     41 H                     0.160455
     42 H                     0.142482
     43 H                     0.165292
     44 H                     0.167046
     45 H                     0.163011
     46 H                     0.173574
     47 H                     0.142824
     48 H                     0.126038
     49 H                     0.176104
     50 H                     0.174401
     51 H                     0.136854
  ----------------------------------------
  Sum of atomic charges =    -2.000000

                    Cartesian Multipole Moments
 -----------------------------------------------------------------
    Charge (ESU x 10^10)
                -9.6064
    Dipole Moment (Debye)
         X      -3.7832      Y     -13.5370      Z       1.2941
       Tot      14.1152
    Quadrupole Moments (Debye-Ang)
        XX    -179.7444     XY       1.1965     YY    -208.2458
        XZ       6.4581     YZ      23.1345     ZZ    -196.5200

 Total job time:  566.68s(wall), 3922.48s(cpu)
        *  Thank you very much for using Q-Chem.  Have a nice day.  *
