 Gaussian 16, Revision A.03,
 Gaussian 16:  ES64L-G16RevA.03 25-Dec-2016

 ----------------------------------------------------------------
 #P UB3LYP/6-311++G(d,p) SCRF=(PCM,Solvent=n,n-DiMethylFormamide)
 ----------------------------------------------------------------

 ------------------
 Quinone PCM in DMF
 ------------------
 Symbolic Z-matrix:
 Charge =  0 Multiplicity = 1

                         Standard orientation:
 ---------------------------------------------------------------------
 Center     Atomic      Atomic             Coordinates (Angstroms)
 Number     Number       Type             X           Y           Z
 ---------------------------------------------------------------------
      1          8           0        2.829353   -1.868812    1.188248
      2          7           0        2.877554   -1.307118    0.108307
      3          8           0        3.492746   -1.681976   -0.875605
      4          6           0        2.211040    0.019599    0.015117
      5          6           0        3.060460    1.115571    0.016362
      6          6           0        2.516236    2.398513    0.005384
      7          6           0        1.138154    2.568292   -0.007519
      8          6           0        0.291267    1.457430   -0.024377
      9          6           0       -1.188997    1.693435   -0.019884
     10          8           0       -1.636357    2.827178   -0.018231
     11          6           0       -2.078338    0.501637    0.002315
     12          6           0       -3.463138    0.684595    0.070153
     13          6           0       -4.310729   -0.416340    0.088452
     14          6           0       -3.782964   -1.709646    0.032113
     15          6           0       -2.408606   -1.900869   -0.044285
     16          6           0       -1.548082   -0.798825   -0.054735
     17          6           0       -0.080929   -1.036327   -0.149804
     18          8           0        0.373408   -2.147349   -0.347205
     19          6           0        0.819196    0.152504   -0.025392
     20          1           0        4.132548    0.962858    0.034387
     21          1           0        3.173681    3.259585    0.011263
     22          1           0        0.690966    3.554211   -0.007475
     23          1           0       -3.850781    1.695023    0.107019
     24          1           0       -5.383406   -0.271224    0.145088
     25          1           0       -4.446678   -2.566485    0.046032
     26          1           0       -1.979841   -2.893881   -0.095517
 ---------------------------------------------------------------------

 SCF Done:  E(UB3LYP) =  -893.514023849     A.U. after   16 cycles

 The electronic state is 1-A.
 Alpha  occ. eigenvalues --  -19.19069 -19.19012 -19.14491 -19.14106 -14.58129
 Alpha  occ. eigenvalues --  -10.29876 -10.29358 -10.26884 -10.23782 -10.22776
 Alpha  occ. eigenvalues --  -10.22435 -10.21700 -10.21648 -10.21589 -10.21346
 Alpha  occ. eigenvalues --  -10.20427 -10.20403 -10.20365 -10.20335  -1.26812
 Alpha  occ. eigenvalues --   -1.09660  -1.08272  -1.07613  -0.92134  -0.89512
 Alpha  occ. eigenvalues --   -0.83866  -0.82400  -0.78575  -0.78500  -0.73495
 Alpha  occ. eigenvalues --   -0.70124  -0.67563  -0.66160  -0.61944  -0.60176
 Alpha  occ. eigenvalues --   -0.58793  -0.57538  -0.56072  -0.54955  -0.54411
 Alpha  occ. eigenvalues --   -0.51496  -0.50221  -0.49851  -0.49183  -0.47046
 Alpha  occ. eigenvalues --   -0.46858  -0.45814  -0.45732  -0.45155  -0.43182
 Alpha  occ. eigenvalues --   -0.41402  -0.41324  -0.40985  -0.38799  -0.38265
 Alpha  occ. eigenvalues --   -0.37631  -0.34841  -0.34365  -0.33971  -0.30456
 Alpha  occ. eigenvalues --   -0.30036  -0.29245  -0.28752  -0.28671  -0.28439
 Alpha virt. eigenvalues --   -0.12977  -0.10533  -0.08529  -0.04914  -0.03918
 Alpha virt. eigenvalues --   -0.00689   0.00146   0.01166   0.01719   0.02160
 Alpha virt. eigenvalues --    0.02263   0.02497   0.03532   0.04113   0.04267

  Beta  occ. eigenvalues --  -19.19069 -19.19012 -19.14491 -19.14106 -14.58129
  Beta  occ. eigenvalues --  -10.29876 -10.29358 -10.26884 -10.23782 -10.22776
  Beta  occ. eigenvalues --  -10.22435 -10.21700 -10.21648 -10.21589 -10.21346
  Beta  occ. eigenvalues --  -10.20427 -10.20403 -10.20365 -10.20335  -1.26812
  Beta  occ. eigenvalues --   -1.09660  -1.08272  -1.07613  -0.92134  -0.89512
  Beta  occ. eigenvalues --   -0.83866  -0.82400  -0.78575  -0.78500  -0.73495
  Beta  occ. eigenvalues --   -0.70124  -0.67563  -0.66160  -0.61944  -0.60176
  Beta  occ. eigenvalues --   -0.58793  -0.57538  -0.56072  -0.54955  -0.54411
  Beta  occ. eigenvalues --   -0.51496  -0.50221  -0.49851  -0.49183  -0.47046
  Beta  occ. eigenvalues --   -0.46858  -0.45814  -0.45732  -0.45155  -0.43182
  Beta  occ. eigenvalues --   -0.41402  -0.41324  -0.40985  -0.38799  -0.38265
  Beta  occ. eigenvalues --   -0.37631  -0.34841  -0.34365  -0.33971  -0.30456
  Beta  occ. eigenvalues --   -0.30036  -0.29245  -0.28752  -0.28671  -0.28439
  Beta virt. eigenvalues --   -0.12977  -0.10533  -0.08529  -0.04914  -0.03918
  Beta virt. eigenvalues --   -0.00689   0.00146   0.01166   0.01719   0.02160
  Beta virt. eigenvalues --    0.02263   0.02497   0.03532   0.04113   0.04267

 Mulliken charges and spin densities:
               1          2
     1  O   -0.009315  -0.000000
     2  N   -0.134606   0.000000
     3  O    0.000532  -0.000000
     4  C   -0.295789  -0.000000
     5  C    0.277794  -0.000000
     6  C   -0.438759  -0.000000
     7  C   -0.139759   0.000000
     8  C    1.086378   0.000000
     9  C   -0.351552  -0.000000
    10  O   -0.251518   0.000000
    11  C    0.344657  -0.000000
    12  C    0.124634  -0.000000
    13  C   -0.460997  -0.000000
    14  C   -0.386736  -0.000000
    15  C    0.150074   0.000000
    16  C    0.072680   0.000000
    17  C   -1.022060  -0.000000
    18  O   -0.219077  -0.000000
    19  C    0.176568   0.000000
    20  H    0.247093  -0.000000
    21  H    0.234088  -0.000000
    22  H    0.190811   0.000000
    23  H    0.190065  -0.000000
    24  H    0.210676   0.000000
    25  H    0.213586  -0.000000
    26  H    0.190532   0.000000
 Sum of Mulliken charges =  -0.00000   0.00000

 Dipole moment (field-independent basis, Debye):
    X=             -3.2928    Y=              4.1569    Z=              0.3467  Tot=              5.3144
 Quadrupole moment (field-independent basis, Debye-Ang):
   XX=            -88.8986   YY=           -115.4533   ZZ=           -112.7447
   XY=             29.5015   XZ=              0.4851   YZ=             -0.1483

 Normal termination of Gaussian 16 at Sun Jan 14 01:07:34 2024.
