 Q-Chem 5.4, Q-Chem, Inc., Pleasanton, CA (2021)
 Q-Chem 5.4.0 for Intel X86 EM64T Linux

User input:
--------------------------------------------------------------
$molecule
-1 2
C                  0.3340570000      1.7775860000     -1.8654940000
C                 -1.0874170000      2.0713450000     -2.0421520000
C                 -2.0322850000      1.1075180000     -2.1902860000
C                 -1.6955950000     -0.3115260000     -2.1916310000
C                 -0.3003690000     -0.6112420000     -2.0301080000
C                  0.6864170000      0.3556600000     -1.8591960000
O                  1.1597240000      2.7123160000     -1.7433310000
O                 -2.5804550000     -1.2026760000     -2.3260720000
C                  3.2002380000      0.7887470000     -1.2502830000
C                  4.2804860000      0.9703370000     -2.1178090000
C                  3.2570010000      1.3175250000      0.0519210000
C                  4.4003000000      2.0271660000      0.4312770000
C                  5.3987150000      1.7055530000     -1.7347500000
C                  5.4603960000      2.2363220000     -0.4490150000
H                 -1.3467350000      3.1263110000     -2.0490060000
H                 -3.0821280000      1.3586640000     -2.3166930000
H                 -0.0112970000     -1.6561220000     -2.0376560000
H                  4.2322130000      0.5284330000     -3.1066190000
H                  4.4557000000      2.4289180000      1.4392010000
H                  6.2178540000      1.8529470000     -2.4312480000
H                  6.3287850000      2.8031700000     -0.1283760000
C                  2.0807190000     -0.1153810000     -1.7280280000
O                  2.4004310000     -1.2725750000     -2.0068080000
C                  2.1243800000      1.1481370000      1.0350210000
H                  1.7243880000      0.1314690000      1.0292970000
H                  1.3029990000      1.8248110000      0.7840660000
H                  2.4586060000      1.3773450000      2.0505870000
$end

$rem
BASIS  =  6-311++G(d,p)
GUI  =  2
JOB_TYPE  =  SP
METHOD  =  B3LYP
SCF_CONVERGENCE  = 8
SOLVENT_METHOD = sm12
$end

$smx
solvent dimethylformamide
charges CM5
$end

--------------------------------------------------------------

             Standard Nuclear Orientation (Angstroms)
    I     Atom           X                Y                Z
 ----------------------------------------------------------------
    1      C       0.3340570000     1.7775860000    -1.8654940000
    2      C      -1.0874170000     2.0713450000    -2.0421520000
    3      C      -2.0322850000     1.1075180000    -2.1902860000
    4      C      -1.6955950000    -0.3115260000    -2.1916310000
    5      C      -0.3003690000    -0.6112420000    -2.0301080000
    6      C       0.6864170000     0.3556600000    -1.8591960000
    7      O       1.1597240000     2.7123160000    -1.7433310000
    8      O      -2.5804550000    -1.2026760000    -2.3260720000
    9      C       3.2002380000     0.7887470000    -1.2502830000
   10      C       4.2804860000     0.9703370000    -2.1178090000
   11      C       3.2570010000     1.3175250000     0.0519210000
   12      C       4.4003000000     2.0271660000     0.4312770000
   13      C       5.3987150000     1.7055530000    -1.7347500000
   14      C       5.4603960000     2.2363220000    -0.4490150000
   15      H      -1.3467350000     3.1263110000    -2.0490060000
   16      H      -3.0821280000     1.3586640000    -2.3166930000
   17      H      -0.0112970000    -1.6561220000    -2.0376560000
   18      H       4.2322130000     0.5284330000    -3.1066190000
   19      H       4.4557000000     2.4289180000     1.4392010000
   20      H       6.2178540000     1.8529470000    -2.4312480000
   21      H       6.3287850000     2.8031700000    -0.1283760000
   22      C       2.0807190000    -0.1153810000    -1.7280280000
   23      O       2.4004310000    -1.2725750000    -2.0068080000
   24      C       2.1243800000     1.1481370000     1.0350210000
   25      H       1.7243880000     0.1314690000     1.0292970000
   26      H       1.3029990000     1.8248110000     0.7840660000
   27      H       2.4586060000     1.3773450000     2.0505870000
 ----------------------------------------------------------------

   18    -765.4417167267      7.27e-09  Convergence criterion met
 Total energy in the final basis set =     -765.5264263702

                    Orbital Energies (a.u.)
 --------------------------------------------------------------

 Alpha MOs
 -- Occupied --
-19.1096 -19.0866 -19.0865 -10.2618 -10.2385 -10.2290 -10.1926 -10.1881
-10.1825 -10.1815 -10.1814 -10.1809 -10.1801 -10.1797 -10.1790 -10.1785
-10.1714  -1.0400  -1.0132  -1.0060  -0.8677  -0.8357  -0.7841  -0.7705
 -0.7587  -0.7014  -0.6938  -0.6513  -0.6122  -0.5996  -0.5920  -0.5476
 -0.5061  -0.4875  -0.4820  -0.4768  -0.4661  -0.4463  -0.4390  -0.4313
 -0.4268  -0.4218  -0.4178  -0.4112  -0.3952  -0.3914  -0.3862  -0.3762
 -0.3723  -0.3632  -0.3583  -0.3492  -0.2910  -0.2780  -0.2748  -0.2567
 -0.2513  -0.2460  -0.2364  -0.1766

 Beta MOs
 -- Occupied --
-19.1087 -19.0806 -19.0784 -10.2616 -10.2380 -10.2283 -10.1926 -10.1881
-10.1822 -10.1815 -10.1814 -10.1800 -10.1797 -10.1792 -10.1790 -10.1755
-10.1714  -1.0385  -1.0031  -0.9917  -0.8676  -0.8296  -0.7837  -0.7689
 -0.7573  -0.6975  -0.6879  -0.6488  -0.6104  -0.5993  -0.5885  -0.5463
 -0.5045  -0.4859  -0.4808  -0.4735  -0.4647  -0.4451  -0.4378  -0.4293
 -0.4259  -0.4189  -0.4085  -0.4042  -0.3949  -0.3848  -0.3761  -0.3699
 -0.3633  -0.3580  -0.3534  -0.3487  -0.2760  -0.2674  -0.2563  -0.2561
 -0.2486  -0.2399  -0.2322

          Ground-State Mulliken Net Atomic Charges

     Atom                 Charge (a.u.)    Spin (a.u.)
  --------------------------------------------------------
      1 C                    -1.802789       0.006298
      2 C                     0.342606       0.095295
      3 C                     0.458769       0.019330
      4 C                    -1.121064       0.093036
      5 C                    -0.178752       0.150873
      6 C                     0.576765       0.084009
      7 O                    -0.236355       0.216376
      8 O                    -0.373903       0.293547
      9 C                     0.064129      -0.001531
     10 C                    -0.255605       0.000781
     11 C                    -0.005495       0.001195
     12 C                     0.155507      -0.000471
     13 C                     0.182823       0.003155
     14 C                     0.607898      -0.000316
     15 H                     0.271928      -0.006090
     16 H                     0.275012      -0.002634
     17 H                     0.150603      -0.016339
     18 H                     0.187385      -0.000510
     19 H                     0.285658       0.000194
     20 H                     0.316803       0.000039
     21 H                     0.346551      -0.000045
     22 C                    -1.247195       0.032480
     23 O                    -0.213289       0.031731
     24 C                    -0.300624       0.000294
     25 H                     0.121684      -0.000364
     26 H                     0.126023      -0.000786
     27 H                     0.264926       0.000450
  --------------------------------------------------------
  Sum of atomic charges =    -1.000000

                    Cartesian Multipole Moments
 -----------------------------------------------------------------
    Charge (ESU x 10^10)
                -4.8032
    Dipole Moment (Debye)
         X      -0.4856      Y       0.3990      Z      10.1065
       Tot      10.1260
    Quadrupole Moments (Debye-Ang)
        XX    -128.6453     XY      -7.2851     YY    -124.4250
        XZ      -2.6724     YZ      -1.4370     ZZ    -120.3899

 Total job time:  691.69s(wall), 5316.35s(cpu)
        *  Thank you very much for using Q-Chem.  Have a nice day.  *
