 Q-Chem 5.4, Q-Chem, Inc., Pleasanton, CA (2021)
 Q-Chem 5.4.0 for Intel X86 EM64T Linux

User input:
--------------------------------------------------------------
$molecule
-2 1
C                  4.5357850000      5.0500000000     -1.3178450000
O                  3.8669080000      3.8792320000     -0.9408630000
C                  4.4784350000      2.6623050000     -1.1641830000
C                  5.7464280000      2.5872600000     -1.7035930000
C                  6.3720200000      1.3294490000     -1.9142680000
C                  5.7009400000      0.1811940000     -1.5732950000
C                  4.4022220000      0.2133240000     -1.0177210000
C                  3.7941820000     -1.0783970000     -0.6909660000
O                  4.3928660000     -2.1511800000     -0.9822870000
C                  2.4973470000     -1.0141580000     -0.0258610000
C                  1.8836870000     -2.1788230000      0.5384260000
O                  2.6200390000     -3.3534600000      0.5640910000
C                  0.6352970000     -2.1472070000      1.1328380000
C                  0.1582430000     -3.3784140000      1.8864290000
C                 -1.3245060000     -3.3682150000      2.3138660000
O                 -2.1800890000     -3.7522830000      1.2329270000
C                 -1.6831630000     -1.9636830000      2.8450260000
C                 -1.4783640000     -0.8967290000      1.7731240000
O                 -2.6013740000     -1.1517830000      0.7969490000
C                 -2.8208730000     -0.0576580000     -0.0303860000
C                 -3.2550910000     -0.4355880000     -1.4344720000
C                 -3.7505880000      0.8335720000     -2.1730910000
N                 -3.3524730000      0.7850940000     -3.5874540000
C                 -3.2997300000      2.1301190000     -1.4410690000
O                 -1.9156980000      2.3925300000     -1.5998970000
C                 -3.8430600000      2.1031510000      0.0132480000
C                 -3.1518400000      3.0904530000      0.9520820000
O                 -3.8394450000      0.7778660000      0.5711100000
C                 -0.1155590000     -0.9226270000      1.1466230000
C                  0.4285970000      0.2607220000      0.6192580000
O                 -0.2836800000      1.3834980000      0.5741780000
C                  1.8008280000      0.2469540000      0.1019270000
C                  2.4237710000      1.4709440000     -0.2684200000
O                  1.7642080000      2.6604160000     -0.0822230000
C                  3.7324370000      1.4748010000     -0.7992810000
C                 -1.5532580000     -4.3854570000      3.4445960000
C                 -2.7024220000     -5.3622890000      3.2886310000
O                 -0.8549020000     -4.3938720000      4.4428690000
H                  3.8614410000      5.8729350000     -1.0697510000
H                  4.7535160000      5.0771560000     -2.3964970000
H                  5.4829290000      5.1867600000     -0.7727530000
H                  6.2821110000      3.4903700000     -1.9682620000
H                  7.3722210000      1.2925880000     -2.3382820000
H                  6.1331720000     -0.8027410000     -1.7144610000
H                  2.0593740000     -4.0356320000      0.9423940000
H                  0.7547660000     -3.5162330000      2.7990380000
H                  0.2783790000     -4.2934930000      1.2850060000
H                 -2.4238240000     -2.9398050000      0.7535080000
H                 -1.0337210000     -1.7459570000      3.6964440000
H                 -2.7233030000     -1.9424620000      3.1873600000
H                 -1.6773820000      0.0943560000      2.1848580000
H                 -1.9010300000      0.5151430000     -0.0625670000
H                 -2.3986850000     -0.8672220000     -1.9597960000
H                 -4.0425060000     -1.1953740000     -1.4015850000
H                 -4.8477440000      0.8420300000     -2.1482370000
H                 -2.3373740000      0.8631590000     -3.6236860000
H                 -3.7028640000      1.6137420000     -4.0638390000
H                 -3.7994360000      2.9712570000     -1.9440420000
H                 -1.3502990000      2.0211640000     -0.8842060000
H                 -4.9071070000      2.3681330000     -0.0613480000
H                 -2.1105200000      2.8058720000      1.1149490000
H                 -3.6680440000      3.0935510000      1.9168400000
H                 -3.1792530000      4.1033150000      0.5347900000
H                  0.8538890000      2.3874570000      0.2235450000
H                 -2.5548490000     -5.9740440000      2.3949810000
H                 -2.7638880000     -5.9863740000      4.1813020000
H                 -3.6381070000     -4.8207120000      3.1260110000
$end
$rem
MAX_SCF_CYCLES=200
BASIS  =  6-311++G(d,p)
GUI  =  2
JOB_TYPE  =  SP
SCF_CONVERGENCE  = 6
METHOD  =  B3LYP
SOLVENT_METHOD = COSMO
$end
$solvent
dielectric 37.219
opticaldielectric 1.43
$end

--------------------------------------------------------------

             Standard Nuclear Orientation (Angstroms)
    I     Atom           X                Y                Z
 ----------------------------------------------------------------
    1      C       6.4297583070    -1.8812710678    -1.4498174026
    2      O       5.1962044331    -1.2750812760    -1.1831934054
    3      C       5.1743191329    -0.1040179322    -0.4532070384
    4      C       6.3422115802     0.4962958367    -0.0288819762
    5      C       6.3078186588     1.7100226612     0.7083575644
    6      C       5.0950369583     2.2857317465     0.9961423700
    7      C       3.8761279696     1.7048661881     0.5799461061
    8      C       2.6494990692     2.4176413319     0.9437561506
    9      O       2.7091277670     3.4513496690     1.6662831842
   10      C       1.4123270041     1.8527017075     0.4160054238
   11      C       0.1660882087     2.5521494734     0.5114237853
   12      O       0.1857098429     3.8518263776     0.9942280707
   13      C      -1.0247309977     2.0144509147     0.0579564027
   14      C      -2.2534510334     2.9084453806     0.0092577423
   15      C      -3.5911172942     2.1921233436    -0.2716029342
   16      O      -4.1234590398     1.5995449905     0.9172716520
   17      C      -3.3721670262     1.1376066215    -1.3777363761
   18      C      -2.3415401064     0.0949812246    -0.9534159783
   19      O      -3.0623381574    -0.7106332969     0.1004137261
   20      C      -2.4422095777    -1.9331571205     0.3254661073
   21      C      -2.5248808445    -2.3996294513     1.7671328088
   22      C      -2.0726445296    -3.8796443482     1.8500823734
   23      N      -1.3158848069    -4.1099538364     3.0892517029
   24      C      -1.3133768822    -4.3152814604     0.5640434105
   25      O      -0.0103229919    -3.7623804283     0.4867035677
   26      C      -2.2376400716    -4.0995585567    -0.6648479125
   27      C      -1.5000516978    -4.0958545622    -2.0027228239
   28      O      -3.0583265250    -2.9266447871    -0.5293840991
   29      C      -1.0446316600     0.6834825023    -0.4821343159
   30      C       0.1422881834    -0.0570075973    -0.6141576052
   31      O       0.1233177589    -1.3114036414    -1.0570202982
   32      C       1.4174781963     0.5663598770    -0.2451829966
   33      C       2.6374122661    -0.1032610399    -0.5396912217
   34      O       2.6189369555    -1.2949860204    -1.2208568010
   35      C       3.8738912445     0.4655696484    -0.1628804451
   36      C      -4.6360711205     3.2049573956    -0.7694962770
   37      C      -5.9934854406     3.2031495525    -0.0938285840
   38      O      -4.3953011310     3.9661694453    -1.6897717386
   39      H       6.2013292295    -2.7901807499    -2.0112582488
   40      H       6.9682551319    -2.1538415601    -0.5292953388
   41      H       7.0895082622    -1.2418578182    -2.0570990800
   42      H       7.3013357202     0.0492899376    -0.2588390122
   43      H       7.2394263994     2.1676413886     1.0312209469
   44      H       5.0140757209     3.2103795344     1.5559210513
   45      H      -0.7231517063     4.1617238112     1.0216380091
   46      H      -2.1305604361     3.6757901699    -0.7677678870
   47      H      -2.4058455399     3.4400586794     0.9619775724
   48      H      -3.7721435559     0.6923311245     0.9712184825
   49      H      -3.0139050258     1.6525620171    -2.2724773513
   50      H      -4.3174283526     0.6396807397    -1.6187445899
   51      H      -2.1550519062    -0.6048391810    -1.7700285422
   52      H      -1.4064677300    -1.8330152316     0.0213967502
   53      H      -1.8690223371    -1.7704577138     2.3751599420
   54      H      -3.5440501076    -2.2852569672     2.1500057002
   55      H      -2.9678656939    -4.5126753132     1.8979510667
   56      H      -0.4416426229    -3.5921009488     3.0160268954
   57      H      -1.0443433050    -5.0897792344     3.1400594884
   58      H      -1.1484822468    -5.4001219864     0.6423495563
   59      H       0.0375074783    -2.9103921111    -0.0048556821
   60      H      -2.9492983626    -4.9370413264    -0.6529681346
   61      H      -0.8448853443    -3.2261264496    -2.0813956076
   62      H      -2.2295406386    -4.0584213486    -2.8173876664
   63      H      -0.8957856598    -5.0033633703    -2.1125583167
   64      H       1.6481276624    -1.5141351958    -1.2994972650
   65      H      -5.8819314580     3.4249127053     0.9706004206
   66      H      -6.6347656759     3.9400741385    -0.5794451870
   67      H      -6.4381465286     2.2056372397    -0.1438589065
 ----------------------------------------------------------------

   14   -1853.8607774864      7.80e-07  Convergence criterion met
 Total energy in the final basis set =    -1853.8607774864
    7   -1854.1173161621      9.79e-07  Convergence criterion met
 Total energy in the final basis set =    -1854.1173161621

                    Orbital Energies (a.u.)
 --------------------------------------------------------------

 Alpha MOs
 -- Occupied --
-19.1403 -19.1308 -19.1285 -19.1250 -19.1165 -19.1155 -19.1116 -19.0965
-19.0555 -19.0344 -14.2911 -10.2686 -10.2480 -10.2387 -10.2237 -10.2203
-10.2172 -10.2150 -10.2075 -10.2043 -10.2038 -10.1982 -10.1980 -10.1957
-10.1735 -10.1727 -10.1649 -10.1639 -10.1591 -10.1581 -10.1579 -10.1542
-10.1535 -10.1522 -10.1477 -10.1472 -10.1458 -10.1457  -1.0617  -1.0583
 -1.0582  -1.0393  -1.0258  -1.0181  -1.0155  -0.9979  -0.9642  -0.9587
 -0.8836  -0.8411  -0.8324  -0.8033  -0.7723  -0.7663  -0.7600  -0.7475
 -0.7437  -0.7385  -0.7222  -0.7030  -0.6891  -0.6825  -0.6564  -0.6508
 -0.6286  -0.6247  -0.6023  -0.5950  -0.5829  -0.5660  -0.5592  -0.5570
 -0.5465  -0.5294  -0.5292  -0.5199  -0.5123  -0.5019  -0.4893  -0.4861
 -0.4830  -0.4768  -0.4697  -0.4612  -0.4588  -0.4588  -0.4580  -0.4501
 -0.4436  -0.4411  -0.4379  -0.4310  -0.4285  -0.4227  -0.4213  -0.4157
 -0.4124  -0.4081  -0.4038  -0.4015  -0.3991  -0.3940  -0.3894  -0.3816
 -0.3781  -0.3764  -0.3757  -0.3707  -0.3687  -0.3660  -0.3613  -0.3596
 -0.3592  -0.3559  -0.3516  -0.3468  -0.3455  -0.3420  -0.3382  -0.3318
 -0.3311  -0.3296  -0.3215  -0.3055  -0.3019  -0.3002  -0.2849  -0.2835
 -0.2771  -0.2737  -0.2584  -0.2569  -0.2480  -0.2405  -0.2297  -0.2244
 -0.2167  -0.2051  -0.1825  -0.1238

          Ground-State Mulliken Net Atomic Charges

     Atom                 Charge (a.u.)
  ----------------------------------------
      1 C                    -0.306250
      2 O                    -0.210814
      3 C                    -0.177425
      4 C                    -0.100538
      5 C                    -0.496955
      6 C                    -0.125840
      7 C                     0.271844
      8 C                    -0.342177
      9 O                    -0.608051
     10 C                     0.007164
     11 C                    -0.178004
     12 O                    -0.291969
     13 C                    -0.004599
     14 C                    -0.868608
     15 C                     0.583649
     16 O                    -0.231366
     17 C                    -1.379460
     18 C                    -0.099857
     19 O                     0.068150
     20 C                    -0.308244
     21 C                    -0.359873
     22 C                    -0.522467
     23 N                    -0.375166
     24 C                    -0.192862
     25 O                    -0.317937
     26 C                     0.032034
     27 C                    -0.619584
     28 O                    -0.135626
     29 C                     0.352755
     30 C                    -0.228986
     31 O                    -0.516871
     32 C                     0.531459
     33 C                    -0.413684
     34 O                    -0.515842
     35 C                     0.213411
     36 C                     0.317906
     37 C                    -0.541314
     38 O                    -0.374838
     39 H                     0.189136
     40 H                     0.160527
     41 H                     0.159167
     42 H                     0.180293
     43 H                     0.198097
     44 H                     0.152602
     45 H                     0.321260
     46 H                     0.254998
     47 H                     0.208239
     48 H                     0.356011
     49 H                     0.228015
     50 H                     0.224172
     51 H                     0.304703
     52 H                    -0.054453
     53 H                     0.215797
     54 H                     0.157859
     55 H                     0.230347
     56 H                     0.274301
     57 H                     0.276197
     58 H                     0.230065
     59 H                     0.408922
     60 H                     0.214110
     61 H                     0.157719
     62 H                     0.159263
     63 H                     0.165563
     64 H                     0.519044
     65 H                     0.196228
     66 H                     0.185394
     67 H                     0.193258
  ----------------------------------------
  Sum of atomic charges =    -2.000001

                    Cartesian Multipole Moments
 -----------------------------------------------------------------
    Charge (ESU x 10^10)
                -9.6064
    Dipole Moment (Debye)
         X     -11.8980      Y     -12.2412      Z      -3.3832
       Tot      17.4028
    Quadrupole Moments (Debye-Ang)
        XX    -296.7314     XY     -29.0340     YY    -294.5679
        XZ     -15.3628     YZ      -8.9900     ZZ    -263.0765

 Total job time:  970.06s(wall), 7301.28s(cpu)
        *  Thank you very much for using Q-Chem.  Have a nice day.  *
