 Q-Chem 5.4, Q-Chem, Inc., Pleasanton, CA (2021)
 Q-Chem 5.4.0 for Intel X86 EM64T Linux

User input:
--------------------------------------------------------------
$molecule
-2 1
C                  0.3774040000      1.8278680000     -1.2680180000
C                 -0.7157090000      1.2397050000     -1.8736290000
C                 -0.7704530000     -0.1675760000     -2.0236200000
C                  1.4615240000      1.0528260000     -0.7847930000
C                  1.4071230000     -0.3794100000     -0.9378610000
C                  0.2789140000     -0.9455920000     -1.5596080000
C                  2.5901590000      1.6757160000     -0.1547360000
C                  3.6218740000      0.7919830000      0.2938070000
C                  3.6035300000     -0.5927080000      0.1706170000
C                  2.4902160000     -1.2504500000     -0.4634850000
O                  2.7499200000      2.9463460000      0.0426780000
O                  2.4418400000     -2.5163780000     -0.5984020000
O                  4.6717400000      1.4504500000      0.8903110000
H                  0.4407180000      2.9040140000     -1.1429230000
H                 -1.5346600000      1.8569250000     -2.2368610000
H                 -1.6293710000     -0.6328940000     -2.5008680000
H                  0.2676170000     -2.0260380000     -1.6616120000
H                  4.3546820000      2.3834830000      0.8144330000
C                  4.7314390000     -1.4385890000      0.7022880000
C                  5.7885060000     -1.7856720000     -0.3685580000
C                  6.8672930000     -2.7882320000      0.1120380000
C                  7.7730670000     -3.2388800000     -1.0229340000
C                  8.6750380000     -2.3605340000     -1.6411210000
C                  7.7337090000     -4.5571750000     -1.4940490000
C                  9.5144120000     -2.7820490000     -2.6699590000
C                  9.4623350000     -4.1037370000     -3.1030490000
C                  8.5653490000     -4.9944640000     -2.5247490000
H                  4.3033080000     -2.3785470000      1.0709630000
H                  5.2080120000     -0.9179380000      1.5377930000
H                  6.2717800000     -0.8631260000     -0.7127670000
H                  5.2682250000     -2.2175940000     -1.2279710000
H                  6.3346090000     -3.6803620000      0.4644960000
C                  7.6920030000     -2.2459760000      1.2964540000
H                  8.7189610000     -1.3258000000     -1.3197210000
H                  7.0296970000     -5.2538680000     -1.0501110000
H                  8.5205090000     -6.0162480000     -2.8845790000
O                 10.2475960000     -4.5038570000     -4.1837110000
C                 11.4531640000     -5.1351170000     -3.9666510000
C                 12.0066830000     -5.3472970000     -2.7031970000
C                 12.1317620000     -5.5622600000     -5.1124880000
C                 13.3602720000     -6.2009980000     -4.9904650000
C                 13.2416000000     -5.9909350000     -2.5983220000
C                 13.9235960000     -6.4209040000     -3.7325370000
H                 10.2048420000     -2.0950090000     -3.1461780000
H                  7.0483960000     -2.0446370000      2.1549630000
H                  8.1909920000     -1.3073110000      1.0355240000
H                  8.4604350000     -2.9632290000      1.6034200000
H                 11.4817680000     -5.0146110000     -1.8166130000
H                 11.6819050000     -5.3851630000     -6.0835590000
H                 13.8834390000     -6.5321380000     -5.8844000000
H                 13.6714940000     -6.1555760000     -1.6139150000
H                 14.8830570000     -6.9218920000     -3.6416590000
$end

$rem
MAX_SCF_CYCLES=200
BASIS  =  6-311++G(d,p)
GUI  =  2
JOB_TYPE  =  SP
METHOD  =  B3LYP
THRESH      14
SCF_CONVERGENCE  = 5
SOLVENT_METHOD = sm12
$end

$smx
solvent dimethylformamide
charges CM5
$end

--------------------------------------------------------------

             Standard Nuclear Orientation (Angstroms)
    I     Atom           X                Y                Z
 ----------------------------------------------------------------
    1      C       0.3774040000     1.8278680000    -1.2680180000
    2      C      -0.7157090000     1.2397050000    -1.8736290000
    3      C      -0.7704530000    -0.1675760000    -2.0236200000
    4      C       1.4615240000     1.0528260000    -0.7847930000
    5      C       1.4071230000    -0.3794100000    -0.9378610000
    6      C       0.2789140000    -0.9455920000    -1.5596080000
    7      C       2.5901590000     1.6757160000    -0.1547360000
    8      C       3.6218740000     0.7919830000     0.2938070000
    9      C       3.6035300000    -0.5927080000     0.1706170000
   10      C       2.4902160000    -1.2504500000    -0.4634850000
   11      O       2.7499200000     2.9463460000     0.0426780000
   12      O       2.4418400000    -2.5163780000    -0.5984020000
   13      O       4.6717400000     1.4504500000     0.8903110000
   14      H       0.4407180000     2.9040140000    -1.1429230000
   15      H      -1.5346600000     1.8569250000    -2.2368610000
   16      H      -1.6293710000    -0.6328940000    -2.5008680000
   17      H       0.2676170000    -2.0260380000    -1.6616120000
   18      H       4.3546820000     2.3834830000     0.8144330000
   19      C       4.7314390000    -1.4385890000     0.7022880000
   20      C       5.7885060000    -1.7856720000    -0.3685580000
   21      C       6.8672930000    -2.7882320000     0.1120380000
   22      C       7.7730670000    -3.2388800000    -1.0229340000
   23      C       8.6750380000    -2.3605340000    -1.6411210000
   24      C       7.7337090000    -4.5571750000    -1.4940490000
   25      C       9.5144120000    -2.7820490000    -2.6699590000
   26      C       9.4623350000    -4.1037370000    -3.1030490000
   27      C       8.5653490000    -4.9944640000    -2.5247490000
   28      H       4.3033080000    -2.3785470000     1.0709630000
   29      H       5.2080120000    -0.9179380000     1.5377930000
   30      H       6.2717800000    -0.8631260000    -0.7127670000
   31      H       5.2682250000    -2.2175940000    -1.2279710000
   32      H       6.3346090000    -3.6803620000     0.4644960000
   33      C       7.6920030000    -2.2459760000     1.2964540000
   34      H       8.7189610000    -1.3258000000    -1.3197210000
   35      H       7.0296970000    -5.2538680000    -1.0501110000
   36      H       8.5205090000    -6.0162480000    -2.8845790000
   37      O      10.2475960000    -4.5038570000    -4.1837110000
   38      C      11.4531640000    -5.1351170000    -3.9666510000
   39      C      12.0066830000    -5.3472970000    -2.7031970000
   40      C      12.1317620000    -5.5622600000    -5.1124880000
   41      C      13.3602720000    -6.2009980000    -4.9904650000
   42      C      13.2416000000    -5.9909350000    -2.5983220000
   43      C      13.9235960000    -6.4209040000    -3.7325370000
   44      H      10.2048420000    -2.0950090000    -3.1461780000
   45      H       7.0483960000    -2.0446370000     2.1549630000
   46      H       8.1909920000    -1.3073110000     1.0355240000
   47      H       8.4604350000    -2.9632290000     1.6034200000
   48      H      11.4817680000    -5.0146110000    -1.8166130000
   49      H      11.6819050000    -5.3851630000    -6.0835590000
   50      H      13.8834390000    -6.5321380000    -5.8844000000
   51      H      13.6714940000    -6.1555760000    -1.6139150000
   52      H      14.8830570000    -6.9218920000    -3.6416590000
 ----------------------------------------------------------------

   10   -1305.2416570098      7.37e-06  Convergence criterion met
 Total energy in the final basis set =    -1305.5294916761

                    Orbital Energies (a.u.)
 --------------------------------------------------------------

 Alpha MOs
 -- Occupied --
-19.1683 -19.1191 -19.0292 -19.0232 -10.2473 -10.2390 -10.1872 -10.1866
-10.1848 -10.1846 -10.1838 -10.1836 -10.1827 -10.1821 -10.1817 -10.1808
-10.1806 -10.1799 -10.1767 -10.1710 -10.1709 -10.1661 -10.1657 -10.1655
-10.1626 -10.1614 -10.1576 -10.1474 -10.1447 -10.1349  -1.0855  -1.0326
 -0.9461  -0.9360  -0.8743  -0.8607  -0.8405  -0.8144  -0.7842  -0.7654
 -0.7592  -0.7576  -0.7456  -0.7393  -0.7225  -0.6982  -0.6588  -0.6447
 -0.6292  -0.6263  -0.6187  -0.6009  -0.5927  -0.5756  -0.5639  -0.5556
 -0.5488  -0.5174  -0.5107  -0.4949  -0.4869  -0.4830  -0.4762  -0.4635
 -0.4540  -0.4511  -0.4499  -0.4398  -0.4357  -0.4323  -0.4294  -0.4264
 -0.4209  -0.4159  -0.4103  -0.4013  -0.3996  -0.3881  -0.3809  -0.3738
 -0.3727  -0.3696  -0.3659  -0.3649  -0.3602  -0.3585  -0.3489  -0.3481
 -0.3388  -0.3370  -0.3322  -0.3247  -0.3218  -0.3175  -0.3087  -0.3041
 -0.2690  -0.2639  -0.2490  -0.2459  -0.2372  -0.2338  -0.2153  -0.2013
 -0.1987  -0.1130

          Ground-State Mulliken Net Atomic Charges

     Atom                 Charge (a.u.)
  ----------------------------------------
      1 C                    -0.300315
      2 C                     0.923635
      3 C                     0.859284
      4 C                    -2.206533
      5 C                    -1.929137
      6 C                    -0.639654
      7 C                    -2.101882
      8 C                    -0.153167
      9 C                     2.708984
     10 C                    -2.718349
     11 O                    -0.424322
     12 O                    -0.269883
     13 O                    -0.022756
     14 H                     0.105442
     15 H                     0.369676
     16 H                     0.344087
     17 H                     0.072147
     18 H                     0.297698
     19 C                     0.223183
     20 C                    -1.761979
     21 C                     0.363000
     22 C                    -0.339202
     23 C                    -0.535204
     24 C                     0.018636
     25 C                     0.827936
     26 C                     0.580573
     27 C                     0.915491
     28 H                     0.053958
     29 H                     0.187809
     30 H                    -0.165434
     31 H                     0.023987
     32 H                     0.107283
     33 C                     0.221256
     34 H                     0.274773
     35 H                     0.294076
     36 H                     0.308565
     37 O                    -0.042806
     38 C                    -1.070019
     39 C                    -0.549494
     40 C                    -0.031441
     41 C                     0.326168
     42 C                     0.300451
     43 C                     0.312874
     44 H                     0.312720
     45 H                     0.166308
     46 H                     0.063808
     47 H                     0.400171
     48 H                     0.174134
     49 H                     0.212993
     50 H                     0.319912
     51 H                     0.299980
     52 H                     0.290573
  ----------------------------------------
  Sum of atomic charges =    -2.000000

                    Cartesian Multipole Moments
 -----------------------------------------------------------------
    Charge (ESU x 10^10)
                -9.6064
    Dipole Moment (Debye)
         X     -23.2308      Y      -1.2803      Z       6.2605
       Tot      24.0936
    Quadrupole Moments (Debye-Ang)
        XX    -287.2837     XY       6.5797     YY    -239.3913
        XZ      15.4592     YZ     -10.1563     ZZ    -204.5830

 Total job time:  2598.92s(wall), 15615.71s(cpu)
        *  Thank you very much for using Q-Chem.  Have a nice day.  *
